------------------------------------------------------------
          Invoking FHI-aims ...

          When using FHI-aims, please cite the following reference:

            Volker Blum, Ralf Gehrke, Felix Hanke, Paula Havu,
            Ville Havu, Xinguo Ren, Karsten Reuter, and Matthias Scheffler,
            'Ab Initio Molecular Simulations with Numeric Atom-Centered Orbitals',
            Computer Physics Communications 180, 2175-2196 (2009)

          In addition, many other developments in FHI-aims are likely important for
          your particular application. A partial list of references is given at the end of
          this file. Thank you for giving credit to the authors of these developments.

          For any questions about FHI-aims, please visit our slack channel at

            https://fhi-aims.slack.com

          and our main development and support site at

            https://aims-git.rz-berlin.mpg.de .

          The latter site, in particular, has a wiki to collect information, as well
          as an issue tracker to log discussions, suggest improvements, and report issues
          or bugs. https://aims-git.rz-berlin.mpg.de is also the main development site
          of the project and all new and updated code versions can be obtained there.
          Please send an email to aims-coordinators@fhi-berlin.mpg.de and we will add
          you to these sites. They are for you and everyone is welcome there.

------------------------------------------------------------



  Date     :  20220517, Time     :  111425.517
  Time zero on CPU 1             :   0.417250000000000E-01  s.
  Internal wall clock time zero  :           422018065.517  s.

  FHI-aims created a unique identifier for this run for later identification
  aims_uuid : 02AD5EC9-0F7E-4D94-ACE1-814AF4F375F4

  Build configuration of the current instance of FHI-aims
  -------------------------------------------------------
  FHI-aims version      : 210914
  Commit number         : GITDIR-NOTFOUND
  CMake host system     : Linux-3.10.0-693.17.1.el7.x86_64
  CMake version         : 3.21.1
  Fortran compiler      : /shared/ucl/apps/intel/2018.Update3/impi/2018.3.222/intel64/bin/mpiifort (Intel) version 18.0.3.20180410
  Fortran compiler flags: -O3 -ip -fp-model precise
  C compiler            : /shared/ucl/apps/intel/2018.Update3/compilers_and_libraries_2018.3.222/linux/bin/intel64/icc (Intel) version 18.0.3.20180410
  C compiler flags      : -O3 -ip -fp-model precise -std=gnu99
  ELPA2 kernel          : AVX2
  Using MPI
  Using ScaLAPACK
  Using LibXC
  Using i-PI
  Using RLSY
  Linking against: /shared/ucl/apps/intel/2019.Update5/compilers_and_libraries_2019.5.281/linux/mkl/lib/intel64/libmkl_intel_lp64.so
                   /shared/ucl/apps/intel/2019.Update5/compilers_and_libraries_2019.5.281/linux/mkl/lib/intel64/libmkl_sequential.so
                   /shared/ucl/apps/intel/2019.Update5/compilers_and_libraries_2019.5.281/linux/mkl/lib/intel64/libmkl_core.so
                   /shared/ucl/apps/intel/2019.Update5/compilers_and_libraries_2019.5.281/linux/mkl/lib/intel64/libmkl_blacs_intelmpi_lp64.so
                   /shared/ucl/apps/intel/2019.Update5/compilers_and_libraries_2019.5.281/linux/mkl/lib/intel64/libmkl_scalapack_lp64.so

  Using       24 parallel tasks.
  Task        0 on host node-k98e-003 reporting.
  Task        1 on host node-k98e-003 reporting.
  Task        2 on host node-k98e-003 reporting.
  Task        3 on host node-k98e-003 reporting.
  Task        4 on host node-k98e-003 reporting.
  Task        5 on host node-k98e-003 reporting.
  Task        6 on host node-k98e-003 reporting.
  Task        7 on host node-k98e-003 reporting.
  Task        8 on host node-k98e-003 reporting.
  Task        9 on host node-k98e-003 reporting.
  Task       10 on host node-k98e-003 reporting.
  Task       11 on host node-k98e-003 reporting.
  Task       12 on host node-k98e-003 reporting.
  Task       13 on host node-k98e-003 reporting.
  Task       14 on host node-k98e-003 reporting.
  Task       15 on host node-k98e-003 reporting.
  Task       16 on host node-k98e-003 reporting.
  Task       17 on host node-k98e-003 reporting.
  Task       18 on host node-k98e-003 reporting.
  Task       19 on host node-k98e-003 reporting.
  Task       20 on host node-k98e-003 reporting.
  Task       21 on host node-k98e-003 reporting.
  Task       22 on host node-k98e-003 reporting.
  Task       23 on host node-k98e-003 reporting.

  Performing system and environment tests:
  | Environment variable OMP_NUM_THREADS correctly set to 1.
  | Checking for ScaLAPACK...
  | Testing pdtran()...
  | All pdtran() tests passed.

  Obtaining array dimensions for all initial allocations:
  
  -----------------------------------------------------------------------
  Parsing control.in (first pass over file, find array dimensions only).
  The contents of control.in will be repeated verbatim below
  unless switched off by setting 'verbatim_writeout .false.' .
  in the first line of control.in .
  -----------------------------------------------------------------------
  
  #########################################################################################  Physical model
  #########################################################################################
  xc                 pbesol
  spin               none
  relativistic       atomic_zora scalar
  charge             0.0
  #  SCF convergence
  occupation_type    gaussian 0.01
  mixer              pulay
  n_max_pulay        10
  charge_mix_param   0.5
  sc_accuracy_rho    1E-5
  sc_accuracy_eev    1E-3
  sc_accuracy_etot   1E-6
  sc_accuracy_forces 1E-4
  sc_iter_limit      1500
  #  Relaxation
  #relax_geometry   bfgs 1.e-3
  
  ################################################################################
  #
  #  FHI-aims code project
  #  VB, Fritz-Haber Institut, 2009
  #
  #  Suggested "light" defaults for Al atom (to be pasted into control.in file)
  #  Be sure to double-check any results obtained with these settings for post-processing,
  #  e.g., with the "tight" defaults and larger basis sets.
  #
  ################################################################################
    species        Al
  #     global species definitions
      nucleus             13
      mass                26.9815386
  #
      l_hartree           4
  #
      cut_pot             3.5          1.5  1.0
      basis_dep_cutoff    1e-4
  #
      radial_base         41 5.0
      radial_multiplier   1
      angular_grids       specified
        division   0.6594  110
        division   0.8170  194
        division   0.9059  302
  #      division   1.0363  434
  #      division   1.1443  590
  #      division   1.2621  770
  #      division   2.8177  974
  #      outer_grid   974
        outer_grid   302
  ################################################################################
  #
  #  Definition of "minimal" basis
  #
  ################################################################################
  #     valence basis states
      valence      3  s   2.
      valence      3  p   1.
  #     ion occupancy
      ion_occ      3  s   1.
      ion_occ      2  p   6.
  ################################################################################
  #
  #  Suggested additional basis functions. For production calculations,
  #  uncomment them one after another (the most important basis functions are
  #  listed first).
  #
  #  Constructed for dimers: 2.0 A, 2.5 A, 3.0 A, 3.75 A, 4.5 A
  #
  ################################################################################
  #  "First tier" - improvements: -199.47 meV to -10.63 meV
       ionic 3 d auto
       ionic 3 p auto
  #     hydro 4 f 4.7
       ionic 3 s auto
  #  "Second tier" - improvements: -5.35 meV to -1.57 meV
  #     hydro 5 g 7
  #     hydro 3 d 6
  #     hydro 2 s 11.6
  #     hydro 2 p 0.9
  #  "Third tier" - improvements: -0.63 meV to -0.20 meV
  #     hydro 5 f 7.6
  #     hydro 4 p 7.2
  #     hydro 4 s 3.7
  #     hydro 4 d 7.6
  #  "Fourth tier" - improvements: -0.17 meV to -0.08 meV
  #     hydro 4 d 13.6
  #     hydro 5 g 11.2
  #     hydro 4 d 0.9
  #     hydro 1 s 0.4
  #     hydro 4 p 0.1
  #     hydro 5 f 9.8
  #  Further basis functions that fell out of the optimization - noise level...
  #     hydro 4 p 5
  
  ################################################################################
  #
  #  FHI-aims code project
  #  VB, Fritz-Haber Institut, 2009
  #
  #  Suggested "light" defaults for F atom (to be pasted into control.in file)
  #  Be sure to double-check any results obtained with these settings for post-processing,
  #  e.g., with the "tight" defaults and larger basis sets.
  #
  ################################################################################
    species        F
  #     global species definitions
      nucleus             9
      mass                18.9984032
  #
      l_hartree           4
  #
      cut_pot             3.5  1.5  1.0
      basis_dep_cutoff    1e-4
  #
      radial_base         37 5.0
      radial_multiplier   1
      angular_grids specified
        division   0.4014  110
        division   0.5291  194
        division   0.6019  302
  #      division   0.6814  434
  #      division   0.7989  590
  #      division   0.8965  770
  #      division   1.3427  974
  #      outer_grid   974
        outer_grid   302
  ################################################################################
  #
  #  Definition of "minimal" basis
  #
  ################################################################################
  #     valence basis states
      valence      2  s   2.
      valence      2  p   5.
  #     ion occupancy
      ion_occ      2  s   1.
      ion_occ      2  p   4.
  ################################################################################
  #
  #  Suggested additional basis functions. For production calculations,
  #  uncomment them one after another (the most important basis functions are
  #  listed first).
  #
  #  Constructed for dimers: 1.2 A, 1.418 A, 1.75 A, 2.25 A, 3.25 A
  #
  ################################################################################
  #  "First tier" - improvements: -149.44 meV to -45.88 meV
       hydro 2 p 1.7
       hydro 3 d 7.4
       hydro 3 s 6.8
  #  "Second tier" - improvements: -12.96 meV to -1.56 meV
  #     hydro 4 f 11.2
  #     ionic 2 p auto
  #     hydro 1 s 0.75
  #     hydro 4 d 8.8
  #     hydro 5 g 16.8
  #  "Third tier" - improvements: -0.58 meV to -0.05 meV
  #     hydro 3 p 6.2
  #     hydro 3 s 3.2
  #     hydro 4 f 9.6
  #     hydro 3 s 19.6
  #     hydro 4 d 8.6
  #     hydro 5 g 14.4
  # Further basis functions: -0.05 meV and below
  #     hydro 3 p 4.2
  
  -----------------------------------------------------------------------
  Completed first pass over input file control.in .
  -----------------------------------------------------------------------
  
  
  -----------------------------------------------------------------------
  Parsing geometry.in (first pass over file, find array dimensions only).
  The contents of geometry.in will be repeated verbatim below
  unless switched off by setting 'verbatim_writeout .false.' .
  in the first line of geometry.in .
  -----------------------------------------------------------------------
  
  atom 1.281001062 0.028558116 2.485732437 Al
  atom 1.317092200 1.169441800 0.036858000 Al
  atom -0.291107785 0.843225764 -2.285713473 Al
  atom -1.710325604 -0.405195344 -2.216100077 F
  atom 2.052226592 -0.323094554 0.720132113 F
  atom 0.059308384 1.846713654 -3.836829394 F
  atom -0.393800626 1.939253281 -0.799862895 F
  atom 2.587159353 2.421298909 -0.322489444 F
  atom 1.247636423 0.024867928 -1.667545977 F
  atom 0.449991471 1.545566823 1.567091902 F
  atom 2.510543130 0.580900019 3.593076209 F
  atom 0.057440959 -1.163933859 2.802078986 F
  
  -----------------------------------------------------------------------
  Completed first pass over input file geometry.in .
  -----------------------------------------------------------------------
  

  Basic array size parameters:
  | Number of species                 :        2
  | Number of atoms                   :       12
  | Max. basis fn. angular momentum   :        2
  | Max. atomic/ionic basis occupied n:        3
  | Max. number of basis fn. types    :        3
  | Max. radial fns per species/type  :        5
  | Max. logarithmic grid size        :     1340
  | Max. radial integration grid size :       41
  | Max. angular integration grid size:      302
  | Max. angular grid division number :        8
  | Radial grid for Hartree potential :     1340
  | Number of spin channels           :        1

------------------------------------------------------------
          Reading file control.in.
------------------------------------------------------------
  XC: Using PBEsol gradient-corrected functionals.
  Spin treatment: No spin polarisation.
  Scalar relativistic treatment of kinetic energy: on-site free-atom approximation to ZORA.
  Charge =   0.000000E+00: Neutral system requested explicitly.
  Occupation type: Gaussian broadening, width =   0.100000E-01 eV.
  Using pulay charge density mixing.
  Pulay mixing - number of memorized iterations:   10
  Charge density mixing - mixing parameter:     0.5000
  Convergence accuracy of self-consistent charge density:  0.1000E-04
  Convergence accuracy of sum of eigenvalues:  0.1000E-02
  Convergence accuracy of total energy:  0.1000E-05
  Convergence accuracy of forces:  0.1000E-03
  Maximum number of s.-c. iterations  :  1500
 
  Reading configuration options for species Al                  .
  | Found nuclear charge :  13.0000
  | Found atomic mass :    26.9815386000000      amu
  | Found l_max for Hartree potential  :   4
  | Found cutoff potl. onset [A], width [A], scale factor :    3.50000    1.50000    1.00000
  | Threshold for basis-dependent cutoff potential is   0.100000E-03
  | Found data for basic radial integration grid :    41 points, outermost radius =    5.000 A
  | Found multiplier for basic radial grid :   1
  | Found angular grid specification: user-specified.
  | Specified grid contains     4 separate shells.
  | Check grid settings after all constraints further below.
  | Found free-atom valence shell :  3 s   2.000
  | Found free-atom valence shell :  3 p   1.000
  | Found free-ion valence shell :  3 s   1.000
  | Found free-ion valence shell :  2 p   6.000
  | Found ionic basis function :  3 d , default cutoff radius.
  | Found ionic basis function :  3 p , default cutoff radius.
  | Found ionic basis function :  3 s , default cutoff radius.
  Species Al                  : Missing cutoff potential type.
  Defaulting to exp(1/x)/(1-x)^2 type cutoff potential.
  Species Al: No 'logarithmic' tag. Using default grid for free atom:
  | Default logarithmic grid data [bohr] : 0.1000E-03 0.1000E+03 0.1012E+01
  | Will include ionic basis functions of  2.0-fold positive Al                   ion.
  Species Al: On-site basis accuracy parameter (for Gram-Schmidt orthonormalisation) not specified.
  Using default value basis_acc =  0.1000000E-03.
  Species Al                  : Using default innermost maximum threshold i_radial=  2 for radial functions.
  Species Al                  : Default cutoff onset for free atom density etc. : 0.35000000E+01 AA.
  Species Al                  : Basic radial grid will be enhanced according to radial_multiplier =   1, to contain    41 grid points.
 
  Reading configuration options for species F                   .
  | Found nuclear charge :   9.0000
  | Found atomic mass :    18.9984032000000      amu
  | Found l_max for Hartree potential  :   4
  | Found cutoff potl. onset [A], width [A], scale factor :    3.50000    1.50000    1.00000
  | Threshold for basis-dependent cutoff potential is   0.100000E-03
  | Found data for basic radial integration grid :    37 points, outermost radius =    5.000 A
  | Found multiplier for basic radial grid :   1
  | Found angular grid specification: user-specified.
  | Specified grid contains     4 separate shells.
  | Check grid settings after all constraints further below.
  | Found free-atom valence shell :  2 s   2.000
  | Found free-atom valence shell :  2 p   5.000
  | Found free-ion valence shell :  2 s   1.000
  | Found free-ion valence shell :  2 p   4.000
  | Found hydrogenic basis function :  2 p   1.700
  | Found hydrogenic basis function :  3 d   7.400
  | Found hydrogenic basis function :  3 s   6.800
  Species F                   : Missing cutoff potential type.
  Defaulting to exp(1/x)/(1-x)^2 type cutoff potential.
  Species F : No 'logarithmic' tag. Using default grid for free atom:
  | Default logarithmic grid data [bohr] : 0.1000E-03 0.1000E+03 0.1012E+01
  Species F : On-site basis accuracy parameter (for Gram-Schmidt orthonormalisation) not specified.
  Using default value basis_acc =  0.1000000E-03.
  Species F                   : Using default innermost maximum threshold i_radial=  2 for radial functions.
  Species F                   : Default cutoff onset for free atom density etc. : 0.35000000E+01 AA.
  Species F                   : Basic radial grid will be enhanced according to radial_multiplier =   1, to contain    37 grid points.
 
  Finished reading input file 'control.in'.
 
------------------------------------------------------------


------------------------------------------------------------
          Reading geometry description geometry.in.
------------------------------------------------------------
  | The smallest distance between any two atoms is         1.73758786 AA.
  | The first atom of this pair is atom number                      1 .
  | The second atom of this pair is atom number                    12 .
  Input structure read successfully.
  The structure contains       12 atoms,  and a total of        120.000 electrons.

  Input geometry:
  | No unit cell requested.
  | Atomic structure:
  |       Atom                x [A]            y [A]            z [A]
  |    1: Species Al            1.28100106        0.02855812        2.48573244
  |    2: Species Al            1.31709220        1.16944180        0.03685800
  |    3: Species Al           -0.29110779        0.84322576       -2.28571347
  |    4: Species F            -1.71032560       -0.40519534       -2.21610008
  |    5: Species F             2.05222659       -0.32309455        0.72013211
  |    6: Species F             0.05930838        1.84671365       -3.83682939
  |    7: Species F            -0.39380063        1.93925328       -0.79986289
  |    8: Species F             2.58715935        2.42129891       -0.32248944
  |    9: Species F             1.24763642        0.02486793       -1.66754598
  |   10: Species F             0.44999147        1.54556682        1.56709190
  |   11: Species F             2.51054313        0.58090002        3.59307621
  |   12: Species F             0.05744096       -1.16393386        2.80207899

 
  Finished reading input file 'control.in'.
 

------------------------------------------------------------
          Reading geometry description geometry.in.
------------------------------------------------------------
 
  Consistency checks for stacksize environment parameter are next.
 
  | Maximum stacksize for task 0: unlimited
  | Maximum stacksize for task 1: unlimited
  | Maximum stacksize for task 2: unlimited
  | Maximum stacksize for task 3: unlimited
  | Maximum stacksize for task 4: unlimited
  | Maximum stacksize for task 5: unlimited
  | Maximum stacksize for task 6: unlimited
  | Maximum stacksize for task 7: unlimited
  | Maximum stacksize for task 8: unlimited
  | Maximum stacksize for task 9: unlimited
  | Maximum stacksize for task 10: unlimited
  | Maximum stacksize for task 11: unlimited
  | Maximum stacksize for task 12: unlimited
  | Maximum stacksize for task 13: unlimited
  | Maximum stacksize for task 14: unlimited
  | Maximum stacksize for task 15: unlimited
  | Maximum stacksize for task 16: unlimited
  | Maximum stacksize for task 17: unlimited
  | Maximum stacksize for task 18: unlimited
  | Maximum stacksize for task 19: unlimited
  | Maximum stacksize for task 20: unlimited
  | Maximum stacksize for task 21: unlimited
  | Maximum stacksize for task 22: unlimited
  | Maximum stacksize for task 23: unlimited
  | Current stacksize for task 0: unlimited
  | Current stacksize for task 1: unlimited
  | Current stacksize for task 2: unlimited
  | Current stacksize for task 3: unlimited
  | Current stacksize for task 4: unlimited
  | Current stacksize for task 5: unlimited
  | Current stacksize for task 6: unlimited
  | Current stacksize for task 7: unlimited
  | Current stacksize for task 8: unlimited
  | Current stacksize for task 9: unlimited
  | Current stacksize for task 10: unlimited
  | Current stacksize for task 11: unlimited
  | Current stacksize for task 12: unlimited
  | Current stacksize for task 13: unlimited
  | Current stacksize for task 14: unlimited
  | Current stacksize for task 15: unlimited
  | Current stacksize for task 16: unlimited
  | Current stacksize for task 17: unlimited
  | Current stacksize for task 18: unlimited
  | Current stacksize for task 19: unlimited
  | Current stacksize for task 20: unlimited
  | Current stacksize for task 21: unlimited
  | Current stacksize for task 22: unlimited
  | Current stacksize for task 23: unlimited
 
  Consistency checks for the contents of control.in are next.
 
  MPI_IN_PLACE appears to work with this MPI implementation.
  | Keeping use_mpi_in_place .true. (see manual).
  Target number of points in a grid batch is not set. Defaulting to  100
  Method for grid partitioning is not set. Defaulting to parallel hash+maxmin partitioning.
  Batch size limit is not set. Defaulting to    200
  By default, will store active basis functions for each batch.
  If in need of memory, prune_basis_once .false. can be used to disable this option.
  communication_type for Hartree potential was not specified.
  Defaulting to calc_hartree .
  Pulay mixer: Number of initial linear mixing iterations not set.
  Defaulting to    0 iterations.
  Work space size for distributed Hartree potential not set.
  Defaulting to   0.200000E+03 MB.
  Algorithm-dependent basis array size parameters:
  | n_max_pulay                         :       10
  Presetting      1001 iterations before the initial mixing cycle
  is restarted anyway using the sc_init_iter criterion / keyword.
  Presetting a factor      1.000 between actual scf density residual
  and density convergence criterion sc_accuracy_rho below which sc_init_iter
  takes no effect.
  Geometry relaxation not requested: no relaxation will be performed.
  Forces evaluation will include force correction term due to incomplete self-consistency (default).
  Handling of forces: Unphysical translation and rotation will be removed from forces.
  No accuracy limit for integral partition fn. given. Defaulting to  0.1000E-14.
  No threshold value for u(r) in integrations given. Defaulting to  0.1000E-05.
  No accuracy for occupation numbers given. Defaulting to  0.1000E-12.
  No threshold value for occupation numbers given. Defaulting to  0.0000E+00.
  No accuracy for fermi level given. Defaulting to  0.1000E-19.
  Maximum # of iterations to find E_F not set. Defaulting to  200.
  Preferred method for the eigenvalue solver ('KS_method') not specified in 'control.in'.
  Calling BLACS routine to test compilation state
  Since ScaLAPACK support is enabled, defaulting to ELPA (via ELSI).
  Will not use alltoall communication since running on < 1024 CPUs.
  Threshold for basis singularities not set.
  Default threshold for basis singularities:  0.1000E-04
  partition_type (choice of integration weights) for integrals was not specified.
  | Using a version of the partition function of Stratmann and coworkers ('stratmann_sparse').
  | At each grid point, the set of atoms used to build the partition table is smoothly restricted to
  | only those atoms whose free-atom density would be non-zero at that grid point.
  Partitioning for Hartree potential was not defined. Using partition_type for integrals.
  | Adjusted default value of keyword multip_moments_threshold to:       0.10000000E-11
  | This value may affect high angular momentum components of the Hartree potential in periodic systems.
  No q(lm)/r^(l+1) cutoff set for long-range Hartree potential.
  | Using default value of  0.100000E-09 .
  | Verify using the multipole_threshold keyword.
  Defaulting to new monopole extrapolation.
  Density update method: automatic selection selected.
  Charge integration errors on the 3D integration grid will be compensated
  by explicit normalization and distribution of residual charges.
  Use the "compensate_multipole_errors" flag to change this behaviour.
  Set 'collect_eigenvectors' to be '.true.' for use_density_matrix .false.
 
  Consistency checks for the contents of geometry.in are next.
 
  Number of empty states per atom not set in control.in - providing a guess from actual geometry.
  | Total number of empty states used during s.c.f. cycle:       36
  If you use a very high smearing, use empty_states (per atom!) in control.in to increase this value.

  Structure-dependent array size parameters: 
  | Maximum number of distinct radial functions  :       14
  | Maximum number of basis functions            :      180
  | Number of Kohn-Sham states (occupied + empty):       96
------------------------------------------------------------

------------------------------------------------------------
          Preparing all fixed parts of the calculation.
------------------------------------------------------------
  Determining machine precision:
    2.225073858507201E-308
  Setting up grids for atomic and cluster calculations.

  Creating wave function, potential, and density for free atoms.

  Species: Al

  List of occupied orbitals and eigenvalues:
    n    l              occ      energy [Ha]    energy [eV]
    1    0           2.0000       -55.621123     -1513.5278
    2    0           2.0000        -3.957030      -107.6763
    3    0           2.0000        -0.272233        -7.4078
    2    1           6.0000        -2.540949       -69.1427
    3    1           1.0000        -0.083300        -2.2667


  Species: F

  List of occupied orbitals and eigenvalues:
    n    l              occ      energy [Ha]    energy [eV]
    1    0           2.0000       -24.399611      -663.9472
    2    0           2.0000        -1.098702       -29.8972
    2    1           5.0000        -0.408210       -11.1080


  Adding cutoff potential to free-atom effective potential.
  Creating fixed part of basis set: Ionic, confined, hydrogenic.
 
  Al                   ion:

  List of free ionic orbitals and eigenvalues:
    n    l      energy [Ha]    energy [eV]
    1    0       -56.418846     -1535.2349
    2    0        -4.732717      -128.7838
    3    0        -0.872690       -23.7471
    2    1        -3.317230       -90.2664


  List of ionic basis orbitals and eigenvalues:
    n    l      energy [Ha]    energy [eV]    outer radius [A]
    3    2        -0.346815        -9.4373       4.594041
    3    1        -0.631870       -17.1940       4.538221
    3    0        -0.872657       -23.7462       4.538221

 
  F                    hydrogenic:
 
  List of hydrogenic basis orbitals: 
    n    l      effective z      eigenvalue [eV]  inner max. [A]     outer max. [A]     outer radius [A]   
    2    1         1.700000        -9.7616           1.243167           1.243167           4.598524
    3    2         7.400000       -82.7828           0.642437           0.642437           3.305741
    3    0         6.800000       -69.9026           0.057798           1.022307           3.781556
 
  Creating atomic-like basis functions for current effective potential.

  Species Al                  :

  List of atomic basis orbitals and eigenvalues:
    n    l      energy [Ha]    energy [eV]    outer radius [A]
    1    0       -55.621123     -1513.5278       0.850197
    2    0        -3.957030      -107.6763       3.144911
    3    0        -0.272233        -7.4078       4.594041
    2    1        -2.540949       -69.1427       3.731966
    3    1        -0.083300        -2.2667       4.594041


  Species F                   :

  List of atomic basis orbitals and eigenvalues:
    n    l      energy [Ha]    energy [eV]    outer radius [A]
    1    0       -24.399611      -663.9472       1.258458
    2    0        -1.098702       -29.8972       4.325857
    2    1        -0.408210       -11.1080       4.487453

  Assembling full basis from fixed parts.
  | Species Al :   atomic orbital   1 s accepted.
  | Species Al :   atomic orbital   2 s accepted.
  | Species Al :    ionic orbital   3 s accepted.
  | Species Al :   atomic orbital   3 s accepted.
  | Species Al :   atomic orbital   2 p accepted.
  | Species Al :    ionic orbital   3 p accepted.
  | Species Al :   atomic orbital   3 p accepted.
  | Species Al :    ionic orbital   3 d accepted.
  | Species F :   atomic orbital   1 s accepted.
  | Species F :    hydro orbital   3 s accepted.
  | Species F :   atomic orbital   2 s accepted.
  | Species F :   atomic orbital   2 p accepted.
  | Species F :    hydro orbital   2 p accepted.
  | Species F :    hydro orbital   3 d accepted.
 
  Basis size parameters after reduction:
  | Total number of radial functions:       14
  | Total number of basis functions :      180
 
  Per-task memory consumption for arrays in subroutine allocate_ext:
  |           4.807768MB.
  Testing on-site integration grid accuracy.
  |  Species  Function  <phi|h_atom|phi> (log., in eV)  <phi|h_atom|phi> (rad., in eV)
           1        1              -1513.5277717935              -1513.5271881332
           1        2               -107.6762691836               -107.6762662489
           1        3                 -6.9467474784                 -6.9471269649
           1        4                  5.5771951849                  5.4862107220 ***
           1        5                -69.1427313144                -69.1427312731
           1        6                 -1.5197375330                 -1.5230432022
           1        7                  6.8210948310                  6.5529872240 ***
           1        8                  4.3216540965                  4.2851170187 ***
           2        9               -663.9471986398               -663.9470363334
           2       10                 16.8514011578                 16.8512525338
           2       11                -28.4490593856                -28.4490661472
           2       12                -11.1080115307                -11.1080620173
           2       13                  7.1940182175                  7.1685154137
           2       14                 44.8544281765                 44.8543763625
 * Note: Onsite integrals marked "***" above are less accurate than
 * onsite_accuracy_threshold =    0.03000 eV. Usually, this is harmless.
 * When in doubt, tighten the "radial" and/or "radial_multiplier" flags to check.

  Preparing densities etc. for the partition functions (integrals / Hartree potential).

  Preparations completed.
  max(cpu_time)          :      0.184 s.
  Wall clock time (cpu1) :      0.184 s.
------------------------------------------------------------

------------------------------------------------------------
          Begin self-consistency loop: Initialization.

          Date     :  20220517, Time     :  111425.745
------------------------------------------------------------

  Initializing index lists of integration centers etc. from given atomic structure:
  | Number of centers in hartree potential         :        12
  | Number of centers in hartree multipole         :        12
  | Number of centers in electron density summation:        12
  | Number of centers in basis integrals           :        12
  | Number of centers in integrals                 :        12
  | Number of centers in hamiltonian               :        12
  * Using 24 tasks for Scalapack Eigenvalue solver.
  Detailed listing of tasks and assigned k-points:
  (for non-periodic systems, the "k-point" denotes an internal label only)
   Task     0 k-point     1 on node-k98e-003
   Task     1 k-point     1 on node-k98e-003
   Task     2 k-point     1 on node-k98e-003
   Task     3 k-point     1 on node-k98e-003
   Task     4 k-point     1 on node-k98e-003
   Task     5 k-point     1 on node-k98e-003
   Task     6 k-point     1 on node-k98e-003
   Task     7 k-point     1 on node-k98e-003
   Task     8 k-point     1 on node-k98e-003
   Task     9 k-point     1 on node-k98e-003
   Task    10 k-point     1 on node-k98e-003
   Task    11 k-point     1 on node-k98e-003
   Task    12 k-point     1 on node-k98e-003
   Task    13 k-point     1 on node-k98e-003
   Task    14 k-point     1 on node-k98e-003
   Task    15 k-point     1 on node-k98e-003
   Task    16 k-point     1 on node-k98e-003
   Task    17 k-point     1 on node-k98e-003
   Task    18 k-point     1 on node-k98e-003
   Task    19 k-point     1 on node-k98e-003
   Task    20 k-point     1 on node-k98e-003
   Task    21 k-point     1 on node-k98e-003
   Task    22 k-point     1 on node-k98e-003
   Task    23 k-point     1 on node-k98e-003
  Tasks:    24 split into      6 X      4 BLACS grid
  Calculating block size based on n_basis =          180  max_nprow =            6  max_npcol =            4
  ScaLAPACK block size set to:           16
  Allocating        0.012 MB for ovlp
  Allocating        0.012 MB for ham
  Allocating        0.012 MB for eigenvec
  Required Scalapack workspace - INTEGER:            1  REAL:             1
  Partitioning the integration grid into batches with parallel hashing+maxmin method.
  | Number of batches:     1064
  | Maximal batch size:     194
  | Minimal batch size:      19
  | Average batch size:      86.391
  | Standard deviation of batch sizes:      24.705

  Integration load balanced across    24 MPI tasks.
  Work distribution over tasks is as follows:
  Task     0 has       3846 integration points.
  Task     1 has       3878 integration points.
  Task     2 has       3826 integration points.
  Task     3 has       3768 integration points.
  Task     4 has       3872 integration points.
  Task     5 has       3772 integration points.
  Task     6 has       3842 integration points.
  Task     7 has       3845 integration points.
  Task     8 has       3851 integration points.
  Task     9 has       3790 integration points.
  Task    10 has       3851 integration points.
  Task    11 has       3863 integration points.
  Task    12 has       3843 integration points.
  Task    13 has       3777 integration points.
  Task    14 has       3848 integration points.
  Task    15 has       3830 integration points.
  Task    16 has       3845 integration points.
  Task    17 has       3822 integration points.
  Task    18 has       3791 integration points.
  Task    19 has       3833 integration points.
  Task    20 has       3825 integration points.
  Task    21 has       3831 integration points.
  Task    22 has       3824 integration points.
  Task    23 has       3847 integration points.
  Initializing partition tables, free-atom densities, potentials, etc. across the integration grid (initialize_grid_storage).
  | initialize_grid_storage: Actual outermost partition radius vs. multipole_radius_free
  | (-- VB: in principle, multipole_radius_free should be larger, hence this output)
  | Species        1: Confinement radius =              4.999999999999999 AA, multipole_radius_free =              5.004487022111096 AA.
  | Species        1: outer_partition_radius set to              5.004487022111096 AA .
  | Species        2: Confinement radius =              4.999999999999999 AA, multipole_radius_free =              5.009370088163274 AA.
  | Species        2: outer_partition_radius set to              5.009370088163274 AA .
  | The sparse table of interatomic distances needs          1.64 kbyte instead of         1.15 kbyte of memory.
  | Using the partition_type stratmann_smoother will reduce your memory usage.
  | Net number of integration points:    91920
  | of which are non-zero points    :    85862
  Renormalizing the initial density to the exact electron count on the 3D integration grid.
  | Initial density: Formal number of electrons (from input files) :     120.0000000000
  | Integrated number of electrons on 3D grid     :     119.9999358860
  | Charge integration error                      :      -0.0000641140
  | Normalization factor for density and gradient :       1.0000005343
  Renormalizing the free-atom superposition density to the exact electron count on the 3D integration grid.
  | Formal number of electrons (from input files) :     120.0000000000
  | Integrated number of electrons on 3D grid     :     119.9999358860
  | Charge integration error                      :      -0.0000641140
  | Normalization factor for density and gradient :       1.0000005343
  Obtaining max. number of non-zero basis functions in each batch (get_n_compute_maxes).
  | Maximal number of non-zero basis functions:      160 in task     0
  | Maximal number of non-zero basis functions:      159 in task     1
  | Maximal number of non-zero basis functions:      165 in task     2
  | Maximal number of non-zero basis functions:      161 in task     3
  | Maximal number of non-zero basis functions:      158 in task     4
  | Maximal number of non-zero basis functions:      163 in task     5
  | Maximal number of non-zero basis functions:      159 in task     6
  | Maximal number of non-zero basis functions:      160 in task     7
  | Maximal number of non-zero basis functions:      164 in task     8
  | Maximal number of non-zero basis functions:      163 in task     9
  | Maximal number of non-zero basis functions:      159 in task    10
  | Maximal number of non-zero basis functions:      159 in task    11
  | Maximal number of non-zero basis functions:      165 in task    12
  | Maximal number of non-zero basis functions:      164 in task    13
  | Maximal number of non-zero basis functions:      166 in task    14
  | Maximal number of non-zero basis functions:      161 in task    15
  | Maximal number of non-zero basis functions:      159 in task    16
  | Maximal number of non-zero basis functions:      165 in task    17
  | Maximal number of non-zero basis functions:      153 in task    18
  | Maximal number of non-zero basis functions:      163 in task    19
  | Maximal number of non-zero basis functions:      166 in task    20
  | Maximal number of non-zero basis functions:      157 in task    21
  | Maximal number of non-zero basis functions:      160 in task    22
  | Maximal number of non-zero basis functions:      161 in task    23
  Selecting the method for density update.
  Loop over occupied states selected for charge density update.
  Allocating        0.132 MB for KS_eigenvector
  Integrating Hamiltonian matrix: batch-based integration.
  Time summed over all CPUs for integration: real work        0.681 s, elapsed        0.724 s
  Integrating overlap matrix.
  Time summed over all CPUs for integration: real work        0.262 s, elapsed        0.276 s
  Deallocating overlap matrix.

  Updating Kohn-Sham eigenvalues and eigenvectors using ELSI and the ELPA eigensolver.
  Overlap matrix is not singular
  | Lowest and highest eigenvalues :  0.3323E-02,  0.4864E+01
  Finished singularity check of overlap matrix
  | Time :     0.004 s
  Starting ELPA eigensolver
  Finished Cholesky decomposition
  | Time :     0.002 s
  Finished transformation to standard eigenproblem
  | Time :     0.001 s
  Finished solving standard eigenproblem
  | Time :     0.004 s
  Finished back-transformation of eigenvectors
  | Time :     0.000 s

  Obtaining occupation numbers and chemical potential using ELSI.
  | Chemical potential (Fermi level):    -7.67295734 eV
  Writing Kohn-Sham eigenvalues.

  State    Occupation    Eigenvalue [Ha]    Eigenvalue [eV]
      1       2.00000         -55.486403        -1509.86184
      2       2.00000         -55.485216        -1509.82956
      3       2.00000         -55.483377        -1509.77950
      4       2.00000         -24.368069         -663.08889
      5       2.00000         -24.368069         -663.08889
      6       2.00000         -24.355810         -662.75532
      7       2.00000         -24.355810         -662.75532
      8       2.00000         -24.350870         -662.62088
      9       2.00000         -24.349872         -662.59374
     10       2.00000         -24.340211         -662.33085
     11       2.00000         -24.333696         -662.15357
     12       2.00000         -24.332639         -662.12479
     13       2.00000          -3.952435         -107.55123
     14       2.00000          -3.950875         -107.50877
     15       2.00000          -3.948225         -107.43666
     16       2.00000          -2.545438          -69.26489
     17       2.00000          -2.544283          -69.23345
     18       2.00000          -2.544103          -69.22857
     19       2.00000          -2.543625          -69.21556
     20       2.00000          -2.543137          -69.20228
     21       2.00000          -2.540993          -69.14395
     22       2.00000          -2.540673          -69.13523
     23       2.00000          -2.539905          -69.11434
     24       2.00000          -2.539573          -69.10528
     25       2.00000          -1.199600          -32.64279
     26       2.00000          -1.186465          -32.28537
     27       2.00000          -1.178252          -32.06187
     28       2.00000          -1.168073          -31.78488
     29       2.00000          -1.164319          -31.68272
     30       2.00000          -1.160914          -31.59007
     31       2.00000          -1.148536          -31.25325
     32       2.00000          -1.139486          -31.00700
     33       2.00000          -1.137222          -30.94540
     34       2.00000          -0.560125          -15.24178
     35       2.00000          -0.555369          -15.11237
     36       2.00000          -0.537130          -14.61604
     37       2.00000          -0.536595          -14.60148
     38       2.00000          -0.517196          -14.07363
     39       2.00000          -0.509314          -13.85914
     40       2.00000          -0.501499          -13.64649
     41       2.00000          -0.499721          -13.59809
     42       2.00000          -0.496445          -13.50896
     43       2.00000          -0.488125          -13.28255
     44       2.00000          -0.485615          -13.21427
     45       2.00000          -0.484477          -13.18329
     46       2.00000          -0.483082          -13.14533
     47       2.00000          -0.476761          -12.97331
     48       2.00000          -0.473631          -12.88817
     49       2.00000          -0.467513          -12.72168
     50       2.00000          -0.466460          -12.69302
     51       2.00000          -0.465634          -12.67055
     52       2.00000          -0.463317          -12.60750
     53       2.00000          -0.459070          -12.49192
     54       2.00000          -0.457425          -12.44717
     55       2.00000          -0.449519          -12.23203
     56       2.00000          -0.449355          -12.22757
     57       2.00000          -0.446274          -12.14373
     58       2.00000          -0.443974          -12.08116
     59       2.00000          -0.440856          -11.99629
     60       2.00000          -0.439310          -11.95424
     61       0.00000          -0.137143           -3.73184
     62       0.00000          -0.107769           -2.93255
     63       0.00000          -0.061955           -1.68589
     64       0.00000          -0.027348           -0.74419
     65       0.00000          -0.022155           -0.60287
     66       0.00000          -0.006976           -0.18983
     67       0.00000          -0.005299           -0.14418
     68       0.00000           0.037290            1.01471
     69       0.00000           0.050675            1.37894
     70       0.00000           0.066032            1.79681
     71       0.00000           0.083109            2.26150
     72       0.00000           0.115466            3.14198
     73       0.00000           0.144222            3.92448
     74       0.00000           0.156822            4.26734
     75       0.00000           0.172806            4.70230
     76       0.00000           0.173581            4.72338
     77       0.00000           0.175063            4.76370
     78       0.00000           0.180300            4.90620
     79       0.00000           0.191074            5.19940
     80       0.00000           0.202690            5.51548
     81       0.00000           0.205970            5.60474
     82       0.00000           0.216231            5.88393
     83       0.00000           0.225555            6.13766
     84       0.00000           0.231666            6.30396
     85       0.00000           0.252715            6.87673
     86       0.00000           0.264967            7.21011
     87       0.00000           0.269741            7.34002
     88       0.00000           0.275080            7.48530
     89       0.00000           0.276072            7.51229
     90       0.00000           0.296610            8.07118
     91       0.00000           0.297731            8.10167
     92       0.00000           0.305507            8.31328
     93       0.00000           0.339451            9.23694
     94       0.00000           0.347246            9.44905
     95       0.00000           0.366111            9.96238
     96       0.00000           0.372622           10.13956

  Highest occupied state (VBM) at    -11.95423523 eV
  | Occupation number:      2.00000000

  Lowest unoccupied state (CBM) at    -3.73184016 eV
  | Occupation number:      0.00000000

  Overall HOMO-LUMO gap:      8.22239507 eV.
  Calculating total energy contributions from superposition of free atom densities.

  Total energy components:
  | Sum of eigenvalues            :        -887.75993553 Ha      -24157.17694930 eV
  | XC energy correction          :        -144.34789965 Ha       -3927.90619912 eV
  | XC potential correction       :         187.94941161 Ha        5114.36370576 eV
  | Free-atom electrostatic energy:        -781.19870715 Ha      -21257.49839121 eV
  | Hartree energy correction     :           0.00000000 Ha           0.00000000 eV
  | Entropy correction            :           0.00000000 Ha           0.00000000 eV
  | ---------------------------
  | Total energy                  :       -1625.35713072 Ha      -44228.21783387 eV
  | Total energy, T -> 0          :       -1625.35713072 Ha      -44228.21783387 eV  <-- do not rely on this value for anything but (periodic) metals
  | Electronic free energy        :       -1625.35713072 Ha      -44228.21783387 eV

  Derived energy quantities:
  | Kinetic energy                :        1627.65442012 Ha       44290.73025915 eV
  | Electrostatic energy          :       -3108.66365120 Ha      -84591.04189390 eV
  | Energy correction for multipole
  | error in Hartree potential    :           0.00000000 Ha           0.00000000 eV
  | Sum of eigenvalues per atom                           :       -2013.09807911 eV
  | Total energy (T->0) per atom                          :       -3685.68481949 eV  <-- do not rely on this value for anything but (periodic) metals
  | Electronic free energy per atom                       :       -3685.68481949 eV
  Initialize hartree_potential_storage
  Max. number of atoms included in rho_multipole:           12

  End scf initialization - timings             :  max(cpu_time)    wall_clock(cpu1)
  | Time for scf. initialization                :        0.110 s           0.111 s
  | Boundary condition initialization           :        0.000 s           0.000 s
  | Integration                                 :        0.043 s           0.043 s
  | Solution of K.-S. eqns.                     :        0.012 s           0.011 s
  | Grid partitioning                           :        0.034 s           0.034 s
  | Preloading free-atom quantities on grid     :        0.015 s           0.015 s
  | Free-atom superposition energy              :        0.005 s           0.004 s
  | Total energy evaluation                     :        0.000 s           0.001 s

  Partial memory accounting:
  | Current value for overall tracked memory usage:
  |   Minimum:        0.273 MB (on task 23)
  |   Maximum:        0.292 MB (on task  0)
  |   Average:        0.287 MB
  | Peak value for overall tracked memory usage:
  |   Minimum:        1.277 MB (on task 18 after allocating wave)
  |   Maximum:        1.367 MB (on task 14 after allocating wave)
  |   Average:        1.330 MB
  | Largest tracked array allocation so far:
  |   Minimum:        0.226 MB (H_times_psi on task 18)
  |   Maximum:        0.446 MB (all_coords on task 14)
  |   Average:        0.261 MB
  Note:  These values currently only include a subset of arrays which are explicitly tracked.
  The "true" memory usage will be greater.
------------------------------------------------------------
  Evaluating new KS density.
  Integration grid: deviation in total charge (<rho> - N_e) =  -1.421085E-14

  Time for density update prior                :  max(cpu_time)    wall_clock(cpu1)
  | self-consistency iterative process          :        0.027 s           0.027 s

------------------------------------------------------------
          Begin self-consistency iteration #    1

  Date     :  20220517, Time     :  111425.883
------------------------------------------------------------
  Pulay mixing of updated and previous charge densities.
  Renormalizing the density to the exact electron count on the 3D integration grid.
  | Formal number of electrons (from input files) :     120.0000000000
  | Integrated number of electrons on 3D grid     :     120.0000000000
  | Charge integration error                      :       0.0000000000
  | Normalization factor for density and gradient :       1.0000000000

  Evaluating partitioned Hartree potential by multipole expansion.
  | Original multipole sum: apparent total charge =   0.166527E-13
  | Sum of charges compensated after spline to logarithmic grids =   0.988922E-04
  | Analytical far-field extrapolation by fixed multipoles:
  | Hartree multipole sum: apparent total charge =   0.164313E-13
  Summing up the Hartree potential.
  Time summed over all CPUs for potential: real work        0.382 s, elapsed        0.389 s
  | RMS charge density error from multipole expansion :   0.109011E-01

  Integrating Hamiltonian matrix: batch-based integration.
  Time summed over all CPUs for integration: real work        0.637 s, elapsed        0.676 s

  Updating Kohn-Sham eigenvalues and eigenvectors using ELSI and the ELPA eigensolver.
  Starting ELPA eigensolver
  Finished transformation to standard eigenproblem
  | Time :     0.000 s
  Finished solving standard eigenproblem
  | Time :     0.003 s
  Finished back-transformation of eigenvectors
  | Time :     0.001 s

  Obtaining occupation numbers and chemical potential using ELSI.
  | Chemical potential (Fermi level):    -7.76780917 eV
  Writing Kohn-Sham eigenvalues.

  State    Occupation    Eigenvalue [Ha]    Eigenvalue [eV]
      1       2.00000         -55.654348        -1514.43186
      2       2.00000         -55.648782        -1514.28041
      3       2.00000         -55.631371        -1513.80664
      4       2.00000         -24.245696         -659.75897
      5       2.00000         -24.245694         -659.75891
      6       2.00000         -24.207964         -658.73220
      7       2.00000         -24.207957         -658.73202
      8       2.00000         -24.099307         -655.77551
      9       2.00000         -24.097258         -655.71974
     10       2.00000         -24.068327         -654.93250
     11       2.00000         -24.048864         -654.40289
     12       2.00000         -24.047253         -654.35905
     13       2.00000          -4.095274         -111.43807
     14       2.00000          -4.089821         -111.28968
     15       2.00000          -4.070214         -110.75616
     16       2.00000          -2.689611          -73.18804
     17       2.00000          -2.687191          -73.12220
     18       2.00000          -2.686996          -73.11689
     19       2.00000          -2.683388          -73.01871
     20       2.00000          -2.682874          -73.00471
     21       2.00000          -2.681043          -72.95488
     22       2.00000          -2.663763          -72.48468
     23       2.00000          -2.663398          -72.47475
     24       2.00000          -2.661435          -72.42132
     25       2.00000          -1.178685          -32.07365
     26       2.00000          -1.161080          -31.59459
     27       2.00000          -1.135168          -30.88951
     28       2.00000          -1.120939          -30.50230
     29       2.00000          -1.051542          -28.61392
     30       2.00000          -1.045484          -28.44906
     31       2.00000          -1.015297          -27.62764
     32       2.00000          -0.993582          -27.03675
     33       2.00000          -0.989919          -26.93708
     34       2.00000          -0.551783          -15.01477
     35       2.00000          -0.544450          -14.81525
     36       2.00000          -0.519758          -14.14333
     37       2.00000          -0.508088          -13.82578
     38       2.00000          -0.487105          -13.25480
     39       2.00000          -0.472870          -12.86745
     40       2.00000          -0.467126          -12.71114
     41       2.00000          -0.459191          -12.49522
     42       2.00000          -0.451241          -12.27890
     43       2.00000          -0.438185          -11.92362
     44       2.00000          -0.425170          -11.56947
     45       2.00000          -0.421356          -11.46569
     46       2.00000          -0.416753          -11.34044
     47       2.00000          -0.393066          -10.69587
     48       2.00000          -0.376880          -10.25544
     49       2.00000          -0.370254          -10.07513
     50       2.00000          -0.361790           -9.84481
     51       2.00000          -0.359997           -9.79603
     52       2.00000          -0.349776           -9.51790
     53       2.00000          -0.346072           -9.41709
     54       2.00000          -0.342830           -9.32887
     55       2.00000          -0.324904           -8.84110
     56       2.00000          -0.323339           -8.79850
     57       2.00000          -0.310553           -8.45057
     58       2.00000          -0.308097           -8.38375
     59       2.00000          -0.300329           -8.17237
     60       2.00000          -0.297059           -8.08338
     61       0.00000          -0.148394           -4.03800
     62       0.00000          -0.105510           -2.87108
     63       0.00000          -0.066505           -1.80969
     64       0.00000          -0.041186           -1.12073
     65       0.00000          -0.039823           -1.08364
     66       0.00000          -0.016574           -0.45100
     67       0.00000          -0.007410           -0.20163
     68       0.00000           0.025369            0.69033
     69       0.00000           0.038816            1.05625
     70       0.00000           0.063033            1.71522
     71       0.00000           0.065364            1.77864
     72       0.00000           0.097550            2.65447
     73       0.00000           0.133390            3.62973
     74       0.00000           0.153032            4.16422
     75       0.00000           0.167486            4.55753
     76       0.00000           0.175191            4.76719
     77       0.00000           0.175521            4.77618
     78       0.00000           0.183301            4.98788
     79       0.00000           0.188118            5.11894
     80       0.00000           0.204149            5.55519
     81       0.00000           0.204661            5.56911
     82       0.00000           0.214765            5.84404
     83       0.00000           0.217874            5.92865
     84       0.00000           0.227594            6.19316
     85       0.00000           0.237507            6.46291
     86       0.00000           0.241912            6.58277
     87       0.00000           0.255989            6.96583
     88       0.00000           0.256356            6.97581
     89       0.00000           0.265917            7.23596
     90       0.00000           0.282303            7.68186
     91       0.00000           0.299614            8.15291
     92       0.00000           0.303965            8.27131
     93       0.00000           0.328672            8.94362
     94       0.00000           0.358137            9.74541
     95       0.00000           0.370141           10.07205
     96       0.00000           0.371086           10.09777

  Highest occupied state (VBM) at     -8.08338426 eV
  | Occupation number:      2.00000000

  Lowest unoccupied state (CBM) at    -4.03799928 eV
  | Occupation number:      0.00000000

  Overall HOMO-LUMO gap:      4.04538498 eV.

  Total energy components:
  | Sum of eigenvalues            :        -882.35509909 Ha      -24010.10386676 eV
  | XC energy correction          :        -145.68461801 Ha       -3964.28015639 eV
  | XC potential correction       :         189.70665316 Ha        5162.18068122 eV
  | Free-atom electrostatic energy:        -781.19870715 Ha      -21257.49839121 eV
  | Hartree energy correction     :          -5.61447473 Ha        -152.77763064 eV
  | Entropy correction            :           0.00000000 Ha           0.00000000 eV
  | ---------------------------
  | Total energy                  :       -1625.14624582 Ha      -44222.47936378 eV
  | Total energy, T -> 0          :       -1625.14624582 Ha      -44222.47936378 eV  <-- do not rely on this value for anything but (periodic) metals
  | Electronic free energy        :       -1625.14624582 Ha      -44222.47936378 eV

  Derived energy quantities:
  | Kinetic energy                :        1634.08612197 Ha       44465.74577108 eV
  | Electrostatic energy          :       -3113.54774978 Ha      -84723.94497847 eV
  | Energy correction for multipole
  | error in Hartree potential    :           0.04288641 Ha           1.16699856 eV
  | Sum of eigenvalues per atom                           :       -2000.84198890 eV
  | Total energy (T->0) per atom                          :       -3685.20661365 eV  <-- do not rely on this value for anything but (periodic) metals
  | Electronic free energy per atom                       :       -3685.20661365 eV
  Evaluating new KS density.
  Integration grid: deviation in total charge (<rho> - N_e) =   4.263256E-14

  Self-consistency convergence accuracy:
  | Change of charge density      :  0.5991E+00
  | Change of sum of eigenvalues  :  0.1471E+03 eV
  | Change of total energy        :  0.5738E+01 eV


------------------------------------------------------------
  End self-consistency iteration #     1       :  max(cpu_time)    wall_clock(cpu1)
  | Time for this iteration                     :        0.078 s           0.079 s
  | Charge density update                       :        0.026 s           0.026 s
  | Density mixing                              :        0.000 s           0.001 s
  | Hartree multipole update                    :        0.001 s           0.001 s
  | Hartree multipole summation                 :        0.017 s           0.017 s
  | Integration                                 :        0.029 s           0.029 s
  | Solution of K.-S. eqns.                     :        0.004 s           0.004 s
  | Total energy evaluation                     :        0.000 s           0.001 s

  Partial memory accounting:
  | Current value for overall tracked memory usage:
  |   Minimum:        0.273 MB (on task 23)
  |   Maximum:        0.292 MB (on task  0)
  |   Average:        0.287 MB
  | Peak value for overall tracked memory usage:
  |   Minimum:        1.277 MB (on task 18 after allocating wave)
  |   Maximum:        1.367 MB (on task 14 after allocating wave)
  |   Average:        1.330 MB
  | Largest tracked array allocation so far:
  |   Minimum:        0.679 MB (gradient_basis_wave on task 18)
  |   Maximum:        0.737 MB (gradient_basis_wave on task 14)
  |   Average:        0.716 MB
  Note:  These values currently only include a subset of arrays which are explicitly tracked.
  The "true" memory usage will be greater.
------------------------------------------------------------

------------------------------------------------------------
          Begin self-consistency iteration #    2

  Date     :  20220517, Time     :  111425.967
------------------------------------------------------------
  Pulay mixing of updated and previous charge densities.
  Renormalizing the density to the exact electron count on the 3D integration grid.
  | Formal number of electrons (from input files) :     120.0000000000
  | Integrated number of electrons on 3D grid     :     120.0000000000
  | Charge integration error                      :       0.0000000000
  | Normalization factor for density and gradient :       1.0000000000

  Evaluating partitioned Hartree potential by multipole expansion.
  | Original multipole sum: apparent total charge =   0.732767E-13
  | Sum of charges compensated after spline to logarithmic grids =   0.606175E-04
  | Analytical far-field extrapolation by fixed multipoles:
  | Hartree multipole sum: apparent total charge =   0.727847E-13
  Summing up the Hartree potential.
  Time summed over all CPUs for potential: real work        0.379 s, elapsed        0.386 s
  | RMS charge density error from multipole expansion :   0.128129E-01

  Integrating Hamiltonian matrix: batch-based integration.
  Time summed over all CPUs for integration: real work        0.637 s, elapsed        0.679 s

  Updating Kohn-Sham eigenvalues and eigenvectors using ELSI and the ELPA eigensolver.
  Starting ELPA eigensolver
  Finished transformation to standard eigenproblem
  | Time :     0.000 s
  Finished solving standard eigenproblem
  | Time :     0.003 s
  Finished back-transformation of eigenvectors
  | Time :     0.000 s

  Obtaining occupation numbers and chemical potential using ELSI.
  | Chemical potential (Fermi level):    -7.88337814 eV
  Highest occupied state (VBM) at     -9.31296141 eV
  | Occupation number:      2.00000000

  Lowest unoccupied state (CBM) at    -4.25085509 eV
  | Occupation number:      0.00000000

  Overall HOMO-LUMO gap:      5.06210632 eV.

  Checking to see if s.c.f. parameters should be adjusted.

  Total energy components:
  | Sum of eigenvalues            :        -885.47482364 Ha      -24094.99589115 eV
  | XC energy correction          :        -145.19313586 Ha       -3950.90624676 eV
  | XC potential correction       :         189.06000018 Ha        5144.58435847 eV
  | Free-atom electrostatic energy:        -781.19870715 Ha      -21257.49839121 eV
  | Hartree energy correction     :          -2.27589650 Ha         -61.93029477 eV
  | Entropy correction            :           0.00000000 Ha           0.00000000 eV
  | ---------------------------
  | Total energy                  :       -1625.08256298 Ha      -44220.74646542 eV
  | Total energy, T -> 0          :       -1625.08256298 Ha      -44220.74646542 eV  <-- do not rely on this value for anything but (periodic) metals
  | Electronic free energy        :       -1625.08256298 Ha      -44220.74646542 eV

  Derived energy quantities:
  | Kinetic energy                :        1630.21761638 Ha       44360.47837786 eV
  | Electrostatic energy          :       -3110.10704349 Ha      -84630.31859652 eV
  | Energy correction for multipole
  | error in Hartree potential    :           0.04713385 Ha           1.28257718 eV
  | Sum of eigenvalues per atom                           :       -2007.91632426 eV
  | Total energy (T->0) per atom                          :       -3685.06220545 eV  <-- do not rely on this value for anything but (periodic) metals
  | Electronic free energy per atom                       :       -3685.06220545 eV
  Evaluating new KS density.
  Integration grid: deviation in total charge (<rho> - N_e) =   2.842171E-14

  Self-consistency convergence accuracy:
  | Change of charge density      :  0.4736E+00
  | Change of sum of eigenvalues  : -0.8489E+02 eV
  | Change of total energy        :  0.1733E+01 eV


------------------------------------------------------------
  End self-consistency iteration #     2       :  max(cpu_time)    wall_clock(cpu1)
  | Time for this iteration                     :        0.081 s           0.079 s
  | Charge density update                       :        0.026 s           0.026 s
  | Density mixing                              :        0.005 s           0.002 s
  | Hartree multipole update                    :        0.001 s           0.001 s
  | Hartree multipole summation                 :        0.016 s           0.017 s
  | Integration                                 :        0.029 s           0.028 s
  | Solution of K.-S. eqns.                     :        0.004 s           0.004 s
  | Total energy evaluation                     :        0.000 s           0.000 s

  Partial memory accounting:
  | Current value for overall tracked memory usage:
  |   Minimum:        0.274 MB (on task 23)
  |   Maximum:        0.293 MB (on task  0)
  |   Average:        0.288 MB
  | Peak value for overall tracked memory usage:
  |   Minimum:        1.277 MB (on task 18 after allocating wave)
  |   Maximum:        1.367 MB (on task 14 after allocating wave)
  |   Average:        1.330 MB
  | Largest tracked array allocation so far:
  |   Minimum:        0.679 MB (gradient_basis_wave on task 18)
  |   Maximum:        0.737 MB (gradient_basis_wave on task 14)
  |   Average:        0.716 MB
  Note:  These values currently only include a subset of arrays which are explicitly tracked.
  The "true" memory usage will be greater.
------------------------------------------------------------

------------------------------------------------------------
          Begin self-consistency iteration #    3

  Date     :  20220517, Time     :  111426.052
------------------------------------------------------------
  Pulay mixing of updated and previous charge densities.
  Renormalizing the density to the exact electron count on the 3D integration grid.
  | Formal number of electrons (from input files) :     120.0000000000
  | Integrated number of electrons on 3D grid     :     120.0000000000
  | Charge integration error                      :       0.0000000000
  | Normalization factor for density and gradient :       1.0000000000

  Evaluating partitioned Hartree potential by multipole expansion.
  | Original multipole sum: apparent total charge =   0.168740E-13
  | Sum of charges compensated after spline to logarithmic grids =   0.778111E-04
  | Analytical far-field extrapolation by fixed multipoles:
  | Hartree multipole sum: apparent total charge =   0.187189E-13
  Summing up the Hartree potential.
  Time summed over all CPUs for potential: real work        0.379 s, elapsed        0.386 s
  | RMS charge density error from multipole expansion :   0.176184E-01

  Integrating Hamiltonian matrix: batch-based integration.
  Time summed over all CPUs for integration: real work        0.637 s, elapsed        0.679 s

  Updating Kohn-Sham eigenvalues and eigenvectors using ELSI and the ELPA eigensolver.
  Starting ELPA eigensolver
  Finished transformation to standard eigenproblem
  | Time :     0.000 s
  Finished solving standard eigenproblem
  | Time :     0.003 s
  Finished back-transformation of eigenvectors
  | Time :     0.000 s

  Obtaining occupation numbers and chemical potential using ELSI.
  | Chemical potential (Fermi level):    -7.98214075 eV
  Highest occupied state (VBM) at     -8.81722793 eV
  | Occupation number:      2.00000000

  Lowest unoccupied state (CBM) at    -4.47644078 eV
  | Occupation number:      0.00000000

  Overall HOMO-LUMO gap:      4.34078715 eV.

  Total energy components:
  | Sum of eigenvalues            :        -886.43502758 Ha      -24121.12436965 eV
  | XC energy correction          :        -145.16068112 Ha       -3950.02310818 eV
  | XC potential correction       :         189.01606022 Ha        5143.38869143 eV
  | Free-atom electrostatic energy:        -781.19870715 Ha      -21257.49839121 eV
  | Hartree energy correction     :          -1.30347238 Ha         -35.46928801 eV
  | Entropy correction            :           0.00000000 Ha           0.00000000 eV
  | ---------------------------
  | Total energy                  :       -1625.08182800 Ha      -44220.72646563 eV
  | Total energy, T -> 0          :       -1625.08182800 Ha      -44220.72646563 eV  <-- do not rely on this value for anything but (periodic) metals
  | Electronic free energy        :       -1625.08182800 Ha      -44220.72646563 eV

  Derived energy quantities:
  | Kinetic energy                :        1628.53054528 Ha       44314.57083755 eV
  | Electrostatic energy          :       -3108.45169216 Ha      -84585.27419500 eV
  | Energy correction for multipole
  | error in Hartree potential    :           0.06310074 Ha           1.71705856 eV
  | Sum of eigenvalues per atom                           :       -2010.09369747 eV
  | Total energy (T->0) per atom                          :       -3685.06053880 eV  <-- do not rely on this value for anything but (periodic) metals
  | Electronic free energy per atom                       :       -3685.06053880 eV
  Evaluating new KS density.
  Integration grid: deviation in total charge (<rho> - N_e) =   0.000000E+00

  Self-consistency convergence accuracy:
  | Change of charge density      :  0.1231E+00
  | Change of sum of eigenvalues  : -0.2613E+02 eV
  | Change of total energy        :  0.2000E-01 eV


------------------------------------------------------------
  End self-consistency iteration #     3       :  max(cpu_time)    wall_clock(cpu1)
  | Time for this iteration                     :        0.081 s           0.078 s
  | Charge density update                       :        0.026 s           0.026 s
  | Density mixing                              :        0.004 s           0.001 s
  | Hartree multipole update                    :        0.001 s           0.001 s
  | Hartree multipole summation                 :        0.016 s           0.017 s
  | Integration                                 :        0.029 s           0.029 s
  | Solution of K.-S. eqns.                     :        0.004 s           0.004 s
  | Total energy evaluation                     :        0.000 s           0.000 s

  Partial memory accounting:
  | Current value for overall tracked memory usage:
  |   Minimum:        0.274 MB (on task 23)
  |   Maximum:        0.293 MB (on task  0)
  |   Average:        0.288 MB
  | Peak value for overall tracked memory usage:
  |   Minimum:        1.277 MB (on task 18 after allocating wave)
  |   Maximum:        1.367 MB (on task 14 after allocating wave)
  |   Average:        1.330 MB
  | Largest tracked array allocation so far:
  |   Minimum:        0.679 MB (gradient_basis_wave on task 18)
  |   Maximum:        0.737 MB (gradient_basis_wave on task 14)
  |   Average:        0.716 MB
  Note:  These values currently only include a subset of arrays which are explicitly tracked.
  The "true" memory usage will be greater.
------------------------------------------------------------

------------------------------------------------------------
          Begin self-consistency iteration #    4

  Date     :  20220517, Time     :  111426.137
------------------------------------------------------------
  Pulay mixing of updated and previous charge densities.
  Renormalizing the density to the exact electron count on the 3D integration grid.
  | Formal number of electrons (from input files) :     120.0000000000
  | Integrated number of electrons on 3D grid     :     120.0000000000
  | Charge integration error                      :       0.0000000000
  | Normalization factor for density and gradient :       1.0000000000

  Evaluating partitioned Hartree potential by multipole expansion.
  | Original multipole sum: apparent total charge =   0.663155E-13
  | Sum of charges compensated after spline to logarithmic grids =   0.840397E-04
  | Analytical far-field extrapolation by fixed multipoles:
  | Hartree multipole sum: apparent total charge =   0.674716E-13
  Summing up the Hartree potential.
  Time summed over all CPUs for potential: real work        0.379 s, elapsed        0.386 s
  | RMS charge density error from multipole expansion :   0.196661E-01

  Integrating Hamiltonian matrix: batch-based integration.
  Time summed over all CPUs for integration: real work        0.637 s, elapsed        0.679 s

  Updating Kohn-Sham eigenvalues and eigenvectors using ELSI and the ELPA eigensolver.
  Starting ELPA eigensolver
  Finished transformation to standard eigenproblem
  | Time :     0.001 s
  Finished solving standard eigenproblem
  | Time :     0.003 s
  Finished back-transformation of eigenvectors
  | Time :     0.000 s

  Obtaining occupation numbers and chemical potential using ELSI.
  | Chemical potential (Fermi level):    -7.99002152 eV
  Highest occupied state (VBM) at     -8.97067125 eV
  | Occupation number:      2.00000000

  Lowest unoccupied state (CBM) at    -4.43930291 eV
  | Occupation number:      0.00000000

  Overall HOMO-LUMO gap:      4.53136835 eV.

  Total energy components:
  | Sum of eigenvalues            :        -886.57510715 Ha      -24124.93612883 eV
  | XC energy correction          :        -145.14499467 Ha       -3949.59625815 eV
  | XC potential correction       :         188.99476455 Ha        5142.80920659 eV
  | Free-atom electrostatic energy:        -781.19870715 Ha      -21257.49839121 eV
  | Hartree energy correction     :          -1.15573239 Ha         -31.44907848 eV
  | Entropy correction            :           0.00000000 Ha           0.00000000 eV
  | ---------------------------
  | Total energy                  :       -1625.07977681 Ha      -44220.67065008 eV
  | Total energy, T -> 0          :       -1625.07977681 Ha      -44220.67065008 eV  <-- do not rely on this value for anything but (periodic) metals
  | Electronic free energy        :       -1625.07977681 Ha      -44220.67065008 eV

  Derived energy quantities:
  | Kinetic energy                :        1627.87522479 Ha       44296.73865986 eV
  | Electrostatic energy          :       -3107.81000694 Ha      -84567.81305179 eV
  | Energy correction for multipole
  | error in Hartree potential    :           0.06945963 Ha           1.89009269 eV
  | Sum of eigenvalues per atom                           :       -2010.41134407 eV
  | Total energy (T->0) per atom                          :       -3685.05588751 eV  <-- do not rely on this value for anything but (periodic) metals
  | Electronic free energy per atom                       :       -3685.05588751 eV
  Evaluating new KS density.
  Integration grid: deviation in total charge (<rho> - N_e) =   1.421085E-14

  Self-consistency convergence accuracy:
  | Change of charge density      :  0.8197E-01
  | Change of sum of eigenvalues  : -0.3812E+01 eV
  | Change of total energy        :  0.5582E-01 eV


------------------------------------------------------------
  End self-consistency iteration #     4       :  max(cpu_time)    wall_clock(cpu1)
  | Time for this iteration                     :        0.081 s           0.077 s
  | Charge density update                       :        0.026 s           0.025 s
  | Density mixing                              :        0.004 s           0.001 s
  | Hartree multipole update                    :        0.001 s           0.001 s
  | Hartree multipole summation                 :        0.016 s           0.016 s
  | Integration                                 :        0.029 s           0.029 s
  | Solution of K.-S. eqns.                     :        0.004 s           0.004 s
  | Total energy evaluation                     :        0.000 s           0.001 s

  Partial memory accounting:
  | Current value for overall tracked memory usage:
  |   Minimum:        0.274 MB (on task 23)
  |   Maximum:        0.293 MB (on task  0)
  |   Average:        0.288 MB
  | Peak value for overall tracked memory usage:
  |   Minimum:        1.277 MB (on task 18 after allocating wave)
  |   Maximum:        1.367 MB (on task 14 after allocating wave)
  |   Average:        1.330 MB
  | Largest tracked array allocation so far:
  |   Minimum:        0.679 MB (gradient_basis_wave on task 18)
  |   Maximum:        0.737 MB (gradient_basis_wave on task 14)
  |   Average:        0.716 MB
  Note:  These values currently only include a subset of arrays which are explicitly tracked.
  The "true" memory usage will be greater.
------------------------------------------------------------

------------------------------------------------------------
          Begin self-consistency iteration #    5

  Date     :  20220517, Time     :  111426.221
------------------------------------------------------------
  Pulay mixing of updated and previous charge densities.
  Renormalizing the density to the exact electron count on the 3D integration grid.
  | Formal number of electrons (from input files) :     120.0000000000
  | Integrated number of electrons on 3D grid     :     120.0000000000
  | Charge integration error                      :       0.0000000000
  | Normalization factor for density and gradient :       1.0000000000

  Evaluating partitioned Hartree potential by multipole expansion.
  | Original multipole sum: apparent total charge =   0.218428E-13
  | Sum of charges compensated after spline to logarithmic grids =   0.845654E-04
  | Analytical far-field extrapolation by fixed multipoles:
  | Hartree multipole sum: apparent total charge =   0.209573E-13
  Summing up the Hartree potential.
  Time summed over all CPUs for potential: real work        0.380 s, elapsed        0.390 s
  | RMS charge density error from multipole expansion :   0.194705E-01

  Integrating Hamiltonian matrix: batch-based integration.
  Time summed over all CPUs for integration: real work        0.637 s, elapsed        0.681 s

  Updating Kohn-Sham eigenvalues and eigenvectors using ELSI and the ELPA eigensolver.
  Starting ELPA eigensolver
  Finished transformation to standard eigenproblem
  | Time :     0.001 s
  Finished solving standard eigenproblem
  | Time :     0.003 s
  Finished back-transformation of eigenvectors
  | Time :     0.000 s

  Obtaining occupation numbers and chemical potential using ELSI.
  | Chemical potential (Fermi level):    -7.97398974 eV
  Highest occupied state (VBM) at     -9.02455681 eV
  | Occupation number:      2.00000000

  Lowest unoccupied state (CBM) at    -4.38574563 eV
  | Occupation number:      0.00000000

  Overall HOMO-LUMO gap:      4.63881118 eV.

  Total energy components:
  | Sum of eigenvalues            :        -886.40814295 Ha      -24120.39280167 eV
  | XC energy correction          :        -145.14056737 Ha       -3949.47578533 eV
  | XC potential correction       :         188.98911215 Ha        5142.65539702 eV
  | Free-atom electrostatic energy:        -781.19870715 Ha      -21257.49839121 eV
  | Hartree energy correction     :          -1.32133346 Ha         -35.95531295 eV
  | Entropy correction            :           0.00000000 Ha           0.00000000 eV
[...]
   Total forces(   7)            :  0.158450E+01 -0.158683E+01 -0.417032E+00
  atom #    8
   Hellmann-Feynman              :  0.223774E+01  0.226577E+01 -0.764319E+00
   Ionic forces                  :  0.000000E+00  0.000000E+00  0.000000E+00
   Multipole                     :  0.428198E+00  0.391638E+00 -0.535787E-01
   Hartree pot. SCF incomplete   : -0.337424E-05 -0.151995E-05 -0.303695E-05
   Pulay + GGA                   : -0.499220E+01 -0.497647E+01  0.153533E+01
   ----------------------------------------------------------------
   Total forces(   8)            : -0.232626E+01 -0.231906E+01  0.717433E+00
  atom #    9
   Hellmann-Feynman              :  0.117036E+01 -0.801525E+00  0.102456E+01
   Ionic forces                  :  0.000000E+00  0.000000E+00  0.000000E+00
   Multipole                     :  0.366897E+00 -0.258811E+00 -0.156272E+00
   Hartree pot. SCF incomplete   :  0.131778E-06 -0.314005E-05 -0.137503E-04
   Pulay + GGA                   : -0.272116E+01  0.270413E+01  0.178821E+00
   ----------------------------------------------------------------
   Total forces(   9)            : -0.118391E+01  0.164379E+01  0.104709E+01
  atom #   10
   Hellmann-Feynman              : -0.127175E+01  0.313614E+00  0.139813E+01
   Ionic forces                  :  0.000000E+00  0.000000E+00  0.000000E+00
   Multipole                     : -0.302041E+00  0.477666E+00  0.329108E+00
   Hartree pot. SCF incomplete   : -0.406216E-05  0.554735E-05  0.530498E-05
   Pulay + GGA                   :  0.269535E+01 -0.245362E+01 -0.122146E+01
   ----------------------------------------------------------------
   Total forces(  10)            :  0.112155E+01 -0.166234E+01  0.505780E+00
  atom #   11
   Hellmann-Feynman              :  0.273569E+01  0.129986E+01  0.230507E+01
   Ionic forces                  :  0.000000E+00  0.000000E+00  0.000000E+00
   Multipole                     :  0.674152E+00  0.347462E+00  0.508399E+00
   Hartree pot. SCF incomplete   :  0.103103E-05  0.166789E-05 -0.175712E-05
   Pulay + GGA                   : -0.506433E+01 -0.234976E+01 -0.439684E+01
   ----------------------------------------------------------------
   Total forces(  11)            : -0.165449E+01 -0.702442E+00 -0.158337E+01
  atom #   12
   Hellmann-Feynman              : -0.283822E+01 -0.266784E+01  0.520748E+00
   Ionic forces                  :  0.000000E+00  0.000000E+00  0.000000E+00
   Multipole                     : -0.657868E+00 -0.597233E+00  0.722220E-01
   Hartree pot. SCF incomplete   : -0.146132E-05 -0.362640E-06 -0.195092E-05
   Pulay + GGA                   :  0.503784E+01  0.480790E+01 -0.107754E+01
   ----------------------------------------------------------------
   Total forces(  12)            :  0.154176E+01  0.154283E+01 -0.484571E+00


  Self-consistency convergence accuracy:
  | Change of charge density      :  0.1208E-05
  | Change of sum of eigenvalues  : -0.6144E-04 eV
  | Change of total energy        :  0.5125E-07 eV
  | Change of forces              :  0.1729E-05 eV/A

  Writing Kohn-Sham eigenvalues.

  State    Occupation    Eigenvalue [Ha]    Eigenvalue [eV]
      1       2.00000         -55.639894        -1514.03854
      2       2.00000         -55.633492        -1513.86435
      3       2.00000         -55.605594        -1513.10519
      4       2.00000         -24.321962         -661.83426
      5       2.00000         -24.321960         -661.83420
      6       2.00000         -24.287469         -660.89565
      7       2.00000         -24.287462         -660.89547
      8       2.00000         -24.236214         -659.50095
      9       2.00000         -24.235810         -659.48994
     10       2.00000         -24.207880         -658.72994
     11       2.00000         -24.189362         -658.22603
     12       2.00000         -24.187497         -658.17529
     13       2.00000          -4.094056         -111.40493
     14       2.00000          -4.089460         -111.27986
     15       2.00000          -4.057819         -110.41886
     16       2.00000          -2.687185          -73.12202
     17       2.00000          -2.685208          -73.06824
     18       2.00000          -2.684320          -73.04407
     19       2.00000          -2.683221          -73.01417
     20       2.00000          -2.681782          -72.97499
     21       2.00000          -2.677716          -72.86436
     22       2.00000          -2.651354          -72.14702
     23       2.00000          -2.650018          -72.11066
     24       2.00000          -2.646830          -72.02391
     25       2.00000          -1.204068          -32.76434
     26       2.00000          -1.187616          -32.31668
     27       2.00000          -1.156616          -31.47312
     28       2.00000          -1.143418          -31.11398
     29       2.00000          -1.095267          -29.80374
     30       2.00000          -1.090404          -29.67139
     31       2.00000          -1.054756          -28.70138
     32       2.00000          -1.029964          -28.02673
     33       2.00000          -1.027027          -27.94682
     34       2.00000          -0.574201          -15.62481
     35       2.00000          -0.567417          -15.44019
     36       2.00000          -0.544236          -14.80942
     37       2.00000          -0.525979          -14.31262
     38       2.00000          -0.509266          -13.85784
     39       2.00000          -0.495082          -13.47186
     40       2.00000          -0.492425          -13.39955
     41       2.00000          -0.486271          -13.23211
     42       2.00000          -0.475396          -12.93618
     43       2.00000          -0.461079          -12.54661
     44       2.00000          -0.456181          -12.41330
     45       2.00000          -0.449646          -12.23549
     46       2.00000          -0.438002          -11.91865
     47       2.00000          -0.436477          -11.87715
     48       2.00000          -0.411666          -11.20199
     49       2.00000          -0.402120          -10.94224
     50       2.00000          -0.400787          -10.90596
     51       2.00000          -0.400362          -10.89442
     52       2.00000          -0.392853          -10.69007
     53       2.00000          -0.389114          -10.58834
     54       2.00000          -0.378020          -10.28644
     55       2.00000          -0.361015           -9.82371
     56       2.00000          -0.359504           -9.78260
     57       2.00000          -0.341978           -9.30568
     58       2.00000          -0.339904           -9.24925
     59       2.00000          -0.334276           -9.09611
     60       2.00000          -0.331240           -9.01349
     61       0.00000          -0.161049           -4.38235
     62       0.00000          -0.117366           -3.19369
     63       0.00000          -0.074953           -2.03958
     64       0.00000          -0.048186           -1.31120
     65       0.00000          -0.047872           -1.30268
     66       0.00000          -0.023545           -0.64070
     67       0.00000          -0.006631           -0.18045
     68       0.00000           0.019323            0.52581
     69       0.00000           0.035318            0.96106
     70       0.00000           0.059591            1.62156
     71       0.00000           0.060063            1.63441
     72       0.00000           0.092137            2.50719
     73       0.00000           0.125033            3.40232
     74       0.00000           0.148936            4.05276
     75       0.00000           0.161784            4.40235
     76       0.00000           0.164215            4.46852
     77       0.00000           0.168852            4.59469
     78       0.00000           0.178288            4.85147
     79       0.00000           0.179559            4.88604
     80       0.00000           0.198863            5.41135
     81       0.00000           0.201353            5.47909
     82       0.00000           0.210268            5.72168
     83       0.00000           0.213328            5.80496
     84       0.00000           0.220630            6.00365
     85       0.00000           0.232521            6.32721
     86       0.00000           0.235560            6.40993
     87       0.00000           0.248085            6.75074
     88       0.00000           0.253435            6.89633
     89       0.00000           0.260536            7.08954
     90       0.00000           0.282541            7.68832
     91       0.00000           0.293505            7.98667
     92       0.00000           0.298446            8.12114
     93       0.00000           0.326301            8.87911
     94       0.00000           0.350180            9.52889
     95       0.00000           0.361887            9.84745
     96       0.00000           0.363401            9.88864

  Highest occupied state (VBM) at     -9.01348800 eV
  | Occupation number:      2.00000000

  Lowest unoccupied state (CBM) at    -4.38235438 eV
  | Occupation number:      0.00000000

  Overall HOMO-LUMO gap:      4.63113362 eV.
  | Chemical Potential                          :    -7.96988365 eV

  Self-consistency cycle converged.


------------------------------------------------------------
  End self-consistency iteration #    13       :  max(cpu_time)    wall_clock(cpu1)
  | Time for this iteration                     :        0.260 s           0.258 s
  | Charge density & force component update     :        0.138 s           0.138 s
  | Density mixing                              :        0.006 s           0.003 s
  | Hartree multipole update                    :        0.001 s           0.001 s
  | Hartree multipole summation                 :        0.050 s           0.049 s
  | Hartree pot. SCF incomplete forces          :        0.033 s           0.033 s
  | Integration                                 :        0.029 s           0.029 s
  | Solution of K.-S. eqns.                     :        0.004 s           0.004 s
  | Total energy evaluation                     :        0.000 s           0.000 s

  Partial memory accounting:
  | Current value for overall tracked memory usage:
  |   Minimum:        0.274 MB (on task 23)
  |   Maximum:        0.293 MB (on task  0)
  |   Average:        0.289 MB
  | Peak value for overall tracked memory usage:
  |   Minimum:        2.824 MB (on task 18 after allocating hessian_basis_wave)
  |   Maximum:        3.016 MB (on task 14 after allocating hessian_basis_wave)
  |   Average:        2.942 MB
  | Largest tracked array allocation so far:
  |   Minimum:        1.359 MB (hessian_basis_wave on task 18)
  |   Maximum:        1.474 MB (hessian_basis_wave on task 14)
  |   Average:        1.432 MB
  Note:  These values currently only include a subset of arrays which are explicitly tracked.
  The "true" memory usage will be greater.
------------------------------------------------------------
  Removing unitary transformations (pure translations, rotations) from forces on atoms.
  Atomic forces before filtering:
  | Net force on center of mass :   0.347086E-02  0.290970E-02 -0.135703E-02 eV/A
  | Net torque on center of mass:   0.567262E-02 -0.896690E-02 -0.641194E-03 eV
  Atomic forces after filtering:
  | Net force on center of mass :   0.178406E-15  0.178406E-15  0.535218E-15 eV/A
  | Net torque on center of mass:   0.302107E-14 -0.472042E-14  0.188817E-14 eV

  Energy and forces in a compact form:
  | Total energy uncorrected      :         -0.442206667567940E+05 eV
  | Total energy corrected        :         -0.442206667567940E+05 eV  <-- do not rely on this value for anything but (periodic) metals
  | Electronic free energy        :         -0.442206667567940E+05 eV
  Total atomic forces (unitary forces cleaned) [eV/Ang]:
  |    1          0.599362912386499E-01         -0.597931469801922E+00          0.143183537940693E+01
  |    2          0.161402254102974E+01          0.277230805535719E+01         -0.306060627797153E+01
  |    3         -0.190410658843983E+01         -0.351537258389945E+00         -0.282939787927836E+01
  |    4          0.282766351746843E+01          0.244907958071789E+01         -0.560534873658768E-01
  |    5         -0.995697532091524E+00          0.804784617476147E+00          0.162534895482471E+01
  |    6         -0.683924083609487E+00         -0.199153365769779E+01          0.310318165608866E+01
  |    7          0.158418622898955E+01         -0.158707843321498E+01         -0.416887569704751E+00
  |    8         -0.232648810586312E+01         -0.231944581818480E+01          0.717173607784399E+00
  |    9         -0.118443859545789E+01          0.164337552705919E+01          0.104720900734418E+01
  |   10          0.112150383081295E+01         -0.166242293490617E+01          0.505857705719422E+00
  |   11         -0.165434971185193E+01         -0.702473365680540E+00         -0.158345396507745E+01
  |   12          0.154169220777447E+01          0.154287515726572E+01         -0.484207131770333E+00

  ------------------------------------ 
  Start decomposition of the XC Energy 
  ------------------------------------ 
  X and C from original XC functional choice 
  Hartree-Fock Energy :          0.000000000 Ha              0.000000000 eV
  X Energy            :       -140.201918230 Ha          -3815.088304608 eV
  C Energy            :         -4.942449789 Ha           -134.490901574 eV
  Total XC Energy     :       -145.144368019 Ha          -3949.579206182 eV
  ------------------------------------ 
  LDA X and C from self-consistent density 
  X Energy LDA        :       -132.775399537 Ha          -3613.002448934 eV
  C Energy LDA        :         -8.824303923 Ha           -240.121527000 eV
  ------------------------------------ 
  End decomposition of the XC Energy 
  ------------------------------------ 

------------------------------------------------------------

------------------------------------------------------------------------------
  Final output of selected total energy values:

  The following output summarizes some interesting total energy values
  at the end of a run (AFTER all relaxation, molecular dynamics, etc.).

  | Total energy of the DFT / Hartree-Fock s.c.f. calculation      :         -44220.666756794 eV
  | Final zero-broadening corrected energy (caution - metals only) :         -44220.666756794 eV
  | For reference only, the value of 1 Hartree used in FHI-aims is :             27.211384500 eV

  Before relying on these values, please be sure to understand exactly which
  total energy value is referred to by a given number. Different objects may
  all carry the same name 'total energy'. Definitions:

  Total energy of the DFT / Hartree-Fock s.c.f. calculation:
  | Note that this energy does not include ANY quantities calculated after the
  | s.c.f. cycle, in particular not ANY RPA, MP2, etc. many-body perturbation terms.

  Final zero-broadening corrected energy:
  | For metallic systems only, a broadening of the occupation numbers at the Fermi
  | level can be extrapolated back to zero broadening by an electron-gas inspired
  | formula. For all systems that are not real metals, this value can be
  | meaningless and should be avoided.

------------------------------------------------------------------------------
  Methods described in the following list of references were used in this FHI-aims run.
  If you publish the results, please make sure to cite these reference if they apply.
  FHI-aims is an academic code, and for our developers (often, Ph.D. students
  and postdocs), scientific credit in the community is essential.
  Thank you for helping us!

  For any use of FHI-aims, please cite:

    Volker Blum, Ralf Gehrke, Felix Hanke, Paula Havu, Ville Havu,
    Xinguo Ren, Karsten Reuter, and Matthias Scheffler
    'Ab initio molecular simulations with numeric atom-centered orbitals'
    Computer Physics Communications 180, 2175-2196 (2009)
    http://dx.doi.org/10.1016/j.cpc.2009.06.022


  The ELSI infrastructure was used in your run to solve the Kohn-Sham electronic structure.
  Please check out http://elsi-interchange.org to learn more.
  If scalability is important for your project, please acknowledge ELSI by citing:

    V. W-z. Yu, F. Corsetti, A. Garcia, W. P. Huhn, M. Jacquelin, W. Jia,
    B. Lange, L. Lin, J. Lu, W. Mi, A. Seifitokaldani, A. Vazquez-Mayagoitia,
    C. Yang, H. Yang, and V. Blum
    'ELSI: A unified software interface for Kohn-Sham electronic structure solvers'
    Computer Physics Communications 222, 267-285 (2018).
    http://dx.doi.org/10.1016/j.cpc.2017.09.007


  For the real-space grid partitioning and parallelization used in this calculation, please cite:

    Ville Havu, Volker Blum, Paula Havu, and Matthias Scheffler,
    'Efficient O(N) integration for all-electron electronic structure calculation'
    'using numerically tabulated basis functions'
    Journal of Computational Physics 228, 8367-8379 (2009).
    http://dx.doi.org/10.1016/j.jcp.2009.08.008

  Of course, there are many other important community references, e.g., those cited in the
  above references. Our list is limited to references that describe implementations in the
  FHI-aims code. The reason is purely practical (length of this list) - please credit others as well.

------------------------------------------------------------
          Leaving FHI-aims.
          Date     :  20220517, Time     :  111427.359

          Computational steps:
          | Number of self-consistency cycles          :           13
          | Number of SCF (re)initializations          :            1

          Detailed time accounting                     :  max(cpu_time)    wall_clock(cpu1)
          | Total time                                  :        1.782 s           1.842 s
          | Preparation time                            :        0.184 s           0.184 s
          | Boundary condition initalization            :        0.000 s           0.000 s
          | Grid partitioning                           :        0.034 s           0.034 s
          | Preloading free-atom quantities on grid     :        0.015 s           0.015 s
          | Free-atom superposition energy              :        0.005 s           0.004 s
          | Total time for integrations                 :        0.416 s           0.415 s
          | Total time for solution of K.-S. equations  :        0.064 s           0.063 s
          | Total time for density & force components   :        0.590 s           0.590 s
          | Total time for mixing                       :        0.057 s           0.033 s
          | Total time for Hartree multipole update     :        0.017 s           0.014 s
          | Total time for Hartree multipole sum        :        0.280 s           0.281 s
          | Total time for total energy evaluation      :        0.002 s           0.004 s
          | Total time NSC force correction             :        0.065 s           0.066 s
          | Total time for scaled ZORA corrections      :        0.000 s           0.000 s

          Partial memory accounting:
          | Residual value for overall tracked memory usage across tasks:     0.000000 MB (should be 0.000000 MB)
          | Peak values for overall tracked memory usage:
          |   Minimum:        2.824 MB (on task 18 after allocating hessian_basis_wave)
          |   Maximum:        3.016 MB (on task 14 after allocating hessian_basis_wave)
          |   Average:        2.942 MB
          | Largest tracked array allocation:
          |   Minimum:        1.359 MB (hessian_basis_wave on task 18)
          |   Maximum:        1.474 MB (hessian_basis_wave on task 14)
          |   Average:        1.432 MB
          Note:  These values currently only include a subset of arrays which are explicitly tracked.
          The "true" memory usage will be greater.

          Have a nice day.
------------------------------------------------------------
