12
Properties=species:S:1:pos:R:3:forces:R:3 energy=-181.79053354 pbc="F F F"
Al    0.16833359299999998    -0.434303658    1.8993659390000002    -0.277798    2.37195    1.697772
Al    2.286018365    -1.726439272    -0.366399997    2.55737    -0.940434    -0.703151
Al    -1.333352381    -2.0468990579999997    -1.432734343    -2.226041    -1.001849    -1.400005
F    3.751891407    -0.576638593    -1.30350298    1.768411    3.201793    -1.150103
F    -1.900985154    -0.033680388000000006    -1.901881397    -1.44678    3.160492    -1.618495
F    2.977386295    -3.647092694    -0.659907743    0.089669    -3.662009    0.29802
F    -1.1108350660000001    -4.079222402    -0.8354816200000001    -0.078837    -3.664179    0.27347
F    2.037496897    -1.421709393    1.654771802    1.294509    -0.753886    1.697437
F    0.811654664    -1.423625182    -1.6947873649999998    0.287517    1.120847    -2.072391
F    0.208672452    -1.283488263    3.7310106889999997    -0.450441    -1.873015    3.257073
F    0.502938071    1.356734099    1.118128436    0.187972    2.832709    -1.540007
F    -1.025778168    -1.5529713829999998    0.642665214    -1.70555    -0.792416    1.26038
