------------------------------------------------------------
          Invoking FHI-aims ...

          When using FHI-aims, please cite the following reference:

            Volker Blum, Ralf Gehrke, Felix Hanke, Paula Havu,
            Ville Havu, Xinguo Ren, Karsten Reuter, and Matthias Scheffler,
            'Ab Initio Molecular Simulations with Numeric Atom-Centered Orbitals',
            Computer Physics Communications 180, 2175-2196 (2009)

          In addition, many other developments in FHI-aims are likely important for
          your particular application. A partial list of references is given at the end of
          this file. Thank you for giving credit to the authors of these developments.

          For any questions about FHI-aims, please visit our slack channel at

            https://fhi-aims.slack.com

          and our main development and support site at

            https://aims-git.rz-berlin.mpg.de .

          The latter site, in particular, has a wiki to collect information, as well
          as an issue tracker to log discussions, suggest improvements, and report issues
          or bugs. https://aims-git.rz-berlin.mpg.de is also the main development site
          of the project and all new and updated code versions can be obtained there.
          Please send an email to aims-coordinators@fhi-berlin.mpg.de and we will add
          you to these sites. They are for you and everyone is welcome there.

------------------------------------------------------------



  Date     :  20220517, Time     :  112803.930
  Time zero on CPU 1             :   0.462990000000000E-01  s.
  Internal wall clock time zero  :           422018883.930  s.

  FHI-aims created a unique identifier for this run for later identification
  aims_uuid : B581B562-BDFB-48B5-A79E-EE02DDB2B535

  Build configuration of the current instance of FHI-aims
  -------------------------------------------------------
  FHI-aims version      : 210914
  Commit number         : GITDIR-NOTFOUND
  CMake host system     : Linux-3.10.0-693.17.1.el7.x86_64
  CMake version         : 3.21.1
  Fortran compiler      : /shared/ucl/apps/intel/2018.Update3/impi/2018.3.222/intel64/bin/mpiifort (Intel) version 18.0.3.20180410
  Fortran compiler flags: -O3 -ip -fp-model precise
  C compiler            : /shared/ucl/apps/intel/2018.Update3/compilers_and_libraries_2018.3.222/linux/bin/intel64/icc (Intel) version 18.0.3.20180410
  C compiler flags      : -O3 -ip -fp-model precise -std=gnu99
  ELPA2 kernel          : AVX2
  Using MPI
  Using ScaLAPACK
  Using LibXC
  Using i-PI
  Using RLSY
  Linking against: /shared/ucl/apps/intel/2019.Update5/compilers_and_libraries_2019.5.281/linux/mkl/lib/intel64/libmkl_intel_lp64.so
                   /shared/ucl/apps/intel/2019.Update5/compilers_and_libraries_2019.5.281/linux/mkl/lib/intel64/libmkl_sequential.so
                   /shared/ucl/apps/intel/2019.Update5/compilers_and_libraries_2019.5.281/linux/mkl/lib/intel64/libmkl_core.so
                   /shared/ucl/apps/intel/2019.Update5/compilers_and_libraries_2019.5.281/linux/mkl/lib/intel64/libmkl_blacs_intelmpi_lp64.so
                   /shared/ucl/apps/intel/2019.Update5/compilers_and_libraries_2019.5.281/linux/mkl/lib/intel64/libmkl_scalapack_lp64.so

  Using       24 parallel tasks.
  Task        0 on host node-k98a-025 reporting.
  Task        1 on host node-k98a-025 reporting.
  Task        2 on host node-k98a-025 reporting.
  Task        3 on host node-k98a-025 reporting.
  Task        4 on host node-k98a-025 reporting.
  Task        5 on host node-k98a-025 reporting.
  Task        6 on host node-k98a-025 reporting.
  Task        7 on host node-k98a-025 reporting.
  Task        8 on host node-k98a-025 reporting.
  Task        9 on host node-k98a-025 reporting.
  Task       10 on host node-k98a-025 reporting.
  Task       11 on host node-k98a-025 reporting.
  Task       12 on host node-k98a-025 reporting.
  Task       13 on host node-k98a-025 reporting.
  Task       14 on host node-k98a-025 reporting.
  Task       15 on host node-k98a-025 reporting.
  Task       16 on host node-k98a-025 reporting.
  Task       17 on host node-k98a-025 reporting.
  Task       18 on host node-k98a-025 reporting.
  Task       19 on host node-k98a-025 reporting.
  Task       20 on host node-k98a-025 reporting.
  Task       21 on host node-k98a-025 reporting.
  Task       22 on host node-k98a-025 reporting.
  Task       23 on host node-k98a-025 reporting.

  Performing system and environment tests:
  | Environment variable OMP_NUM_THREADS correctly set to 1.
  | Checking for ScaLAPACK...
  | Testing pdtran()...
  | All pdtran() tests passed.

  Obtaining array dimensions for all initial allocations:
  
  -----------------------------------------------------------------------
  Parsing control.in (first pass over file, find array dimensions only).
  The contents of control.in will be repeated verbatim below
  unless switched off by setting 'verbatim_writeout .false.' .
  in the first line of control.in .
  -----------------------------------------------------------------------
  
  #########################################################################################  Physical model
  #########################################################################################
  xc                 pbesol
  spin               none
  relativistic       atomic_zora scalar
  charge             0.0
  #  SCF convergence
  occupation_type    gaussian 0.01
  mixer              pulay
  n_max_pulay        10
  charge_mix_param   0.5
  sc_accuracy_rho    1E-5
  sc_accuracy_eev    1E-3
  sc_accuracy_etot   1E-6
  sc_accuracy_forces 1E-4
  sc_iter_limit      1500
  #  Relaxation
  #relax_geometry   bfgs 1.e-3
  
  ################################################################################
  #
  #  FHI-aims code project
  #  VB, Fritz-Haber Institut, 2009
  #
  #  Suggested "light" defaults for Al atom (to be pasted into control.in file)
  #  Be sure to double-check any results obtained with these settings for post-processing,
  #  e.g., with the "tight" defaults and larger basis sets.
  #
  ################################################################################
    species        Al
  #     global species definitions
      nucleus             13
      mass                26.9815386
  #
      l_hartree           4
  #
      cut_pot             3.5          1.5  1.0
      basis_dep_cutoff    1e-4
  #
      radial_base         41 5.0
      radial_multiplier   1
      angular_grids       specified
        division   0.6594  110
        division   0.8170  194
        division   0.9059  302
  #      division   1.0363  434
  #      division   1.1443  590
  #      division   1.2621  770
  #      division   2.8177  974
  #      outer_grid   974
        outer_grid   302
  ################################################################################
  #
  #  Definition of "minimal" basis
  #
  ################################################################################
  #     valence basis states
      valence      3  s   2.
      valence      3  p   1.
  #     ion occupancy
      ion_occ      3  s   1.
      ion_occ      2  p   6.
  ################################################################################
  #
  #  Suggested additional basis functions. For production calculations,
  #  uncomment them one after another (the most important basis functions are
  #  listed first).
  #
  #  Constructed for dimers: 2.0 A, 2.5 A, 3.0 A, 3.75 A, 4.5 A
  #
  ################################################################################
  #  "First tier" - improvements: -199.47 meV to -10.63 meV
       ionic 3 d auto
       ionic 3 p auto
  #     hydro 4 f 4.7
       ionic 3 s auto
  #  "Second tier" - improvements: -5.35 meV to -1.57 meV
  #     hydro 5 g 7
  #     hydro 3 d 6
  #     hydro 2 s 11.6
  #     hydro 2 p 0.9
  #  "Third tier" - improvements: -0.63 meV to -0.20 meV
  #     hydro 5 f 7.6
  #     hydro 4 p 7.2
  #     hydro 4 s 3.7
  #     hydro 4 d 7.6
  #  "Fourth tier" - improvements: -0.17 meV to -0.08 meV
  #     hydro 4 d 13.6
  #     hydro 5 g 11.2
  #     hydro 4 d 0.9
  #     hydro 1 s 0.4
  #     hydro 4 p 0.1
  #     hydro 5 f 9.8
  #  Further basis functions that fell out of the optimization - noise level...
  #     hydro 4 p 5
  
  ################################################################################
  #
  #  FHI-aims code project
  #  VB, Fritz-Haber Institut, 2009
  #
  #  Suggested "light" defaults for F atom (to be pasted into control.in file)
  #  Be sure to double-check any results obtained with these settings for post-processing,
  #  e.g., with the "tight" defaults and larger basis sets.
  #
  ################################################################################
    species        F
  #     global species definitions
      nucleus             9
      mass                18.9984032
  #
      l_hartree           4
  #
      cut_pot             3.5  1.5  1.0
      basis_dep_cutoff    1e-4
  #
      radial_base         37 5.0
      radial_multiplier   1
      angular_grids specified
        division   0.4014  110
        division   0.5291  194
        division   0.6019  302
  #      division   0.6814  434
  #      division   0.7989  590
  #      division   0.8965  770
  #      division   1.3427  974
  #      outer_grid   974
        outer_grid   302
  ################################################################################
  #
  #  Definition of "minimal" basis
  #
  ################################################################################
  #     valence basis states
      valence      2  s   2.
      valence      2  p   5.
  #     ion occupancy
      ion_occ      2  s   1.
      ion_occ      2  p   4.
  ################################################################################
  #
  #  Suggested additional basis functions. For production calculations,
  #  uncomment them one after another (the most important basis functions are
  #  listed first).
  #
  #  Constructed for dimers: 1.2 A, 1.418 A, 1.75 A, 2.25 A, 3.25 A
  #
  ################################################################################
  #  "First tier" - improvements: -149.44 meV to -45.88 meV
       hydro 2 p 1.7
       hydro 3 d 7.4
       hydro 3 s 6.8
  #  "Second tier" - improvements: -12.96 meV to -1.56 meV
  #     hydro 4 f 11.2
  #     ionic 2 p auto
  #     hydro 1 s 0.75
  #     hydro 4 d 8.8
  #     hydro 5 g 16.8
  #  "Third tier" - improvements: -0.58 meV to -0.05 meV
  #     hydro 3 p 6.2
  #     hydro 3 s 3.2
  #     hydro 4 f 9.6
  #     hydro 3 s 19.6
  #     hydro 4 d 8.6
  #     hydro 5 g 14.4
  # Further basis functions: -0.05 meV and below
  #     hydro 3 p 4.2
  
  -----------------------------------------------------------------------
  Completed first pass over input file control.in .
  -----------------------------------------------------------------------
  
  
  -----------------------------------------------------------------------
  Parsing geometry.in (first pass over file, find array dimensions only).
  The contents of geometry.in will be repeated verbatim below
  unless switched off by setting 'verbatim_writeout .false.' .
  in the first line of geometry.in .
  -----------------------------------------------------------------------
  
  atom 0.368655595 -0.710630078 1.619610917 Al
  atom 2.187597363 -1.741598254 -0.471798490 Al
  atom -0.751581382 -1.779345540 -0.899983336 Al
  atom 3.366044911 -0.647031593 -1.049940003 F
  atom -1.743278651 -0.712648889 -1.794275421 F
  atom 2.711852787 -3.377559677 -0.500115192 F
  atom -1.204662573 -3.427858385 -1.070680069 F
  atom 1.813847396 -1.379711332 1.105067800 F
  atom 0.813261164 -1.565482682 -1.356923865 F
  atom 0.133947951 -1.097101641 3.264776681 F
  atom 0.399142579 0.988173166 1.260578872 F
  atom -0.852405669 -1.413953321 0.716643212 F
  
  -----------------------------------------------------------------------
  Completed first pass over input file geometry.in .
  -----------------------------------------------------------------------
  

  Basic array size parameters:
  | Number of species                 :        2
  | Number of atoms                   :       12
  | Max. basis fn. angular momentum   :        2
  | Max. atomic/ionic basis occupied n:        3
  | Max. number of basis fn. types    :        3
  | Max. radial fns per species/type  :        5
  | Max. logarithmic grid size        :     1340
  | Max. radial integration grid size :       41
  | Max. angular integration grid size:      302
  | Max. angular grid division number :        8
  | Radial grid for Hartree potential :     1340
  | Number of spin channels           :        1

------------------------------------------------------------
          Reading file control.in.
------------------------------------------------------------
  XC: Using PBEsol gradient-corrected functionals.
  Spin treatment: No spin polarisation.
  Scalar relativistic treatment of kinetic energy: on-site free-atom approximation to ZORA.
  Charge =   0.000000E+00: Neutral system requested explicitly.
  Occupation type: Gaussian broadening, width =   0.100000E-01 eV.
  Using pulay charge density mixing.
  Pulay mixing - number of memorized iterations:   10
  Charge density mixing - mixing parameter:     0.5000
  Convergence accuracy of self-consistent charge density:  0.1000E-04
  Convergence accuracy of sum of eigenvalues:  0.1000E-02
  Convergence accuracy of total energy:  0.1000E-05
  Convergence accuracy of forces:  0.1000E-03
  Maximum number of s.-c. iterations  :  1500
 
  Reading configuration options for species Al                  .
  | Found nuclear charge :  13.0000
  | Found atomic mass :    26.9815386000000      amu
  | Found l_max for Hartree potential  :   4
  | Found cutoff potl. onset [A], width [A], scale factor :    3.50000    1.50000    1.00000
  | Threshold for basis-dependent cutoff potential is   0.100000E-03
  | Found data for basic radial integration grid :    41 points, outermost radius =    5.000 A
  | Found multiplier for basic radial grid :   1
  | Found angular grid specification: user-specified.
  | Specified grid contains     4 separate shells.
  | Check grid settings after all constraints further below.
  | Found free-atom valence shell :  3 s   2.000
  | Found free-atom valence shell :  3 p   1.000
  | Found free-ion valence shell :  3 s   1.000
  | Found free-ion valence shell :  2 p   6.000
  | Found ionic basis function :  3 d , default cutoff radius.
  | Found ionic basis function :  3 p , default cutoff radius.
  | Found ionic basis function :  3 s , default cutoff radius.
  Species Al                  : Missing cutoff potential type.
  Defaulting to exp(1/x)/(1-x)^2 type cutoff potential.
  Species Al: No 'logarithmic' tag. Using default grid for free atom:
  | Default logarithmic grid data [bohr] : 0.1000E-03 0.1000E+03 0.1012E+01
  | Will include ionic basis functions of  2.0-fold positive Al                   ion.
  Species Al: On-site basis accuracy parameter (for Gram-Schmidt orthonormalisation) not specified.
  Using default value basis_acc =  0.1000000E-03.
  Species Al                  : Using default innermost maximum threshold i_radial=  2 for radial functions.
  Species Al                  : Default cutoff onset for free atom density etc. : 0.35000000E+01 AA.
  Species Al                  : Basic radial grid will be enhanced according to radial_multiplier =   1, to contain    41 grid points.
 
  Reading configuration options for species F                   .
  | Found nuclear charge :   9.0000
  | Found atomic mass :    18.9984032000000      amu
  | Found l_max for Hartree potential  :   4
  | Found cutoff potl. onset [A], width [A], scale factor :    3.50000    1.50000    1.00000
  | Threshold for basis-dependent cutoff potential is   0.100000E-03
  | Found data for basic radial integration grid :    37 points, outermost radius =    5.000 A
  | Found multiplier for basic radial grid :   1
  | Found angular grid specification: user-specified.
  | Specified grid contains     4 separate shells.
  | Check grid settings after all constraints further below.
  | Found free-atom valence shell :  2 s   2.000
  | Found free-atom valence shell :  2 p   5.000
  | Found free-ion valence shell :  2 s   1.000
  | Found free-ion valence shell :  2 p   4.000
  | Found hydrogenic basis function :  2 p   1.700
  | Found hydrogenic basis function :  3 d   7.400
  | Found hydrogenic basis function :  3 s   6.800
  Species F                   : Missing cutoff potential type.
  Defaulting to exp(1/x)/(1-x)^2 type cutoff potential.
  Species F : No 'logarithmic' tag. Using default grid for free atom:
  | Default logarithmic grid data [bohr] : 0.1000E-03 0.1000E+03 0.1012E+01
  Species F : On-site basis accuracy parameter (for Gram-Schmidt orthonormalisation) not specified.
  Using default value basis_acc =  0.1000000E-03.
  Species F                   : Using default innermost maximum threshold i_radial=  2 for radial functions.
  Species F                   : Default cutoff onset for free atom density etc. : 0.35000000E+01 AA.
  Species F                   : Basic radial grid will be enhanced according to radial_multiplier =   1, to contain    37 grid points.
 
  Finished reading input file 'control.in'.
 
------------------------------------------------------------


------------------------------------------------------------
          Reading geometry description geometry.in.
------------------------------------------------------------
  | The smallest distance between any two atoms is         1.64416046 AA.
  | The first atom of this pair is atom number                      2 .
  | The second atom of this pair is atom number                     9 .
  Input structure read successfully.
  The structure contains       12 atoms,  and a total of        120.000 electrons.

  Input geometry:
  | No unit cell requested.
  | Atomic structure:
  |       Atom                x [A]            y [A]            z [A]
  |    1: Species Al            0.36865560       -0.71063008        1.61961092
  |    2: Species Al            2.18759736       -1.74159825       -0.47179849
  |    3: Species Al           -0.75158138       -1.77934554       -0.89998334
  |    4: Species F             3.36604491       -0.64703159       -1.04994000
  |    5: Species F            -1.74327865       -0.71264889       -1.79427542
  |    6: Species F             2.71185279       -3.37755968       -0.50011519
  |    7: Species F            -1.20466257       -3.42785838       -1.07068007
  |    8: Species F             1.81384740       -1.37971133        1.10506780
  |    9: Species F             0.81326116       -1.56548268       -1.35692386
  |   10: Species F             0.13394795       -1.09710164        3.26477668
  |   11: Species F             0.39914258        0.98817317        1.26057887
  |   12: Species F            -0.85240567       -1.41395332        0.71664321

 
  Finished reading input file 'control.in'.
 

------------------------------------------------------------
          Reading geometry description geometry.in.
------------------------------------------------------------
 
  Consistency checks for stacksize environment parameter are next.
 
  | Maximum stacksize for task 0: unlimited
  | Maximum stacksize for task 1: unlimited
  | Maximum stacksize for task 2: unlimited
  | Maximum stacksize for task 3: unlimited
  | Maximum stacksize for task 4: unlimited
  | Maximum stacksize for task 5: unlimited
  | Maximum stacksize for task 6: unlimited
  | Maximum stacksize for task 7: unlimited
  | Maximum stacksize for task 8: unlimited
  | Maximum stacksize for task 9: unlimited
  | Maximum stacksize for task 10: unlimited
  | Maximum stacksize for task 11: unlimited
  | Maximum stacksize for task 12: unlimited
  | Maximum stacksize for task 13: unlimited
  | Maximum stacksize for task 14: unlimited
  | Maximum stacksize for task 15: unlimited
  | Maximum stacksize for task 16: unlimited
  | Maximum stacksize for task 17: unlimited
  | Maximum stacksize for task 18: unlimited
  | Maximum stacksize for task 19: unlimited
  | Maximum stacksize for task 20: unlimited
  | Maximum stacksize for task 21: unlimited
  | Maximum stacksize for task 22: unlimited
  | Maximum stacksize for task 23: unlimited
  | Current stacksize for task 0: unlimited
  | Current stacksize for task 1: unlimited
  | Current stacksize for task 2: unlimited
  | Current stacksize for task 3: unlimited
  | Current stacksize for task 4: unlimited
  | Current stacksize for task 5: unlimited
  | Current stacksize for task 6: unlimited
  | Current stacksize for task 7: unlimited
  | Current stacksize for task 8: unlimited
  | Current stacksize for task 9: unlimited
  | Current stacksize for task 10: unlimited
  | Current stacksize for task 11: unlimited
  | Current stacksize for task 12: unlimited
  | Current stacksize for task 13: unlimited
  | Current stacksize for task 14: unlimited
  | Current stacksize for task 15: unlimited
  | Current stacksize for task 16: unlimited
  | Current stacksize for task 17: unlimited
  | Current stacksize for task 18: unlimited
  | Current stacksize for task 19: unlimited
  | Current stacksize for task 20: unlimited
  | Current stacksize for task 21: unlimited
  | Current stacksize for task 22: unlimited
  | Current stacksize for task 23: unlimited
 
  Consistency checks for the contents of control.in are next.
 
  MPI_IN_PLACE appears to work with this MPI implementation.
  | Keeping use_mpi_in_place .true. (see manual).
  Target number of points in a grid batch is not set. Defaulting to  100
  Method for grid partitioning is not set. Defaulting to parallel hash+maxmin partitioning.
  Batch size limit is not set. Defaulting to    200
  By default, will store active basis functions for each batch.
  If in need of memory, prune_basis_once .false. can be used to disable this option.
  communication_type for Hartree potential was not specified.
  Defaulting to calc_hartree .
  Pulay mixer: Number of initial linear mixing iterations not set.
  Defaulting to    0 iterations.
  Work space size for distributed Hartree potential not set.
  Defaulting to   0.200000E+03 MB.
  Algorithm-dependent basis array size parameters:
  | n_max_pulay                         :       10
  Presetting      1001 iterations before the initial mixing cycle
  is restarted anyway using the sc_init_iter criterion / keyword.
  Presetting a factor      1.000 between actual scf density residual
  and density convergence criterion sc_accuracy_rho below which sc_init_iter
  takes no effect.
  Geometry relaxation not requested: no relaxation will be performed.
  Forces evaluation will include force correction term due to incomplete self-consistency (default).
  Handling of forces: Unphysical translation and rotation will be removed from forces.
  No accuracy limit for integral partition fn. given. Defaulting to  0.1000E-14.
  No threshold value for u(r) in integrations given. Defaulting to  0.1000E-05.
  No accuracy for occupation numbers given. Defaulting to  0.1000E-12.
  No threshold value for occupation numbers given. Defaulting to  0.0000E+00.
  No accuracy for fermi level given. Defaulting to  0.1000E-19.
  Maximum # of iterations to find E_F not set. Defaulting to  200.
  Preferred method for the eigenvalue solver ('KS_method') not specified in 'control.in'.
  Calling BLACS routine to test compilation state
  Since ScaLAPACK support is enabled, defaulting to ELPA (via ELSI).
  Will not use alltoall communication since running on < 1024 CPUs.
  Threshold for basis singularities not set.
  Default threshold for basis singularities:  0.1000E-04
  partition_type (choice of integration weights) for integrals was not specified.
  | Using a version of the partition function of Stratmann and coworkers ('stratmann_sparse').
  | At each grid point, the set of atoms used to build the partition table is smoothly restricted to
  | only those atoms whose free-atom density would be non-zero at that grid point.
  Partitioning for Hartree potential was not defined. Using partition_type for integrals.
  | Adjusted default value of keyword multip_moments_threshold to:       0.10000000E-11
  | This value may affect high angular momentum components of the Hartree potential in periodic systems.
  No q(lm)/r^(l+1) cutoff set for long-range Hartree potential.
  | Using default value of  0.100000E-09 .
  | Verify using the multipole_threshold keyword.
  Defaulting to new monopole extrapolation.
  Density update method: automatic selection selected.
  Charge integration errors on the 3D integration grid will be compensated
  by explicit normalization and distribution of residual charges.
  Use the "compensate_multipole_errors" flag to change this behaviour.
  Set 'collect_eigenvectors' to be '.true.' for use_density_matrix .false.
 
  Consistency checks for the contents of geometry.in are next.
 
  Number of empty states per atom not set in control.in - providing a guess from actual geometry.
  | Total number of empty states used during s.c.f. cycle:       36
  If you use a very high smearing, use empty_states (per atom!) in control.in to increase this value.

  Structure-dependent array size parameters: 
  | Maximum number of distinct radial functions  :       14
  | Maximum number of basis functions            :      180
  | Number of Kohn-Sham states (occupied + empty):       96
------------------------------------------------------------

------------------------------------------------------------
          Preparing all fixed parts of the calculation.
------------------------------------------------------------
  Determining machine precision:
    2.225073858507201E-308
  Setting up grids for atomic and cluster calculations.

  Creating wave function, potential, and density for free atoms.

  Species: Al

  List of occupied orbitals and eigenvalues:
    n    l              occ      energy [Ha]    energy [eV]
    1    0           2.0000       -55.621123     -1513.5278
    2    0           2.0000        -3.957030      -107.6763
    3    0           2.0000        -0.272233        -7.4078
    2    1           6.0000        -2.540949       -69.1427
    3    1           1.0000        -0.083300        -2.2667


  Species: F

  List of occupied orbitals and eigenvalues:
    n    l              occ      energy [Ha]    energy [eV]
    1    0           2.0000       -24.399611      -663.9472
    2    0           2.0000        -1.098702       -29.8972
    2    1           5.0000        -0.408210       -11.1080


  Adding cutoff potential to free-atom effective potential.
  Creating fixed part of basis set: Ionic, confined, hydrogenic.
 
  Al                   ion:

  List of free ionic orbitals and eigenvalues:
    n    l      energy [Ha]    energy [eV]
    1    0       -56.418846     -1535.2349
    2    0        -4.732717      -128.7838
    3    0        -0.872690       -23.7471
    2    1        -3.317230       -90.2664


  List of ionic basis orbitals and eigenvalues:
    n    l      energy [Ha]    energy [eV]    outer radius [A]
    3    2        -0.346815        -9.4373       4.594041
    3    1        -0.631870       -17.1940       4.538221
    3    0        -0.872657       -23.7462       4.538221

 
  F                    hydrogenic:
 
  List of hydrogenic basis orbitals: 
    n    l      effective z      eigenvalue [eV]  inner max. [A]     outer max. [A]     outer radius [A]   
    2    1         1.700000        -9.7616           1.243167           1.243167           4.598524
    3    2         7.400000       -82.7828           0.642437           0.642437           3.305741
    3    0         6.800000       -69.9026           0.057798           1.022307           3.781556
 
  Creating atomic-like basis functions for current effective potential.

  Species Al                  :

  List of atomic basis orbitals and eigenvalues:
    n    l      energy [Ha]    energy [eV]    outer radius [A]
    1    0       -55.621123     -1513.5278       0.850197
    2    0        -3.957030      -107.6763       3.144911
    3    0        -0.272233        -7.4078       4.594041
    2    1        -2.540949       -69.1427       3.731966
    3    1        -0.083300        -2.2667       4.594041


  Species F                   :

  List of atomic basis orbitals and eigenvalues:
    n    l      energy [Ha]    energy [eV]    outer radius [A]
    1    0       -24.399611      -663.9472       1.258458
    2    0        -1.098702       -29.8972       4.325857
    2    1        -0.408210       -11.1080       4.487453

  Assembling full basis from fixed parts.
  | Species Al :   atomic orbital   1 s accepted.
  | Species Al :   atomic orbital   2 s accepted.
  | Species Al :    ionic orbital   3 s accepted.
  | Species Al :   atomic orbital   3 s accepted.
  | Species Al :   atomic orbital   2 p accepted.
  | Species Al :    ionic orbital   3 p accepted.
  | Species Al :   atomic orbital   3 p accepted.
  | Species Al :    ionic orbital   3 d accepted.
  | Species F :   atomic orbital   1 s accepted.
  | Species F :    hydro orbital   3 s accepted.
  | Species F :   atomic orbital   2 s accepted.
  | Species F :   atomic orbital   2 p accepted.
  | Species F :    hydro orbital   2 p accepted.
  | Species F :    hydro orbital   3 d accepted.
 
  Basis size parameters after reduction:
  | Total number of radial functions:       14
  | Total number of basis functions :      180
 
  Per-task memory consumption for arrays in subroutine allocate_ext:
  |           4.807768MB.
  Testing on-site integration grid accuracy.
  |  Species  Function  <phi|h_atom|phi> (log., in eV)  <phi|h_atom|phi> (rad., in eV)
           1        1              -1513.5277717935              -1513.5271881332
           1        2               -107.6762691836               -107.6762662489
           1        3                 -6.9467474784                 -6.9471269649
           1        4                  5.5771951849                  5.4862107220 ***
           1        5                -69.1427313144                -69.1427312731
           1        6                 -1.5197375330                 -1.5230432022
           1        7                  6.8210948310                  6.5529872240 ***
           1        8                  4.3216540965                  4.2851170187 ***
           2        9               -663.9471986398               -663.9470363334
           2       10                 16.8514011578                 16.8512525338
           2       11                -28.4490593856                -28.4490661472
           2       12                -11.1080115307                -11.1080620173
           2       13                  7.1940182175                  7.1685154137
           2       14                 44.8544281765                 44.8543763625
 * Note: Onsite integrals marked "***" above are less accurate than
 * onsite_accuracy_threshold =    0.03000 eV. Usually, this is harmless.
 * When in doubt, tighten the "radial" and/or "radial_multiplier" flags to check.

  Preparing densities etc. for the partition functions (integrals / Hartree potential).

  Preparations completed.
  max(cpu_time)          :      0.184 s.
  Wall clock time (cpu1) :      0.184 s.
------------------------------------------------------------

------------------------------------------------------------
          Begin self-consistency loop: Initialization.

          Date     :  20220517, Time     :  112804.158
------------------------------------------------------------

  Initializing index lists of integration centers etc. from given atomic structure:
  | Number of centers in hartree potential         :        12
  | Number of centers in hartree multipole         :        12
  | Number of centers in electron density summation:        12
  | Number of centers in basis integrals           :        12
  | Number of centers in integrals                 :        12
  | Number of centers in hamiltonian               :        12
  * Using 24 tasks for Scalapack Eigenvalue solver.
  Detailed listing of tasks and assigned k-points:
  (for non-periodic systems, the "k-point" denotes an internal label only)
   Task     0 k-point     1 on node-k98a-025
   Task     1 k-point     1 on node-k98a-025
   Task     2 k-point     1 on node-k98a-025
   Task     3 k-point     1 on node-k98a-025
   Task     4 k-point     1 on node-k98a-025
   Task     5 k-point     1 on node-k98a-025
   Task     6 k-point     1 on node-k98a-025
   Task     7 k-point     1 on node-k98a-025
   Task     8 k-point     1 on node-k98a-025
   Task     9 k-point     1 on node-k98a-025
   Task    10 k-point     1 on node-k98a-025
   Task    11 k-point     1 on node-k98a-025
   Task    12 k-point     1 on node-k98a-025
   Task    13 k-point     1 on node-k98a-025
   Task    14 k-point     1 on node-k98a-025
   Task    15 k-point     1 on node-k98a-025
   Task    16 k-point     1 on node-k98a-025
   Task    17 k-point     1 on node-k98a-025
   Task    18 k-point     1 on node-k98a-025
   Task    19 k-point     1 on node-k98a-025
   Task    20 k-point     1 on node-k98a-025
   Task    21 k-point     1 on node-k98a-025
   Task    22 k-point     1 on node-k98a-025
   Task    23 k-point     1 on node-k98a-025
  Tasks:    24 split into      6 X      4 BLACS grid
  Calculating block size based on n_basis =          180  max_nprow =            6  max_npcol =            4
  ScaLAPACK block size set to:           16
  Allocating        0.012 MB for ovlp
  Allocating        0.012 MB for ham
  Allocating        0.012 MB for eigenvec
  Required Scalapack workspace - INTEGER:            1  REAL:             1
  Partitioning the integration grid into batches with parallel hashing+maxmin method.
  | Number of batches:     1048
  | Maximal batch size:     189
  | Minimal batch size:      20
  | Average batch size:      87.710
  | Standard deviation of batch sizes:      20.537

  Integration load balanced across    24 MPI tasks.
  Work distribution over tasks is as follows:
  Task     0 has       3821 integration points.
  Task     1 has       3829 integration points.
  Task     2 has       3918 integration points.
  Task     3 has       3925 integration points.
  Task     4 has       3761 integration points.
  Task     5 has       3757 integration points.
  Task     6 has       3798 integration points.
  Task     7 has       3825 integration points.
  Task     8 has       3822 integration points.
  Task     9 has       3825 integration points.
  Task    10 has       3918 integration points.
  Task    11 has       3925 integration points.
  Task    12 has       3825 integration points.
  Task    13 has       3760 integration points.
  Task    14 has       3818 integration points.
  Task    15 has       3753 integration points.
  Task    16 has       3825 integration points.
  Task    17 has       3827 integration points.
  Task    18 has       3907 integration points.
  Task    19 has       3770 integration points.
  Task    20 has       3822 integration points.
  Task    21 has       3916 integration points.
  Task    22 has       3764 integration points.
  Task    23 has       3809 integration points.
  Initializing partition tables, free-atom densities, potentials, etc. across the integration grid (initialize_grid_storage).
  | initialize_grid_storage: Actual outermost partition radius vs. multipole_radius_free
  | (-- VB: in principle, multipole_radius_free should be larger, hence this output)
  | Species        1: Confinement radius =              4.999999999999999 AA, multipole_radius_free =              5.004487022111096 AA.
  | Species        1: outer_partition_radius set to              5.004487022111096 AA .
  | Species        2: Confinement radius =              4.999999999999999 AA, multipole_radius_free =              5.009370088163274 AA.
  | Species        2: outer_partition_radius set to              5.009370088163274 AA .
  | The sparse table of interatomic distances needs          1.64 kbyte instead of         1.15 kbyte of memory.
  | Using the partition_type stratmann_smoother will reduce your memory usage.
  | Net number of integration points:    91920
  | of which are non-zero points    :    85033
  Renormalizing the initial density to the exact electron count on the 3D integration grid.
  | Initial density: Formal number of electrons (from input files) :     120.0000000000
  | Integrated number of electrons on 3D grid     :     119.9998292913
  | Charge integration error                      :      -0.0001707087
  | Normalization factor for density and gradient :       1.0000014226
  Renormalizing the free-atom superposition density to the exact electron count on the 3D integration grid.
  | Formal number of electrons (from input files) :     120.0000000000
  | Integrated number of electrons on 3D grid     :     119.9998292913
  | Charge integration error                      :      -0.0001707087
  | Normalization factor for density and gradient :       1.0000014226
  Obtaining max. number of non-zero basis functions in each batch (get_n_compute_maxes).
  | Maximal number of non-zero basis functions:      171 in task     0
  | Maximal number of non-zero basis functions:      171 in task     1
  | Maximal number of non-zero basis functions:      171 in task     2
  | Maximal number of non-zero basis functions:      171 in task     3
  | Maximal number of non-zero basis functions:      163 in task     4
  | Maximal number of non-zero basis functions:      169 in task     5
  | Maximal number of non-zero basis functions:      169 in task     6
  | Maximal number of non-zero basis functions:      164 in task     7
  | Maximal number of non-zero basis functions:      171 in task     8
  | Maximal number of non-zero basis functions:      169 in task     9
  | Maximal number of non-zero basis functions:      170 in task    10
  | Maximal number of non-zero basis functions:      171 in task    11
  | Maximal number of non-zero basis functions:      171 in task    12
  | Maximal number of non-zero basis functions:      171 in task    13
  | Maximal number of non-zero basis functions:      167 in task    14
  | Maximal number of non-zero basis functions:      171 in task    15
  | Maximal number of non-zero basis functions:      166 in task    16
  | Maximal number of non-zero basis functions:      171 in task    17
  | Maximal number of non-zero basis functions:      170 in task    18
  | Maximal number of non-zero basis functions:      165 in task    19
  | Maximal number of non-zero basis functions:      171 in task    20
  | Maximal number of non-zero basis functions:      171 in task    21
  | Maximal number of non-zero basis functions:      165 in task    22
  | Maximal number of non-zero basis functions:      171 in task    23
  Selecting the method for density update.
  Loop over occupied states selected for charge density update.
  Allocating        0.132 MB for KS_eigenvector
  Integrating Hamiltonian matrix: batch-based integration.
  Time summed over all CPUs for integration: real work        0.755 s, elapsed        0.803 s
  Integrating overlap matrix.
  Time summed over all CPUs for integration: real work        0.291 s, elapsed        0.308 s
  Deallocating overlap matrix.

  Updating Kohn-Sham eigenvalues and eigenvectors using ELSI and the ELPA eigensolver.
  Overlap matrix is not singular
  | Lowest and highest eigenvalues :  0.2166E-02,  0.5573E+01
  Finished singularity check of overlap matrix
  | Time :     0.004 s
  Starting ELPA eigensolver
  Finished Cholesky decomposition
  | Time :     0.002 s
  Finished transformation to standard eigenproblem
  | Time :     0.000 s
  Finished solving standard eigenproblem
  | Time :     0.004 s
  Finished back-transformation of eigenvectors
  | Time :     0.000 s

  Obtaining occupation numbers and chemical potential using ELSI.
  | Chemical potential (Fermi level):    -7.01067856 eV
  Writing Kohn-Sham eigenvalues.

  State    Occupation    Eigenvalue [Ha]    Eigenvalue [eV]
      1       2.00000         -55.489481        -1509.94561
      2       2.00000         -55.489481        -1509.94561
      3       2.00000         -55.488836        -1509.92804
      4       2.00000         -24.432116         -664.83170
      5       2.00000         -24.423423         -664.59514
      6       2.00000         -24.423422         -664.59513
      7       2.00000         -24.355735         -662.75326
      8       2.00000         -24.355268         -662.74056
      9       2.00000         -24.355268         -662.74056
     10       2.00000         -24.353850         -662.70197
     11       2.00000         -24.353850         -662.70197
     12       2.00000         -24.351067         -662.62624
     13       2.00000          -3.958273         -107.71008
     14       2.00000          -3.958260         -107.70973
     15       2.00000          -3.957177         -107.68027
     16       2.00000          -2.551555          -69.43135
     17       2.00000          -2.551233          -69.42257
     18       2.00000          -2.550997          -69.41617
     19       2.00000          -2.550934          -69.41444
     20       2.00000          -2.549955          -69.38779
     21       2.00000          -2.549906          -69.38646
     22       2.00000          -2.549882          -69.38581
     23       2.00000          -2.549847          -69.38487
     24       2.00000          -2.548860          -69.35802
     25       2.00000          -1.274126          -34.67073
     26       2.00000          -1.260731          -34.30624
     27       2.00000          -1.256829          -34.20007
     28       2.00000          -1.171338          -31.87374
     29       2.00000          -1.171094          -31.86708
     30       2.00000          -1.170481          -31.85041
     31       2.00000          -1.165750          -31.72168
     32       2.00000          -1.165743          -31.72149
     33       2.00000          -1.163077          -31.64893
     34       2.00000          -0.646071          -17.58050
     35       2.00000          -0.637007          -17.33384
     36       2.00000          -0.615746          -16.75531
     37       2.00000          -0.597133          -16.24881
     38       2.00000          -0.567004          -15.42897
     39       2.00000          -0.551677          -15.01189
     40       2.00000          -0.551130          -14.99702
     41       2.00000          -0.545912          -14.85502
     42       2.00000          -0.540171          -14.69881
     43       2.00000          -0.522785          -14.22571
     44       2.00000          -0.516694          -14.05996
     45       2.00000          -0.515304          -14.02214
     46       2.00000          -0.499664          -13.59655
     47       2.00000          -0.499260          -13.58557
     48       2.00000          -0.495000          -13.46964
     49       2.00000          -0.474974          -12.92470
     50       2.00000          -0.473667          -12.88912
     51       2.00000          -0.472800          -12.86553
     52       2.00000          -0.469796          -12.78380
     53       2.00000          -0.469650          -12.77984
     54       2.00000          -0.467846          -12.73073
     55       2.00000          -0.464041          -12.62719
     56       2.00000          -0.462839          -12.59449
     57       2.00000          -0.461117          -12.54764
     58       2.00000          -0.459012          -12.49034
     59       2.00000          -0.458731          -12.48271
     60       2.00000          -0.458211          -12.46856
     61       0.00000          -0.112667           -3.06583
     62       0.00000          -0.039277           -1.06879
     63       0.00000          -0.035299           -0.96054
     64       0.00000          -0.016326           -0.44426
     65       0.00000           0.001243            0.03383
     66       0.00000           0.024288            0.66092
     67       0.00000           0.027171            0.73937
     68       0.00000           0.060274            1.64014
     69       0.00000           0.063418            1.72570
     70       0.00000           0.065436            1.78061
     71       0.00000           0.116003            3.15661
     72       0.00000           0.123949            3.37283
     73       0.00000           0.149012            4.05482
     74       0.00000           0.158259            4.30644
     75       0.00000           0.177365            4.82634
     76       0.00000           0.194493            5.29243
     77       0.00000           0.195187            5.31131
     78       0.00000           0.199612            5.43173
     79       0.00000           0.204171            5.55578
     80       0.00000           0.211635            5.75887
     81       0.00000           0.213773            5.81705
     82       0.00000           0.222495            6.05441
     83       0.00000           0.224490            6.10869
     84       0.00000           0.244022            6.64018
     85       0.00000           0.248890            6.77264
     86       0.00000           0.265846            7.23404
     87       0.00000           0.290058            7.89288
     88       0.00000           0.308474            8.39402
     89       0.00000           0.317289            8.63387
     90       0.00000           0.322816            8.78428
     91       0.00000           0.329593            8.96868
     92       0.00000           0.341877            9.30294
     93       0.00000           0.357541            9.72918
     94       0.00000           0.377221           10.26471
     95       0.00000           0.381575           10.38319
     96       0.00000           0.397285           10.81068

  Highest occupied state (VBM) at    -12.46856135 eV
  | Occupation number:      2.00000000

  Lowest unoccupied state (CBM) at    -3.06583111 eV
  | Occupation number:      0.00000000

  Overall HOMO-LUMO gap:      9.40273024 eV.
  Calculating total energy contributions from superposition of free atom densities.

  Total energy components:
  | Sum of eigenvalues            :        -890.78217412 Ha      -24239.41624574 eV
  | XC energy correction          :        -144.64648945 Ha       -3936.03124092 eV
  | XC potential correction       :         188.35684633 Ha        5125.45056879 eV
  | Free-atom electrostatic energy:        -778.30968083 Ha      -21178.88398515 eV
  | Hartree energy correction     :           0.00000000 Ha           0.00000000 eV
  | Entropy correction            :           0.00000000 Ha           0.00000000 eV
  | ---------------------------
  | Total energy                  :       -1625.38149806 Ha      -44228.88090302 eV
  | Total energy, T -> 0          :       -1625.38149806 Ha      -44228.88090302 eV  <-- do not rely on this value for anything but (periodic) metals
  | Electronic free energy        :       -1625.38149806 Ha      -44228.88090302 eV

  Derived energy quantities:
  | Kinetic energy                :        1628.44448598 Ha       44312.22904479 eV
  | Electrostatic energy          :       -3109.17949459 Ha      -84605.07870689 eV
  | Energy correction for multipole
  | error in Hartree potential    :           0.00000000 Ha           0.00000000 eV
  | Sum of eigenvalues per atom                           :       -2019.95135381 eV
  | Total energy (T->0) per atom                          :       -3685.74007525 eV  <-- do not rely on this value for anything but (periodic) metals
  | Electronic free energy per atom                       :       -3685.74007525 eV
  Initialize hartree_potential_storage
  Max. number of atoms included in rho_multipole:           12

  End scf initialization - timings             :  max(cpu_time)    wall_clock(cpu1)
  | Time for scf. initialization                :        0.118 s           0.118 s
  | Boundary condition initialization           :        0.000 s           0.000 s
  | Integration                                 :        0.048 s           0.047 s
  | Solution of K.-S. eqns.                     :        0.011 s           0.011 s
  | Grid partitioning                           :        0.036 s           0.036 s
  | Preloading free-atom quantities on grid     :        0.016 s           0.017 s
  | Free-atom superposition energy              :        0.005 s           0.005 s
  | Total energy evaluation                     :        0.000 s           0.000 s

  Partial memory accounting:
  | Current value for overall tracked memory usage:
  |   Minimum:        0.273 MB (on task 23)
  |   Maximum:        0.292 MB (on task  0)
  |   Average:        0.287 MB
  | Peak value for overall tracked memory usage:
  |   Minimum:        1.326 MB (on task  7 after allocating wave)
  |   Maximum:        1.383 MB (on task  0 after allocating wave)
  |   Average:        1.366 MB
  | Largest tracked array allocation so far:
  |   Minimum:        0.235 MB (H_times_psi on task  4)
  |   Maximum:        0.488 MB (all_coords on task  9)
  |   Average:        0.273 MB
  Note:  These values currently only include a subset of arrays which are explicitly tracked.
  The "true" memory usage will be greater.
------------------------------------------------------------
  Evaluating new KS density.
  Integration grid: deviation in total charge (<rho> - N_e) =   0.000000E+00

  Time for density update prior                :  max(cpu_time)    wall_clock(cpu1)
  | self-consistency iterative process          :        0.030 s           0.030 s

------------------------------------------------------------
          Begin self-consistency iteration #    1

  Date     :  20220517, Time     :  112804.307
------------------------------------------------------------
  Pulay mixing of updated and previous charge densities.
  Renormalizing the density to the exact electron count on the 3D integration grid.
  | Formal number of electrons (from input files) :     120.0000000000
  | Integrated number of electrons on 3D grid     :     120.0000000000
  | Charge integration error                      :      -0.0000000000
  | Normalization factor for density and gradient :       1.0000000000

  Evaluating partitioned Hartree potential by multipole expansion.
  | Original multipole sum: apparent total charge =  -0.110198E-13
  | Sum of charges compensated after spline to logarithmic grids =   0.604071E-04
  | Analytical far-field extrapolation by fixed multipoles:
  | Hartree multipole sum: apparent total charge =  -0.105094E-13
  Summing up the Hartree potential.
  Time summed over all CPUs for potential: real work        0.383 s, elapsed        0.398 s
  | RMS charge density error from multipole expansion :   0.121459E-01

  Integrating Hamiltonian matrix: batch-based integration.
  Time summed over all CPUs for integration: real work        0.703 s, elapsed        0.746 s

  Updating Kohn-Sham eigenvalues and eigenvectors using ELSI and the ELPA eigensolver.
  Starting ELPA eigensolver
  Finished transformation to standard eigenproblem
  | Time :     0.001 s
  Finished solving standard eigenproblem
  | Time :     0.003 s
  Finished back-transformation of eigenvectors
  | Time :     0.000 s

  Obtaining occupation numbers and chemical potential using ELSI.
  | Chemical potential (Fermi level):    -7.07600022 eV
  Writing Kohn-Sham eigenvalues.

  State    Occupation    Eigenvalue [Ha]    Eigenvalue [eV]
      1       2.00000         -55.617978        -1513.44219
      2       2.00000         -55.610194        -1513.23038
      3       2.00000         -55.610193        -1513.23036
      4       2.00000         -24.321656         -661.82593
      5       2.00000         -24.312277         -661.57072
      6       2.00000         -24.312269         -661.57050
      7       2.00000         -24.088078         -655.46994
      8       2.00000         -24.084003         -655.35908
      9       2.00000         -24.081047         -655.27864
     10       2.00000         -24.081045         -655.27856
     11       2.00000         -24.080138         -655.25391
     12       2.00000         -24.080134         -655.25378
     13       2.00000          -4.069372         -110.73326
     14       2.00000          -4.063382         -110.57025
     15       2.00000          -4.063368         -110.56986
     16       2.00000          -2.663148          -72.46794
     17       2.00000          -2.662593          -72.45283
     18       2.00000          -2.659946          -72.38080
     19       2.00000          -2.657458          -72.31310
     20       2.00000          -2.657277          -72.30819
     21       2.00000          -2.656617          -72.29022
     22       2.00000          -2.656473          -72.28632
     23       2.00000          -2.653719          -72.21136
     24       2.00000          -2.653701          -72.21087
     25       2.00000          -1.274960          -34.69341
     26       2.00000          -1.258033          -34.23282
     27       2.00000          -1.252985          -34.09546
     28       2.00000          -1.044632          -28.42588
     29       2.00000          -1.041173          -28.33176
     30       2.00000          -1.040549          -28.31479
     31       2.00000          -1.037456          -28.23063
     32       2.00000          -1.033145          -28.11331
     33       2.00000          -1.033130          -28.11291
     34       2.00000          -0.651990          -17.74156
     35       2.00000          -0.641203          -17.44802
     36       2.00000          -0.616696          -16.78115
     37       2.00000          -0.608143          -16.54842
     38       2.00000          -0.565139          -15.37822
     39       2.00000          -0.545941          -14.85582
     40       2.00000          -0.544703          -14.82212
     41       2.00000          -0.540017          -14.69462
     42       2.00000          -0.532240          -14.48300
     43       2.00000          -0.417757          -11.36774
     44       2.00000          -0.408848          -11.12532
     45       2.00000          -0.406977          -11.07441
     46       2.00000          -0.383413          -10.43320
     47       2.00000          -0.379525          -10.32740
     48       2.00000          -0.376544          -10.24627
     49       2.00000          -0.359036           -9.76988
     50       2.00000          -0.355180           -9.66494
     51       2.00000          -0.354926           -9.65804
     52       2.00000          -0.349826           -9.51924
     53       2.00000          -0.348992           -9.49655
     54       2.00000          -0.346313           -9.42367
     55       2.00000          -0.340954           -9.27784
     56       2.00000          -0.336504           -9.15673
     57       2.00000          -0.336376           -9.15325
     58       2.00000          -0.334570           -9.10411
     59       2.00000          -0.329570           -8.96807
     60       2.00000          -0.328361           -8.93516
     61       0.00000          -0.131779           -3.58588
     62       0.00000          -0.038085           -1.03633
     63       0.00000          -0.031212           -0.84932
     64       0.00000          -0.027113           -0.73777
     65       0.00000          -0.004810           -0.13089
     66       0.00000           0.028612            0.77858
     67       0.00000           0.028947            0.78769
     68       0.00000           0.052879            1.43890
     69       0.00000           0.052896            1.43937
     70       0.00000           0.070987            1.93165
     71       0.00000           0.100062            2.72282
     72       0.00000           0.107666            2.92973
     73       0.00000           0.150539            4.09638
     74       0.00000           0.156954            4.27094
     75       0.00000           0.189043            5.14412
     76       0.00000           0.196075            5.33549
     77       0.00000           0.198646            5.40542
     78       0.00000           0.198879            5.41177
     79       0.00000           0.206962            5.63174
     80       0.00000           0.214952            5.84914
     81       0.00000           0.215745            5.87073
     82       0.00000           0.219451            5.97155
     83       0.00000           0.229391            6.24205
     84       0.00000           0.240079            6.53288
     85       0.00000           0.250932            6.82820
     86       0.00000           0.267963            7.29165
     87       0.00000           0.299194            8.14147
     88       0.00000           0.305888            8.32363
     89       0.00000           0.309865            8.43186
     90       0.00000           0.322399            8.77293
     91       0.00000           0.327256            8.90508
     92       0.00000           0.332083            9.03644
     93       0.00000           0.369287           10.04881
     94       0.00000           0.370938           10.09374
     95       0.00000           0.383719           10.44152
     96       0.00000           0.396380           10.78605

  Highest occupied state (VBM) at     -8.93515549 eV
  | Occupation number:      2.00000000

  Lowest unoccupied state (CBM) at    -3.58588282 eV
  | Occupation number:      0.00000000

  Overall HOMO-LUMO gap:      5.34927267 eV.

  Total energy components:
  | Sum of eigenvalues            :        -884.30375023 Ha      -24063.12936224 eV
  | XC energy correction          :        -146.09059031 Ha       -3975.32722479 eV
  | XC potential correction       :         190.25449028 Ha        5177.08808781 eV
  | Free-atom electrostatic energy:        -778.30968083 Ha      -21178.88398515 eV
  | Hartree energy correction     :          -6.68918744 Ha        -182.02205135 eV
  | Entropy correction            :           0.00000000 Ha           0.00000000 eV
  | ---------------------------
  | Total energy                  :       -1625.13871853 Ha      -44222.27453572 eV
  | Total energy, T -> 0          :       -1625.13871853 Ha      -44222.27453572 eV  <-- do not rely on this value for anything but (periodic) metals
  | Electronic free energy        :       -1625.13871853 Ha      -44222.27453572 eV

  Derived energy quantities:
  | Kinetic energy                :        1636.13063028 Ha       44521.37967273 eV
  | Electrostatic energy          :       -3115.17875850 Ha      -84768.32698366 eV
  | Energy correction for multipole
  | error in Hartree potential    :           0.06086180 Ha           1.65613382 eV
  | Sum of eigenvalues per atom                           :       -2005.26078019 eV
  | Total energy (T->0) per atom                          :       -3685.18954464 eV  <-- do not rely on this value for anything but (periodic) metals
  | Electronic free energy per atom                       :       -3685.18954464 eV
  Evaluating new KS density.
  Integration grid: deviation in total charge (<rho> - N_e) =   0.000000E+00

  Self-consistency convergence accuracy:
  | Change of charge density      :  0.6263E+00
  | Change of sum of eigenvalues  :  0.1763E+03 eV
  | Change of total energy        :  0.6606E+01 eV


------------------------------------------------------------
  End self-consistency iteration #     1       :  max(cpu_time)    wall_clock(cpu1)
  | Time for this iteration                     :        0.084 s           0.084 s
  | Charge density update                       :        0.029 s           0.029 s
  | Density mixing                              :        0.000 s           0.000 s
  | Hartree multipole update                    :        0.001 s           0.002 s
  | Hartree multipole summation                 :        0.017 s           0.017 s
  | Integration                                 :        0.032 s           0.031 s
  | Solution of K.-S. eqns.                     :        0.004 s           0.005 s
  | Total energy evaluation                     :        0.000 s           0.000 s

  Partial memory accounting:
  | Current value for overall tracked memory usage:
  |   Minimum:        0.273 MB (on task 23)
  |   Maximum:        0.292 MB (on task  0)
  |   Average:        0.287 MB
  | Peak value for overall tracked memory usage:
  |   Minimum:        1.326 MB (on task  7 after allocating wave)
  |   Maximum:        1.383 MB (on task  0 after allocating wave)
  |   Average:        1.366 MB
  | Largest tracked array allocation so far:
  |   Minimum:        0.705 MB (gradient_basis_wave on task  4)
  |   Maximum:        0.740 MB (gradient_basis_wave on task  0)
  |   Average:        0.732 MB
  Note:  These values currently only include a subset of arrays which are explicitly tracked.
  The "true" memory usage will be greater.
------------------------------------------------------------

------------------------------------------------------------
          Begin self-consistency iteration #    2

  Date     :  20220517, Time     :  112804.394
------------------------------------------------------------
  Pulay mixing of updated and previous charge densities.
  Renormalizing the density to the exact electron count on the 3D integration grid.
  | Formal number of electrons (from input files) :     120.0000000000
  | Integrated number of electrons on 3D grid     :     120.0000000000
  | Charge integration error                      :       0.0000000000
  | Normalization factor for density and gradient :       1.0000000000

  Evaluating partitioned Hartree potential by multipole expansion.
  | Original multipole sum: apparent total charge =   0.138116E-13
  | Sum of charges compensated after spline to logarithmic grids =   0.185334E-04
  | Analytical far-field extrapolation by fixed multipoles:
  | Hartree multipole sum: apparent total charge =   0.139346E-13
  Summing up the Hartree potential.
  Time summed over all CPUs for potential: real work        0.381 s, elapsed        0.397 s
  | RMS charge density error from multipole expansion :   0.145134E-01

  Integrating Hamiltonian matrix: batch-based integration.
  Time summed over all CPUs for integration: real work        0.703 s, elapsed        0.746 s

  Updating Kohn-Sham eigenvalues and eigenvectors using ELSI and the ELPA eigensolver.
  Starting ELPA eigensolver
  Finished transformation to standard eigenproblem
  | Time :     0.001 s
  Finished solving standard eigenproblem
  | Time :     0.003 s
  Finished back-transformation of eigenvectors
  | Time :     0.000 s

  Obtaining occupation numbers and chemical potential using ELSI.
  | Chemical potential (Fermi level):    -7.22727603 eV
  Highest occupied state (VBM) at     -9.97179729 eV
  | Occupation number:      2.00000000

  Lowest unoccupied state (CBM) at    -3.72792075 eV
  | Occupation number:      0.00000000

  Overall HOMO-LUMO gap:      6.24387655 eV.

  Checking to see if s.c.f. parameters should be adjusted.

  Total energy components:
  | Sum of eigenvalues            :        -887.23351370 Ha      -24142.85228267 eV
  | XC energy correction          :        -145.65601312 Ha       -3963.50177766 eV
  | XC potential correction       :         189.68253299 Ha        5161.52433801 eV
  | Free-atom electrostatic energy:        -778.30968083 Ha      -21178.88398515 eV
  | Hartree energy correction     :          -3.57235216 Ha         -97.20864819 eV
  | Entropy correction            :           0.00000000 Ha           0.00000000 eV
  | ---------------------------
  | Total energy                  :       -1625.08902682 Ha      -44220.92235566 eV
  | Total energy, T -> 0          :       -1625.08902682 Ha      -44220.92235566 eV  <-- do not rely on this value for anything but (periodic) metals
  | Electronic free energy        :       -1625.08902682 Ha      -44220.92235566 eV

  Derived energy quantities:
  | Kinetic energy                :        1632.49188902 Ha       44422.36448529 eV
  | Electrostatic energy          :       -3111.92490273 Ha      -84679.78506329 eV
  | Energy correction for multipole
  | error in Hartree potential    :           0.06701940 Ha           1.82369064 eV
  | Sum of eigenvalues per atom                           :       -2011.90435689 eV
  | Total energy (T->0) per atom                          :       -3685.07686297 eV  <-- do not rely on this value for anything but (periodic) metals
  | Electronic free energy per atom                       :       -3685.07686297 eV
  Evaluating new KS density.
  Integration grid: deviation in total charge (<rho> - N_e) =   2.842171E-14

  Self-consistency convergence accuracy:
  | Change of charge density      :  0.4238E+00
  | Change of sum of eigenvalues  : -0.7972E+02 eV
  | Change of total energy        :  0.1352E+01 eV


------------------------------------------------------------
  End self-consistency iteration #     2       :  max(cpu_time)    wall_clock(cpu1)
  | Time for this iteration                     :        0.088 s           0.087 s
  | Charge density update                       :        0.029 s           0.028 s
  | Density mixing                              :        0.005 s           0.004 s
  | Hartree multipole update                    :        0.001 s           0.002 s
  | Hartree multipole summation                 :        0.017 s           0.017 s
  | Integration                                 :        0.031 s           0.031 s
  | Solution of K.-S. eqns.                     :        0.004 s           0.004 s
  | Total energy evaluation                     :        0.000 s           0.001 s

  Partial memory accounting:
  | Current value for overall tracked memory usage:
  |   Minimum:        0.274 MB (on task 23)
  |   Maximum:        0.293 MB (on task  0)
  |   Average:        0.288 MB
  | Peak value for overall tracked memory usage:
  |   Minimum:        1.326 MB (on task  7 after allocating wave)
  |   Maximum:        1.383 MB (on task  0 after allocating wave)
  |   Average:        1.366 MB
  | Largest tracked array allocation so far:
  |   Minimum:        0.705 MB (gradient_basis_wave on task  4)
  |   Maximum:        0.740 MB (gradient_basis_wave on task  0)
  |   Average:        0.732 MB
  Note:  These values currently only include a subset of arrays which are explicitly tracked.
  The "true" memory usage will be greater.
------------------------------------------------------------

------------------------------------------------------------
          Begin self-consistency iteration #    3

  Date     :  20220517, Time     :  112804.487
------------------------------------------------------------
  Pulay mixing of updated and previous charge densities.
  Renormalizing the density to the exact electron count on the 3D integration grid.
  | Formal number of electrons (from input files) :     120.0000000000
  | Integrated number of electrons on 3D grid     :     120.0000000000
  | Charge integration error                      :       0.0000000000
  | Normalization factor for density and gradient :       1.0000000000

  Evaluating partitioned Hartree potential by multipole expansion.
  | Original multipole sum: apparent total charge =   0.581122E-13
  | Sum of charges compensated after spline to logarithmic grids =   0.176309E-04
  | Analytical far-field extrapolation by fixed multipoles:
  | Hartree multipole sum: apparent total charge =   0.572635E-13
  Summing up the Hartree potential.
  Time summed over all CPUs for potential: real work        0.381 s, elapsed        0.397 s
  | RMS charge density error from multipole expansion :   0.194452E-01

  Integrating Hamiltonian matrix: batch-based integration.
  Time summed over all CPUs for integration: real work        0.703 s, elapsed        0.746 s

  Updating Kohn-Sham eigenvalues and eigenvectors using ELSI and the ELPA eigensolver.
  Starting ELPA eigensolver
  Finished transformation to standard eigenproblem
  | Time :     0.000 s
  Finished solving standard eigenproblem
  | Time :     0.004 s
  Finished back-transformation of eigenvectors
  | Time :     0.000 s

  Obtaining occupation numbers and chemical potential using ELSI.
  | Chemical potential (Fermi level):    -7.30524199 eV
  Highest occupied state (VBM) at     -9.78107846 eV
  | Occupation number:      2.00000000

  Lowest unoccupied state (CBM) at    -3.96433702 eV
  | Occupation number:      0.00000000

  Overall HOMO-LUMO gap:      5.81674144 eV.

  Total energy components:
  | Sum of eigenvalues            :        -888.00807371 Ha      -24163.92913281 eV
  | XC energy correction          :        -145.65031308 Ha       -3963.34667175 eV
  | XC potential correction       :         189.67357217 Ha        5161.28050169 eV
  | Free-atom electrostatic energy:        -778.30968083 Ha      -21178.88398515 eV
  | Hartree energy correction     :          -2.79278402 Ha         -75.99551989 eV
  | Entropy correction            :           0.00000000 Ha           0.00000000 eV
  | ---------------------------
  | Total energy                  :       -1625.08727948 Ha      -44220.87480790 eV
  | Total energy, T -> 0          :       -1625.08727948 Ha      -44220.87480790 eV  <-- do not rely on this value for anything but (periodic) metals
  | Electronic free energy        :       -1625.08727948 Ha      -44220.87480790 eV

  Derived energy quantities:
  | Kinetic energy                :        1631.09093245 Ha       44384.24251729 eV
  | Electrostatic energy          :       -3110.52789884 Ha      -84641.77065344 eV
  | Energy correction for multipole
  | error in Hartree potential    :           0.08576334 Ha           2.33373916 eV
  | Sum of eigenvalues per atom                           :       -2013.66076107 eV
  | Total energy (T->0) per atom                          :       -3685.07290066 eV  <-- do not rely on this value for anything but (periodic) metals
  | Electronic free energy per atom                       :       -3685.07290066 eV
  Evaluating new KS density.
  Integration grid: deviation in total charge (<rho> - N_e) =   1.421085E-14

  Self-consistency convergence accuracy:
  | Change of charge density      :  0.1097E+00
  | Change of sum of eigenvalues  : -0.2108E+02 eV
  | Change of total energy        :  0.4755E-01 eV


------------------------------------------------------------
  End self-consistency iteration #     3       :  max(cpu_time)    wall_clock(cpu1)
  | Time for this iteration                     :        0.087 s           0.085 s
  | Charge density update                       :        0.028 s           0.029 s
  | Density mixing                              :        0.004 s           0.002 s
  | Hartree multipole update                    :        0.001 s           0.001 s
  | Hartree multipole summation                 :        0.017 s           0.016 s
  | Integration                                 :        0.031 s           0.032 s
  | Solution of K.-S. eqns.                     :        0.004 s           0.004 s
  | Total energy evaluation                     :        0.000 s           0.000 s

  Partial memory accounting:
  | Current value for overall tracked memory usage:
  |   Minimum:        0.274 MB (on task 23)
  |   Maximum:        0.293 MB (on task  0)
  |   Average:        0.288 MB
  | Peak value for overall tracked memory usage:
  |   Minimum:        1.326 MB (on task  7 after allocating wave)
  |   Maximum:        1.383 MB (on task  0 after allocating wave)
  |   Average:        1.366 MB
  | Largest tracked array allocation so far:
  |   Minimum:        0.705 MB (gradient_basis_wave on task  4)
  |   Maximum:        0.740 MB (gradient_basis_wave on task  0)
  |   Average:        0.732 MB
  Note:  These values currently only include a subset of arrays which are explicitly tracked.
  The "true" memory usage will be greater.
------------------------------------------------------------

------------------------------------------------------------
          Begin self-consistency iteration #    4

  Date     :  20220517, Time     :  112804.579
------------------------------------------------------------
  Pulay mixing of updated and previous charge densities.
  Renormalizing the density to the exact electron count on the 3D integration grid.
  | Formal number of electrons (from input files) :     120.0000000000
  | Integrated number of electrons on 3D grid     :     120.0000000000
  | Charge integration error                      :      -0.0000000000
  | Normalization factor for density and gradient :       1.0000000000

  Evaluating partitioned Hartree potential by multipole expansion.
  | Original multipole sum: apparent total charge =  -0.228759E-14
  | Sum of charges compensated after spline to logarithmic grids =   0.166823E-04
  | Analytical far-field extrapolation by fixed multipoles:
  | Hartree multipole sum: apparent total charge =  -0.173414E-14
  Summing up the Hartree potential.
  Time summed over all CPUs for potential: real work        0.381 s, elapsed        0.397 s
  | RMS charge density error from multipole expansion :   0.217840E-01

  Integrating Hamiltonian matrix: batch-based integration.
  Time summed over all CPUs for integration: real work        0.703 s, elapsed        0.747 s

  Updating Kohn-Sham eigenvalues and eigenvectors using ELSI and the ELPA eigensolver.
  Starting ELPA eigensolver
  Finished transformation to standard eigenproblem
  | Time :     0.000 s
  Finished solving standard eigenproblem
  | Time :     0.003 s
  Finished back-transformation of eigenvectors
  | Time :     0.000 s

  Obtaining occupation numbers and chemical potential using ELSI.
  | Chemical potential (Fermi level):    -7.30186708 eV
  Highest occupied state (VBM) at     -9.84206599 eV
  | Occupation number:      2.00000000

  Lowest unoccupied state (CBM) at    -3.92777237 eV
  | Occupation number:      0.00000000

  Overall HOMO-LUMO gap:      5.91429363 eV.

  Total energy components:
  | Sum of eigenvalues            :        -888.15119067 Ha      -24167.82354353 eV
  | XC energy correction          :        -145.63506001 Ha       -3962.93161473 eV
  | XC potential correction       :         189.65270536 Ha        5160.71268710 eV
  | Free-atom electrostatic energy:        -778.30968083 Ha      -21178.88398515 eV
  | Hartree energy correction     :          -2.64292728 Ha         -71.91771040 eV
  | Entropy correction            :           0.00000000 Ha           0.00000000 eV
  | ---------------------------
  | Total energy                  :       -1625.08615343 Ha      -44220.84416670 eV
  | Total energy, T -> 0          :       -1625.08615343 Ha      -44220.84416670 eV  <-- do not rely on this value for anything but (periodic) metals
  | Electronic free energy        :       -1625.08615343 Ha      -44220.84416670 eV

  Derived energy quantities:
  | Kinetic energy                :        1630.39527642 Ha       44365.31275357 eV
  | Electrostatic energy          :       -3109.84636984 Ha      -84623.22530554 eV
  | Energy correction for multipole
  | error in Hartree potential    :           0.09403360 Ha           2.55878450 eV
  | Sum of eigenvalues per atom                           :       -2013.98529529 eV
  | Total energy (T->0) per atom                          :       -3685.07034723 eV  <-- do not rely on this value for anything but (periodic) metals
  | Electronic free energy per atom                       :       -3685.07034723 eV
  Evaluating new KS density.
  Integration grid: deviation in total charge (<rho> - N_e) =   1.421085E-14

  Self-consistency convergence accuracy:
  | Change of charge density      :  0.6608E-01
  | Change of sum of eigenvalues  : -0.3894E+01 eV
  | Change of total energy        :  0.3064E-01 eV


------------------------------------------------------------
  End self-consistency iteration #     4       :  max(cpu_time)    wall_clock(cpu1)
  | Time for this iteration                     :        0.086 s           0.084 s
  | Charge density update                       :        0.029 s           0.029 s
  | Density mixing                              :        0.004 s           0.001 s
  | Hartree multipole update                    :        0.001 s           0.001 s
  | Hartree multipole summation                 :        0.017 s           0.017 s
  | Integration                                 :        0.032 s           0.031 s
  | Solution of K.-S. eqns.                     :        0.004 s           0.005 s
  | Total energy evaluation                     :        0.000 s           0.000 s

  Partial memory accounting:
  | Current value for overall tracked memory usage:
  |   Minimum:        0.274 MB (on task 23)
  |   Maximum:        0.293 MB (on task  0)
  |   Average:        0.288 MB
  | Peak value for overall tracked memory usage:
  |   Minimum:        1.326 MB (on task  7 after allocating wave)
  |   Maximum:        1.383 MB (on task  0 after allocating wave)
  |   Average:        1.366 MB
  | Largest tracked array allocation so far:
  |   Minimum:        0.705 MB (gradient_basis_wave on task  4)
  |   Maximum:        0.740 MB (gradient_basis_wave on task  0)
  |   Average:        0.732 MB
  Note:  These values currently only include a subset of arrays which are explicitly tracked.
  The "true" memory usage will be greater.
------------------------------------------------------------

------------------------------------------------------------
          Begin self-consistency iteration #    5

  Date     :  20220517, Time     :  112804.669
------------------------------------------------------------
  Pulay mixing of updated and previous charge densities.
  Renormalizing the density to the exact electron count on the 3D integration grid.
  | Formal number of electrons (from input files) :     120.0000000000
  | Integrated number of electrons on 3D grid     :     120.0000000000
  | Charge integration error                      :       0.0000000000
  | Normalization factor for density and gradient :       1.0000000000

  Evaluating partitioned Hartree potential by multipole expansion.
  | Original multipole sum: apparent total charge =  -0.483346E-14
  | Sum of charges compensated after spline to logarithmic grids =   0.177290E-04
  | Analytical far-field extrapolation by fixed multipoles:
  | Hartree multipole sum: apparent total charge =  -0.350518E-14
  Summing up the Hartree potential.
  Time summed over all CPUs for potential: real work        0.381 s, elapsed        0.397 s
  | RMS charge density error from multipole expansion :   0.216010E-01

  Integrating Hamiltonian matrix: batch-based integration.
  Time summed over all CPUs for integration: real work        0.704 s, elapsed        0.747 s

  Updating Kohn-Sham eigenvalues and eigenvectors using ELSI and the ELPA eigensolver.
  Starting ELPA eigensolver
  Finished transformation to standard eigenproblem
  | Time :     0.001 s
  Finished solving standard eigenproblem
  | Time :     0.003 s
  Finished back-transformation of eigenvectors
  | Time :     0.000 s

  Obtaining occupation numbers and chemical potential using ELSI.
  | Chemical potential (Fermi level):    -7.27471346 eV
  Highest occupied state (VBM) at     -9.86458039 eV
  | Occupation number:      2.00000000

  Lowest unoccupied state (CBM) at    -3.87476541 eV
  | Occupation number:      0.00000000

  Overall HOMO-LUMO gap:      5.98981498 eV.

  Total energy components:
  | Sum of eigenvalues            :        -888.01245476 Ha      -24164.04834724 eV
  | XC energy correction          :        -145.63007986 Ha       -3962.79609797 eV
  | XC potential correction       :         189.64631283 Ha        5160.53873756 eV
  | Free-atom electrostatic energy:        -778.30968083 Ha      -21178.88398515 eV
  | Hartree energy correction     :          -2.78017216 Ha         -75.65233362 eV
  | Entropy correction            :           0.00000000 Ha           0.00000000 eV
[...]
   Total forces(   7)            :  0.790312E+00  0.140598E+01  0.404446E+00
  atom #    8
   Hellmann-Feynman              : -0.949378E-02 -0.799680E+00  0.823887E+00
   Ionic forces                  :  0.000000E+00  0.000000E+00  0.000000E+00
   Multipole                     :  0.520142E+00 -0.107883E+00  0.452669E+00
   Hartree pot. SCF incomplete   : -0.140208E-05  0.125914E-05 -0.137884E-05
   Pulay + GGA                   :  0.280183E+00  0.480397E+00  0.229167E+00
   ----------------------------------------------------------------
   Total forces(   8)            :  0.790830E+00 -0.427165E+00  0.150572E+01
  atom #    9
   Hellmann-Feynman              :  0.932789E-01  0.125786E+01 -0.710270E+00
   Ionic forces                  :  0.000000E+00  0.000000E+00  0.000000E+00
   Multipole                     :  0.974882E-01  0.140096E+00 -0.691859E+00
   Hartree pot. SCF incomplete   : -0.400456E-06  0.691828E-07  0.294074E-05
   Pulay + GGA                   :  0.806700E-01 -0.453745E+00 -0.546447E+00
   ----------------------------------------------------------------
   Total forces(   9)            :  0.271437E+00  0.944208E+00 -0.194857E+01
  atom #   10
   Hellmann-Feynman              : -0.663069E+00 -0.125937E+01  0.465806E+01
   Ionic forces                  :  0.000000E+00  0.000000E+00  0.000000E+00
   Multipole                     : -0.997812E-01 -0.129240E+00  0.696438E+00
   Hartree pot. SCF incomplete   :  0.633054E-06  0.168016E-05 -0.453547E-05
   Pulay + GGA                   :  0.973957E+00  0.140504E+01 -0.680439E+01
   ----------------------------------------------------------------
   Total forces(  10)            :  0.211108E+00  0.164286E-01 -0.144990E+01
  atom #   11
   Hellmann-Feynman              :  0.151933E+00  0.379627E+01 -0.137260E+01
   Ionic forces                  :  0.000000E+00  0.000000E+00  0.000000E+00
   Multipole                     :  0.871950E-02  0.719120E+00 -0.122966E+00
   Hartree pot. SCF incomplete   :  0.469643E-06 -0.562387E-05 -0.276421E-05
   Pulay + GGA                   : -0.116170E+00 -0.655393E+01  0.137417E+01
   ----------------------------------------------------------------
   Total forces(  11)            :  0.444837E-01 -0.203854E+01 -0.121398E+00
  atom #   12
   Hellmann-Feynman              : -0.205952E+00 -0.802247E+00  0.801457E+00
   Ionic forces                  :  0.000000E+00  0.000000E+00  0.000000E+00
   Multipole                     : -0.625485E+00 -0.123398E+00  0.284183E+00
   Hartree pot. SCF incomplete   :  0.168805E-05  0.131478E-05 -0.881867E-06
   Pulay + GGA                   : -0.344293E+00  0.472613E+00  0.134694E+00
   ----------------------------------------------------------------
   Total forces(  12)            : -0.117573E+01 -0.453031E+00  0.122033E+01


  Self-consistency convergence accuracy:
  | Change of charge density      :  0.5606E-06
  | Change of sum of eigenvalues  : -0.8142E-04 eV
  | Change of total energy        :  0.3650E-07 eV
  | Change of forces              :  0.9414E-06 eV/A

  Writing Kohn-Sham eigenvalues.

  State    Occupation    Eigenvalue [Ha]    Eigenvalue [eV]
      1       2.00000         -55.598133        -1512.90218
      2       2.00000         -55.589247        -1512.66037
      3       2.00000         -55.589241        -1512.66020
      4       2.00000         -24.372016         -663.19630
      5       2.00000         -24.365720         -663.02498
      6       2.00000         -24.365709         -663.02468
      7       2.00000         -24.218069         -659.00719
      8       2.00000         -24.213051         -658.87063
      9       2.00000         -24.208787         -658.75461
     10       2.00000         -24.208782         -658.75448
     11       2.00000         -24.207294         -658.71398
     12       2.00000         -24.207283         -658.71370
     13       2.00000          -4.066133         -110.64512
     14       2.00000          -4.059315         -110.45958
     15       2.00000          -4.059301         -110.45921
     16       2.00000          -2.659874          -72.37886
     17       2.00000          -2.657975          -72.32719
     18       2.00000          -2.654117          -72.22220
     19       2.00000          -2.653388          -72.20235
     20       2.00000          -2.653240          -72.19835
     21       2.00000          -2.651124          -72.14076
     22       2.00000          -2.650942          -72.13581
     23       2.00000          -2.646966          -72.02761
     24       2.00000          -2.646946          -72.02707
     25       2.00000          -1.295518          -35.25283
     26       2.00000          -1.279270          -34.81070
     27       2.00000          -1.274451          -34.67958
     28       2.00000          -1.080235          -29.39470
     29       2.00000          -1.074351          -29.23457
     30       2.00000          -1.073873          -29.22157
     31       2.00000          -1.073753          -29.21830
     32       2.00000          -1.067182          -29.03951
     33       2.00000          -1.067177          -29.03936
     34       2.00000          -0.671313          -18.26737
     35       2.00000          -0.661049          -17.98807
     36       2.00000          -0.637195          -17.33895
     37       2.00000          -0.630031          -17.14401
     38       2.00000          -0.584523          -15.90568
     39       2.00000          -0.567656          -15.44670
     40       2.00000          -0.567249          -15.43562
     41       2.00000          -0.562609          -15.30937
     42       2.00000          -0.554667          -15.09326
     43       2.00000          -0.447591          -12.17957
     44       2.00000          -0.439160          -11.95015
     45       2.00000          -0.436516          -11.87820
     46       2.00000          -0.418759          -11.39501
     47       2.00000          -0.412743          -11.23130
     48       2.00000          -0.410161          -11.16105
     49       2.00000          -0.391077          -10.64175
     50       2.00000          -0.386570          -10.51909
     51       2.00000          -0.385594          -10.49256
     52       2.00000          -0.381814          -10.38968
     53       2.00000          -0.380136          -10.34403
     54       2.00000          -0.377906          -10.28334
     55       2.00000          -0.376299          -10.23962
     56       2.00000          -0.370525          -10.08250
     57       2.00000          -0.369857          -10.06433
     58       2.00000          -0.369332          -10.05003
     59       2.00000          -0.362827           -9.87302
     60       2.00000          -0.361957           -9.84935
     61       0.00000          -0.142565           -3.87938
     62       0.00000          -0.046004           -1.25183
     63       0.00000          -0.039998           -1.08839
     64       0.00000          -0.035677           -0.97083
     65       0.00000          -0.012028           -0.32730
     66       0.00000           0.022860            0.62204
     67       0.00000           0.023243            0.63248
     68       0.00000           0.045882            1.24850
     69       0.00000           0.046646            1.26930
     70       0.00000           0.066511            1.80985
     71       0.00000           0.092087            2.50583
     72       0.00000           0.099153            2.69808
     73       0.00000           0.141641            3.85424
     74       0.00000           0.149855            4.07777
     75       0.00000           0.179949            4.89667
     76       0.00000           0.187178            5.09337
     77       0.00000           0.190405            5.18119
     78       0.00000           0.195103            5.30901
     79       0.00000           0.199050            5.41643
     80       0.00000           0.205832            5.60098
     81       0.00000           0.208553            5.67501
     82       0.00000           0.212680            5.78733
     83       0.00000           0.221483            6.02687
     84       0.00000           0.230135            6.26229
     85       0.00000           0.241117            6.56114
     86       0.00000           0.258652            7.03827
     87       0.00000           0.290372            7.90142
     88       0.00000           0.300634            8.18066
     89       0.00000           0.306309            8.33510
     90       0.00000           0.319840            8.70328
     91       0.00000           0.325379            8.85401
     92       0.00000           0.329840            8.97542
     93       0.00000           0.359800            9.79067
     94       0.00000           0.365153            9.93631
     95       0.00000           0.374880           10.20100
     96       0.00000           0.388717           10.57754

  Highest occupied state (VBM) at     -9.84935361 eV
  | Occupation number:      2.00000000

  Lowest unoccupied state (CBM) at    -3.87938384 eV
  | Occupation number:      0.00000000

  Overall HOMO-LUMO gap:      5.96996977 eV.
  | Chemical Potential                          :    -7.27573672 eV

  Self-consistency cycle converged.


------------------------------------------------------------
  End self-consistency iteration #    13       :  max(cpu_time)    wall_clock(cpu1)
  | Time for this iteration                     :        0.275 s           0.272 s
  | Charge density & force component update     :        0.153 s           0.153 s
  | Density mixing                              :        0.005 s           0.002 s
  | Hartree multipole update                    :        0.001 s           0.001 s
  | Hartree multipole summation                 :        0.049 s           0.049 s
  | Hartree pot. SCF incomplete forces          :        0.031 s           0.031 s
  | Integration                                 :        0.031 s           0.031 s
  | Solution of K.-S. eqns.                     :        0.004 s           0.004 s
  | Total energy evaluation                     :        0.000 s           0.000 s

  Partial memory accounting:
  | Current value for overall tracked memory usage:
  |   Minimum:        0.274 MB (on task 23)
  |   Maximum:        0.293 MB (on task  0)
  |   Average:        0.289 MB
  | Peak value for overall tracked memory usage:
  |   Minimum:        2.903 MB (on task  4 after allocating hessian_basis_wave)
  |   Maximum:        3.018 MB (on task  0 after allocating hessian_basis_wave)
  |   Average:        2.987 MB
  | Largest tracked array allocation so far:
  |   Minimum:        1.410 MB (hessian_basis_wave on task  4)
  |   Maximum:        1.479 MB (hessian_basis_wave on task  0)
  |   Average:        1.464 MB
  Note:  These values currently only include a subset of arrays which are explicitly tracked.
  The "true" memory usage will be greater.
------------------------------------------------------------
  Removing unitary transformations (pure translations, rotations) from forces on atoms.
  Atomic forces before filtering:
  | Net force on center of mass :   0.269197E-02  0.130605E-02  0.627996E-02 eV/A
  | Net torque on center of mass:   0.106299E-01  0.653093E-02 -0.833945E-03 eV
  Atomic forces after filtering:
  | Net force on center of mass :   0.356812E-15  0.892031E-15  0.892031E-15 eV/A
  | Net torque on center of mass:   0.519247E-15  0.113290E-14  0.982438E-15 eV

  Energy and forces in a compact form:
  | Total energy uncorrected      :         -0.442208417698890E+05 eV
  | Total energy corrected        :         -0.442208417698890E+05 eV  <-- do not rely on this value for anything but (periodic) metals
  | Electronic free energy        :         -0.442208417698890E+05 eV
  Total atomic forces (unitary forces cleaned) [eV/Ang]:
  |    1         -0.820411350127519E+00          0.465027440672543E+01          0.522110205955609E+01
  |    2          0.727564191173233E+01         -0.204026635918323E+01         -0.221874074295000E+01
  |    3         -0.628514401450967E+01         -0.221367300760635E+01         -0.419183316568219E+01
  |    4         -0.124778665595211E+01         -0.630350835576447E+00          0.545208606552311E+00
  |    5          0.105552144716192E+01         -0.599625246552254E+00          0.879891053390681E+00
  |    6         -0.908509164687711E+00          0.138550101778563E+01          0.157309957745606E+00
  |    7          0.790215863377826E+00          0.140557905693181E+01          0.404234867197015E+00
  |    8          0.790484835882993E+00         -0.427008741499806E+00          0.150533347306530E+01
  |    9          0.271378075151578E+00          0.943730290282400E+00         -0.194903035900606E+01
  |   10          0.210511725294712E+00          0.171468365315338E-01         -0.145055458378431E+01
  |   11          0.441263475869874E-01         -0.203833898121293E+01         -0.122563907309977E+00
  |   12         -0.117602902091134E+01         -0.452968436625789E+00          0.121964274122554E+01

  ------------------------------------ 
  Start decomposition of the XC Energy 
  ------------------------------------ 
  X and C from original XC functional choice 
  Hartree-Fock Energy :          0.000000000 Ha              0.000000000 eV
  X Energy            :       -140.655521889 Ha          -3827.431488181 eV
  C Energy            :         -4.977577015 Ha           -135.446762035 eV
  Total XC Energy     :       -145.633098904 Ha          -3962.878250216 eV
  ------------------------------------ 
  LDA X and C from self-consistent density 
  X Energy LDA        :       -133.259581804 Ha          -3626.177718789 eV
  C Energy LDA        :         -8.850281874 Ha           -240.828423000 eV
  ------------------------------------ 
  End decomposition of the XC Energy 
  ------------------------------------ 

------------------------------------------------------------

------------------------------------------------------------------------------
  Final output of selected total energy values:

  The following output summarizes some interesting total energy values
  at the end of a run (AFTER all relaxation, molecular dynamics, etc.).

  | Total energy of the DFT / Hartree-Fock s.c.f. calculation      :         -44220.841769889 eV
  | Final zero-broadening corrected energy (caution - metals only) :         -44220.841769889 eV
  | For reference only, the value of 1 Hartree used in FHI-aims is :             27.211384500 eV

  Before relying on these values, please be sure to understand exactly which
  total energy value is referred to by a given number. Different objects may
  all carry the same name 'total energy'. Definitions:

  Total energy of the DFT / Hartree-Fock s.c.f. calculation:
  | Note that this energy does not include ANY quantities calculated after the
  | s.c.f. cycle, in particular not ANY RPA, MP2, etc. many-body perturbation terms.

  Final zero-broadening corrected energy:
  | For metallic systems only, a broadening of the occupation numbers at the Fermi
  | level can be extrapolated back to zero broadening by an electron-gas inspired
  | formula. For all systems that are not real metals, this value can be
  | meaningless and should be avoided.

------------------------------------------------------------------------------
  Methods described in the following list of references were used in this FHI-aims run.
  If you publish the results, please make sure to cite these reference if they apply.
  FHI-aims is an academic code, and for our developers (often, Ph.D. students
  and postdocs), scientific credit in the community is essential.
  Thank you for helping us!

  For any use of FHI-aims, please cite:

    Volker Blum, Ralf Gehrke, Felix Hanke, Paula Havu, Ville Havu,
    Xinguo Ren, Karsten Reuter, and Matthias Scheffler
    'Ab initio molecular simulations with numeric atom-centered orbitals'
    Computer Physics Communications 180, 2175-2196 (2009)
    http://dx.doi.org/10.1016/j.cpc.2009.06.022


  The ELSI infrastructure was used in your run to solve the Kohn-Sham electronic structure.
  Please check out http://elsi-interchange.org to learn more.
  If scalability is important for your project, please acknowledge ELSI by citing:

    V. W-z. Yu, F. Corsetti, A. Garcia, W. P. Huhn, M. Jacquelin, W. Jia,
    B. Lange, L. Lin, J. Lu, W. Mi, A. Seifitokaldani, A. Vazquez-Mayagoitia,
    C. Yang, H. Yang, and V. Blum
    'ELSI: A unified software interface for Kohn-Sham electronic structure solvers'
    Computer Physics Communications 222, 267-285 (2018).
    http://dx.doi.org/10.1016/j.cpc.2017.09.007


  For the real-space grid partitioning and parallelization used in this calculation, please cite:

    Ville Havu, Volker Blum, Paula Havu, and Matthias Scheffler,
    'Efficient O(N) integration for all-electron electronic structure calculation'
    'using numerically tabulated basis functions'
    Journal of Computational Physics 228, 8367-8379 (2009).
    http://dx.doi.org/10.1016/j.jcp.2009.08.008

  Of course, there are many other important community references, e.g., those cited in the
  above references. Our list is limited to references that describe implementations in the
  FHI-aims code. The reason is purely practical (length of this list) - please credit others as well.

------------------------------------------------------------
          Leaving FHI-aims.
          Date     :  20220517, Time     :  112805.875

          Computational steps:
          | Number of self-consistency cycles          :           13
          | Number of SCF (re)initializations          :            1

          Detailed time accounting                     :  max(cpu_time)    wall_clock(cpu1)
          | Total time                                  :        1.884 s           1.945 s
          | Preparation time                            :        0.184 s           0.184 s
          | Boundary condition initalization            :        0.000 s           0.000 s
          | Grid partitioning                           :        0.036 s           0.036 s
          | Preloading free-atom quantities on grid     :        0.016 s           0.017 s
          | Free-atom superposition energy              :        0.005 s           0.005 s
          | Total time for integrations                 :        0.457 s           0.453 s
          | Total time for solution of K.-S. equations  :        0.065 s           0.065 s
          | Total time for density & force components   :        0.651 s           0.653 s
          | Total time for mixing                       :        0.054 s           0.025 s
          | Total time for Hartree multipole update     :        0.017 s           0.020 s
          | Total time for Hartree multipole sum        :        0.284 s           0.285 s
          | Total time for total energy evaluation      :        0.002 s           0.003 s
          | Total time NSC force correction             :        0.061 s           0.062 s
          | Total time for scaled ZORA corrections      :        0.000 s           0.000 s

          Partial memory accounting:
          | Residual value for overall tracked memory usage across tasks:     0.000000 MB (should be 0.000000 MB)
          | Peak values for overall tracked memory usage:
          |   Minimum:        2.903 MB (on task  4 after allocating hessian_basis_wave)
          |   Maximum:        3.018 MB (on task  0 after allocating hessian_basis_wave)
          |   Average:        2.987 MB
          | Largest tracked array allocation:
          |   Minimum:        1.410 MB (hessian_basis_wave on task  4)
          |   Maximum:        1.479 MB (hessian_basis_wave on task  0)
          |   Average:        1.464 MB
          Note:  These values currently only include a subset of arrays which are explicitly tracked.
          The "true" memory usage will be greater.

          Have a nice day.
------------------------------------------------------------
