------------------------------------------------------------
          Invoking FHI-aims ...

          When using FHI-aims, please cite the following reference:

            Volker Blum, Ralf Gehrke, Felix Hanke, Paula Havu,
            Ville Havu, Xinguo Ren, Karsten Reuter, and Matthias Scheffler,
            'Ab Initio Molecular Simulations with Numeric Atom-Centered Orbitals',
            Computer Physics Communications 180, 2175-2196 (2009)

          In addition, many other developments in FHI-aims are likely important for
          your particular application. A partial list of references is given at the end of
          this file. Thank you for giving credit to the authors of these developments.

          For any questions about FHI-aims, please visit our slack channel at

            https://fhi-aims.slack.com

          and our main development and support site at

            https://aims-git.rz-berlin.mpg.de .

          The latter site, in particular, has a wiki to collect information, as well
          as an issue tracker to log discussions, suggest improvements, and report issues
          or bugs. https://aims-git.rz-berlin.mpg.de is also the main development site
          of the project and all new and updated code versions can be obtained there.
          Please send an email to aims-coordinators@fhi-berlin.mpg.de and we will add
          you to these sites. They are for you and everyone is welcome there.

------------------------------------------------------------



  Date     :  20220517, Time     :  113429.393
  Time zero on CPU 1             :   0.432760000000000E-01  s.
  Internal wall clock time zero  :           422019269.393  s.

  FHI-aims created a unique identifier for this run for later identification
  aims_uuid : 87CB970F-A01B-4796-A67D-8A4B2BB8CB78

  Build configuration of the current instance of FHI-aims
  -------------------------------------------------------
  FHI-aims version      : 210914
  Commit number         : GITDIR-NOTFOUND
  CMake host system     : Linux-3.10.0-693.17.1.el7.x86_64
  CMake version         : 3.21.1
  Fortran compiler      : /shared/ucl/apps/intel/2018.Update3/impi/2018.3.222/intel64/bin/mpiifort (Intel) version 18.0.3.20180410
  Fortran compiler flags: -O3 -ip -fp-model precise
  C compiler            : /shared/ucl/apps/intel/2018.Update3/compilers_and_libraries_2018.3.222/linux/bin/intel64/icc (Intel) version 18.0.3.20180410
  C compiler flags      : -O3 -ip -fp-model precise -std=gnu99
  ELPA2 kernel          : AVX2
  Using MPI
  Using ScaLAPACK
  Using LibXC
  Using i-PI
  Using RLSY
  Linking against: /shared/ucl/apps/intel/2019.Update5/compilers_and_libraries_2019.5.281/linux/mkl/lib/intel64/libmkl_intel_lp64.so
                   /shared/ucl/apps/intel/2019.Update5/compilers_and_libraries_2019.5.281/linux/mkl/lib/intel64/libmkl_sequential.so
                   /shared/ucl/apps/intel/2019.Update5/compilers_and_libraries_2019.5.281/linux/mkl/lib/intel64/libmkl_core.so
                   /shared/ucl/apps/intel/2019.Update5/compilers_and_libraries_2019.5.281/linux/mkl/lib/intel64/libmkl_blacs_intelmpi_lp64.so
                   /shared/ucl/apps/intel/2019.Update5/compilers_and_libraries_2019.5.281/linux/mkl/lib/intel64/libmkl_scalapack_lp64.so

  Using       24 parallel tasks.
  Task        0 on host node-k98a-011 reporting.
  Task        1 on host node-k98a-011 reporting.
  Task        2 on host node-k98a-011 reporting.
  Task        3 on host node-k98a-011 reporting.
  Task        4 on host node-k98a-011 reporting.
  Task        5 on host node-k98a-011 reporting.
  Task        6 on host node-k98a-011 reporting.
  Task        7 on host node-k98a-011 reporting.
  Task        8 on host node-k98a-011 reporting.
  Task        9 on host node-k98a-011 reporting.
  Task       10 on host node-k98a-011 reporting.
  Task       11 on host node-k98a-011 reporting.
  Task       12 on host node-k98a-011 reporting.
  Task       13 on host node-k98a-011 reporting.
  Task       14 on host node-k98a-011 reporting.
  Task       15 on host node-k98a-011 reporting.
  Task       16 on host node-k98a-011 reporting.
  Task       17 on host node-k98a-011 reporting.
  Task       18 on host node-k98a-011 reporting.
  Task       19 on host node-k98a-011 reporting.
  Task       20 on host node-k98a-011 reporting.
  Task       21 on host node-k98a-011 reporting.
  Task       22 on host node-k98a-011 reporting.
  Task       23 on host node-k98a-011 reporting.

  Performing system and environment tests:
  | Environment variable OMP_NUM_THREADS correctly set to 1.
  | Checking for ScaLAPACK...
  | Testing pdtran()...
  | All pdtran() tests passed.

  Obtaining array dimensions for all initial allocations:
  
  -----------------------------------------------------------------------
  Parsing control.in (first pass over file, find array dimensions only).
  The contents of control.in will be repeated verbatim below
  unless switched off by setting 'verbatim_writeout .false.' .
  in the first line of control.in .
  -----------------------------------------------------------------------
  
  #########################################################################################  Physical model
  #########################################################################################
  xc                 pbesol
  spin               none
  relativistic       atomic_zora scalar
  charge             0.0
  #  SCF convergence
  occupation_type    gaussian 0.01
  mixer              pulay
  n_max_pulay        10
  charge_mix_param   0.5
  sc_accuracy_rho    1E-5
  sc_accuracy_eev    1E-3
  sc_accuracy_etot   1E-6
  sc_accuracy_forces 1E-4
  sc_iter_limit      1500
  #  Relaxation
  #relax_geometry   bfgs 1.e-3
  
  ################################################################################
  #
  #  FHI-aims code project
  #  VB, Fritz-Haber Institut, 2009
  #
  #  Suggested "light" defaults for Al atom (to be pasted into control.in file)
  #  Be sure to double-check any results obtained with these settings for post-processing,
  #  e.g., with the "tight" defaults and larger basis sets.
  #
  ################################################################################
    species        Al
  #     global species definitions
      nucleus             13
      mass                26.9815386
  #
      l_hartree           4
  #
      cut_pot             3.5          1.5  1.0
      basis_dep_cutoff    1e-4
  #
      radial_base         41 5.0
      radial_multiplier   1
      angular_grids       specified
        division   0.6594  110
        division   0.8170  194
        division   0.9059  302
  #      division   1.0363  434
  #      division   1.1443  590
  #      division   1.2621  770
  #      division   2.8177  974
  #      outer_grid   974
        outer_grid   302
  ################################################################################
  #
  #  Definition of "minimal" basis
  #
  ################################################################################
  #     valence basis states
      valence      3  s   2.
      valence      3  p   1.
  #     ion occupancy
      ion_occ      3  s   1.
      ion_occ      2  p   6.
  ################################################################################
  #
  #  Suggested additional basis functions. For production calculations,
  #  uncomment them one after another (the most important basis functions are
  #  listed first).
  #
  #  Constructed for dimers: 2.0 A, 2.5 A, 3.0 A, 3.75 A, 4.5 A
  #
  ################################################################################
  #  "First tier" - improvements: -199.47 meV to -10.63 meV
       ionic 3 d auto
       ionic 3 p auto
  #     hydro 4 f 4.7
       ionic 3 s auto
  #  "Second tier" - improvements: -5.35 meV to -1.57 meV
  #     hydro 5 g 7
  #     hydro 3 d 6
  #     hydro 2 s 11.6
  #     hydro 2 p 0.9
  #  "Third tier" - improvements: -0.63 meV to -0.20 meV
  #     hydro 5 f 7.6
  #     hydro 4 p 7.2
  #     hydro 4 s 3.7
  #     hydro 4 d 7.6
  #  "Fourth tier" - improvements: -0.17 meV to -0.08 meV
  #     hydro 4 d 13.6
  #     hydro 5 g 11.2
  #     hydro 4 d 0.9
  #     hydro 1 s 0.4
  #     hydro 4 p 0.1
  #     hydro 5 f 9.8
  #  Further basis functions that fell out of the optimization - noise level...
  #     hydro 4 p 5
  
  ################################################################################
  #
  #  FHI-aims code project
  #  VB, Fritz-Haber Institut, 2009
  #
  #  Suggested "light" defaults for F atom (to be pasted into control.in file)
  #  Be sure to double-check any results obtained with these settings for post-processing,
  #  e.g., with the "tight" defaults and larger basis sets.
  #
  ################################################################################
    species        F
  #     global species definitions
      nucleus             9
      mass                18.9984032
  #
      l_hartree           4
  #
      cut_pot             3.5  1.5  1.0
      basis_dep_cutoff    1e-4
  #
      radial_base         37 5.0
      radial_multiplier   1
      angular_grids specified
        division   0.4014  110
        division   0.5291  194
        division   0.6019  302
  #      division   0.6814  434
  #      division   0.7989  590
  #      division   0.8965  770
  #      division   1.3427  974
  #      outer_grid   974
        outer_grid   302
  ################################################################################
  #
  #  Definition of "minimal" basis
  #
  ################################################################################
  #     valence basis states
      valence      2  s   2.
      valence      2  p   5.
  #     ion occupancy
      ion_occ      2  s   1.
      ion_occ      2  p   4.
  ################################################################################
  #
  #  Suggested additional basis functions. For production calculations,
  #  uncomment them one after another (the most important basis functions are
  #  listed first).
  #
  #  Constructed for dimers: 1.2 A, 1.418 A, 1.75 A, 2.25 A, 3.25 A
  #
  ################################################################################
  #  "First tier" - improvements: -149.44 meV to -45.88 meV
       hydro 2 p 1.7
       hydro 3 d 7.4
       hydro 3 s 6.8
  #  "Second tier" - improvements: -12.96 meV to -1.56 meV
  #     hydro 4 f 11.2
  #     ionic 2 p auto
  #     hydro 1 s 0.75
  #     hydro 4 d 8.8
  #     hydro 5 g 16.8
  #  "Third tier" - improvements: -0.58 meV to -0.05 meV
  #     hydro 3 p 6.2
  #     hydro 3 s 3.2
  #     hydro 4 f 9.6
  #     hydro 3 s 19.6
  #     hydro 4 d 8.6
  #     hydro 5 g 14.4
  # Further basis functions: -0.05 meV and below
  #     hydro 3 p 4.2
  
  -----------------------------------------------------------------------
  Completed first pass over input file control.in .
  -----------------------------------------------------------------------
  
  
  -----------------------------------------------------------------------
  Parsing geometry.in (first pass over file, find array dimensions only).
  The contents of geometry.in will be repeated verbatim below
  unless switched off by setting 'verbatim_writeout .false.' .
  in the first line of geometry.in .
  -----------------------------------------------------------------------
  
  atom 0.488830795 -0.597527078 1.760693117 Al
  atom 2.242643763 -1.849307254 -0.717827290 Al
  atom -1.054338982 -1.773293340 -0.832816336 Al
  atom 3.503062111 -0.492413393 -0.923053203 F
  atom -1.754648051 -0.567080489 -2.060619021 F
  atom 2.828823387 -3.570973277 -0.367803792 F
  atom -1.103001573 -3.601842785 -1.161919669 F
  atom 1.955977196 -1.346993932 1.044883600 F
  atom 0.666259364 -1.510619282 -1.513391265 F
  atom 0.011923551 -1.173607041 3.429138881 F
  atom 0.431270179 1.135477366 1.202230672 F
  atom -0.949938669 -1.518762521 0.970685612 F
  
  -----------------------------------------------------------------------
  Completed first pass over input file geometry.in .
  -----------------------------------------------------------------------
  

  Basic array size parameters:
  | Number of species                 :        2
  | Number of atoms                   :       12
  | Max. basis fn. angular momentum   :        2
  | Max. atomic/ionic basis occupied n:        3
  | Max. number of basis fn. types    :        3
  | Max. radial fns per species/type  :        5
  | Max. logarithmic grid size        :     1340
  | Max. radial integration grid size :       41
  | Max. angular integration grid size:      302
  | Max. angular grid division number :        8
  | Radial grid for Hartree potential :     1340
  | Number of spin channels           :        1

------------------------------------------------------------
          Reading file control.in.
------------------------------------------------------------
  XC: Using PBEsol gradient-corrected functionals.
  Spin treatment: No spin polarisation.
  Scalar relativistic treatment of kinetic energy: on-site free-atom approximation to ZORA.
  Charge =   0.000000E+00: Neutral system requested explicitly.
  Occupation type: Gaussian broadening, width =   0.100000E-01 eV.
  Using pulay charge density mixing.
  Pulay mixing - number of memorized iterations:   10
  Charge density mixing - mixing parameter:     0.5000
  Convergence accuracy of self-consistent charge density:  0.1000E-04
  Convergence accuracy of sum of eigenvalues:  0.1000E-02
  Convergence accuracy of total energy:  0.1000E-05
  Convergence accuracy of forces:  0.1000E-03
  Maximum number of s.-c. iterations  :  1500
 
  Reading configuration options for species Al                  .
  | Found nuclear charge :  13.0000
  | Found atomic mass :    26.9815386000000      amu
  | Found l_max for Hartree potential  :   4
  | Found cutoff potl. onset [A], width [A], scale factor :    3.50000    1.50000    1.00000
  | Threshold for basis-dependent cutoff potential is   0.100000E-03
  | Found data for basic radial integration grid :    41 points, outermost radius =    5.000 A
  | Found multiplier for basic radial grid :   1
  | Found angular grid specification: user-specified.
  | Specified grid contains     4 separate shells.
  | Check grid settings after all constraints further below.
  | Found free-atom valence shell :  3 s   2.000
  | Found free-atom valence shell :  3 p   1.000
  | Found free-ion valence shell :  3 s   1.000
  | Found free-ion valence shell :  2 p   6.000
  | Found ionic basis function :  3 d , default cutoff radius.
  | Found ionic basis function :  3 p , default cutoff radius.
  | Found ionic basis function :  3 s , default cutoff radius.
  Species Al                  : Missing cutoff potential type.
  Defaulting to exp(1/x)/(1-x)^2 type cutoff potential.
  Species Al: No 'logarithmic' tag. Using default grid for free atom:
  | Default logarithmic grid data [bohr] : 0.1000E-03 0.1000E+03 0.1012E+01
  | Will include ionic basis functions of  2.0-fold positive Al                   ion.
  Species Al: On-site basis accuracy parameter (for Gram-Schmidt orthonormalisation) not specified.
  Using default value basis_acc =  0.1000000E-03.
  Species Al                  : Using default innermost maximum threshold i_radial=  2 for radial functions.
  Species Al                  : Default cutoff onset for free atom density etc. : 0.35000000E+01 AA.
  Species Al                  : Basic radial grid will be enhanced according to radial_multiplier =   1, to contain    41 grid points.
 
  Reading configuration options for species F                   .
  | Found nuclear charge :   9.0000
  | Found atomic mass :    18.9984032000000      amu
  | Found l_max for Hartree potential  :   4
  | Found cutoff potl. onset [A], width [A], scale factor :    3.50000    1.50000    1.00000
  | Threshold for basis-dependent cutoff potential is   0.100000E-03
  | Found data for basic radial integration grid :    37 points, outermost radius =    5.000 A
  | Found multiplier for basic radial grid :   1
  | Found angular grid specification: user-specified.
  | Specified grid contains     4 separate shells.
  | Check grid settings after all constraints further below.
  | Found free-atom valence shell :  2 s   2.000
  | Found free-atom valence shell :  2 p   5.000
  | Found free-ion valence shell :  2 s   1.000
  | Found free-ion valence shell :  2 p   4.000
  | Found hydrogenic basis function :  2 p   1.700
  | Found hydrogenic basis function :  3 d   7.400
  | Found hydrogenic basis function :  3 s   6.800
  Species F                   : Missing cutoff potential type.
  Defaulting to exp(1/x)/(1-x)^2 type cutoff potential.
  Species F : No 'logarithmic' tag. Using default grid for free atom:
  | Default logarithmic grid data [bohr] : 0.1000E-03 0.1000E+03 0.1012E+01
  Species F : On-site basis accuracy parameter (for Gram-Schmidt orthonormalisation) not specified.
  Using default value basis_acc =  0.1000000E-03.
  Species F                   : Using default innermost maximum threshold i_radial=  2 for radial functions.
  Species F                   : Default cutoff onset for free atom density etc. : 0.35000000E+01 AA.
  Species F                   : Basic radial grid will be enhanced according to radial_multiplier =   1, to contain    37 grid points.
 
  Finished reading input file 'control.in'.
 
------------------------------------------------------------


------------------------------------------------------------
          Reading geometry description geometry.in.
------------------------------------------------------------
  | The smallest distance between any two atoms is         1.79627459 AA.
  | The first atom of this pair is atom number                      1 .
  | The second atom of this pair is atom number                     8 .
  Input structure read successfully.
  The structure contains       12 atoms,  and a total of        120.000 electrons.

  Input geometry:
  | No unit cell requested.
  | Atomic structure:
  |       Atom                x [A]            y [A]            z [A]
  |    1: Species Al            0.48883079       -0.59752708        1.76069312
  |    2: Species Al            2.24264376       -1.84930725       -0.71782729
  |    3: Species Al           -1.05433898       -1.77329334       -0.83281634
  |    4: Species F             3.50306211       -0.49241339       -0.92305320
  |    5: Species F            -1.75464805       -0.56708049       -2.06061902
  |    6: Species F             2.82882339       -3.57097328       -0.36780379
  |    7: Species F            -1.10300157       -3.60184279       -1.16191967
  |    8: Species F             1.95597720       -1.34699393        1.04488360
  |    9: Species F             0.66625936       -1.51061928       -1.51339127
  |   10: Species F             0.01192355       -1.17360704        3.42913888
  |   11: Species F             0.43127018        1.13547737        1.20223067
  |   12: Species F            -0.94993867       -1.51876252        0.97068561

 
  Finished reading input file 'control.in'.
 

------------------------------------------------------------
          Reading geometry description geometry.in.
------------------------------------------------------------
 
  Consistency checks for stacksize environment parameter are next.
 
  | Maximum stacksize for task 0: unlimited
  | Maximum stacksize for task 1: unlimited
  | Maximum stacksize for task 2: unlimited
  | Maximum stacksize for task 3: unlimited
  | Maximum stacksize for task 4: unlimited
  | Maximum stacksize for task 5: unlimited
  | Maximum stacksize for task 6: unlimited
  | Maximum stacksize for task 7: unlimited
  | Maximum stacksize for task 8: unlimited
  | Maximum stacksize for task 9: unlimited
  | Maximum stacksize for task 10: unlimited
  | Maximum stacksize for task 11: unlimited
  | Maximum stacksize for task 12: unlimited
  | Maximum stacksize for task 13: unlimited
  | Maximum stacksize for task 14: unlimited
  | Maximum stacksize for task 15: unlimited
  | Maximum stacksize for task 16: unlimited
  | Maximum stacksize for task 17: unlimited
  | Maximum stacksize for task 18: unlimited
  | Maximum stacksize for task 19: unlimited
  | Maximum stacksize for task 20: unlimited
  | Maximum stacksize for task 21: unlimited
  | Maximum stacksize for task 22: unlimited
  | Maximum stacksize for task 23: unlimited
  | Current stacksize for task 0: unlimited
  | Current stacksize for task 1: unlimited
  | Current stacksize for task 2: unlimited
  | Current stacksize for task 3: unlimited
  | Current stacksize for task 4: unlimited
  | Current stacksize for task 5: unlimited
  | Current stacksize for task 6: unlimited
  | Current stacksize for task 7: unlimited
  | Current stacksize for task 8: unlimited
  | Current stacksize for task 9: unlimited
  | Current stacksize for task 10: unlimited
  | Current stacksize for task 11: unlimited
  | Current stacksize for task 12: unlimited
  | Current stacksize for task 13: unlimited
  | Current stacksize for task 14: unlimited
  | Current stacksize for task 15: unlimited
  | Current stacksize for task 16: unlimited
  | Current stacksize for task 17: unlimited
  | Current stacksize for task 18: unlimited
  | Current stacksize for task 19: unlimited
  | Current stacksize for task 20: unlimited
  | Current stacksize for task 21: unlimited
  | Current stacksize for task 22: unlimited
  | Current stacksize for task 23: unlimited
 
  Consistency checks for the contents of control.in are next.
 
  MPI_IN_PLACE appears to work with this MPI implementation.
  | Keeping use_mpi_in_place .true. (see manual).
  Target number of points in a grid batch is not set. Defaulting to  100
  Method for grid partitioning is not set. Defaulting to parallel hash+maxmin partitioning.
  Batch size limit is not set. Defaulting to    200
  By default, will store active basis functions for each batch.
  If in need of memory, prune_basis_once .false. can be used to disable this option.
  communication_type for Hartree potential was not specified.
  Defaulting to calc_hartree .
  Pulay mixer: Number of initial linear mixing iterations not set.
  Defaulting to    0 iterations.
  Work space size for distributed Hartree potential not set.
  Defaulting to   0.200000E+03 MB.
  Algorithm-dependent basis array size parameters:
  | n_max_pulay                         :       10
  Presetting      1001 iterations before the initial mixing cycle
  is restarted anyway using the sc_init_iter criterion / keyword.
  Presetting a factor      1.000 between actual scf density residual
  and density convergence criterion sc_accuracy_rho below which sc_init_iter
  takes no effect.
  Geometry relaxation not requested: no relaxation will be performed.
  Forces evaluation will include force correction term due to incomplete self-consistency (default).
  Handling of forces: Unphysical translation and rotation will be removed from forces.
  No accuracy limit for integral partition fn. given. Defaulting to  0.1000E-14.
  No threshold value for u(r) in integrations given. Defaulting to  0.1000E-05.
  No accuracy for occupation numbers given. Defaulting to  0.1000E-12.
  No threshold value for occupation numbers given. Defaulting to  0.0000E+00.
  No accuracy for fermi level given. Defaulting to  0.1000E-19.
  Maximum # of iterations to find E_F not set. Defaulting to  200.
  Preferred method for the eigenvalue solver ('KS_method') not specified in 'control.in'.
  Calling BLACS routine to test compilation state
  Since ScaLAPACK support is enabled, defaulting to ELPA (via ELSI).
  Will not use alltoall communication since running on < 1024 CPUs.
  Threshold for basis singularities not set.
  Default threshold for basis singularities:  0.1000E-04
  partition_type (choice of integration weights) for integrals was not specified.
  | Using a version of the partition function of Stratmann and coworkers ('stratmann_sparse').
  | At each grid point, the set of atoms used to build the partition table is smoothly restricted to
  | only those atoms whose free-atom density would be non-zero at that grid point.
  Partitioning for Hartree potential was not defined. Using partition_type for integrals.
  | Adjusted default value of keyword multip_moments_threshold to:       0.10000000E-11
  | This value may affect high angular momentum components of the Hartree potential in periodic systems.
  No q(lm)/r^(l+1) cutoff set for long-range Hartree potential.
  | Using default value of  0.100000E-09 .
  | Verify using the multipole_threshold keyword.
  Defaulting to new monopole extrapolation.
  Density update method: automatic selection selected.
  Charge integration errors on the 3D integration grid will be compensated
  by explicit normalization and distribution of residual charges.
  Use the "compensate_multipole_errors" flag to change this behaviour.
  Set 'collect_eigenvectors' to be '.true.' for use_density_matrix .false.
 
  Consistency checks for the contents of geometry.in are next.
 
  Number of empty states per atom not set in control.in - providing a guess from actual geometry.
  | Total number of empty states used during s.c.f. cycle:       36
  If you use a very high smearing, use empty_states (per atom!) in control.in to increase this value.

  Structure-dependent array size parameters: 
  | Maximum number of distinct radial functions  :       14
  | Maximum number of basis functions            :      180
  | Number of Kohn-Sham states (occupied + empty):       96
------------------------------------------------------------

------------------------------------------------------------
          Preparing all fixed parts of the calculation.
------------------------------------------------------------
  Determining machine precision:
    2.225073858507201E-308
  Setting up grids for atomic and cluster calculations.

  Creating wave function, potential, and density for free atoms.

  Species: Al

  List of occupied orbitals and eigenvalues:
    n    l              occ      energy [Ha]    energy [eV]
    1    0           2.0000       -55.621123     -1513.5278
    2    0           2.0000        -3.957030      -107.6763
    3    0           2.0000        -0.272233        -7.4078
    2    1           6.0000        -2.540949       -69.1427
    3    1           1.0000        -0.083300        -2.2667


  Species: F

  List of occupied orbitals and eigenvalues:
    n    l              occ      energy [Ha]    energy [eV]
    1    0           2.0000       -24.399611      -663.9472
    2    0           2.0000        -1.098702       -29.8972
    2    1           5.0000        -0.408210       -11.1080


  Adding cutoff potential to free-atom effective potential.
  Creating fixed part of basis set: Ionic, confined, hydrogenic.
 
  Al                   ion:

  List of free ionic orbitals and eigenvalues:
    n    l      energy [Ha]    energy [eV]
    1    0       -56.418846     -1535.2349
    2    0        -4.732717      -128.7838
    3    0        -0.872690       -23.7471
    2    1        -3.317230       -90.2664


  List of ionic basis orbitals and eigenvalues:
    n    l      energy [Ha]    energy [eV]    outer radius [A]
    3    2        -0.346815        -9.4373       4.594041
    3    1        -0.631870       -17.1940       4.538221
    3    0        -0.872657       -23.7462       4.538221

 
  F                    hydrogenic:
 
  List of hydrogenic basis orbitals: 
    n    l      effective z      eigenvalue [eV]  inner max. [A]     outer max. [A]     outer radius [A]   
    2    1         1.700000        -9.7616           1.243167           1.243167           4.598524
    3    2         7.400000       -82.7828           0.642437           0.642437           3.305741
    3    0         6.800000       -69.9026           0.057798           1.022307           3.781556
 
  Creating atomic-like basis functions for current effective potential.

  Species Al                  :

  List of atomic basis orbitals and eigenvalues:
    n    l      energy [Ha]    energy [eV]    outer radius [A]
    1    0       -55.621123     -1513.5278       0.850197
    2    0        -3.957030      -107.6763       3.144911
    3    0        -0.272233        -7.4078       4.594041
    2    1        -2.540949       -69.1427       3.731966
    3    1        -0.083300        -2.2667       4.594041


  Species F                   :

  List of atomic basis orbitals and eigenvalues:
    n    l      energy [Ha]    energy [eV]    outer radius [A]
    1    0       -24.399611      -663.9472       1.258458
    2    0        -1.098702       -29.8972       4.325857
    2    1        -0.408210       -11.1080       4.487453

  Assembling full basis from fixed parts.
  | Species Al :   atomic orbital   1 s accepted.
  | Species Al :   atomic orbital   2 s accepted.
  | Species Al :    ionic orbital   3 s accepted.
  | Species Al :   atomic orbital   3 s accepted.
  | Species Al :   atomic orbital   2 p accepted.
  | Species Al :    ionic orbital   3 p accepted.
  | Species Al :   atomic orbital   3 p accepted.
  | Species Al :    ionic orbital   3 d accepted.
  | Species F :   atomic orbital   1 s accepted.
  | Species F :    hydro orbital   3 s accepted.
  | Species F :   atomic orbital   2 s accepted.
  | Species F :   atomic orbital   2 p accepted.
  | Species F :    hydro orbital   2 p accepted.
  | Species F :    hydro orbital   3 d accepted.
 
  Basis size parameters after reduction:
  | Total number of radial functions:       14
  | Total number of basis functions :      180
 
  Per-task memory consumption for arrays in subroutine allocate_ext:
  |           4.807768MB.
  Testing on-site integration grid accuracy.
  |  Species  Function  <phi|h_atom|phi> (log., in eV)  <phi|h_atom|phi> (rad., in eV)
           1        1              -1513.5277717935              -1513.5271881332
           1        2               -107.6762691836               -107.6762662489
           1        3                 -6.9467474784                 -6.9471269649
           1        4                  5.5771951849                  5.4862107220 ***
           1        5                -69.1427313144                -69.1427312731
           1        6                 -1.5197375330                 -1.5230432022
           1        7                  6.8210948310                  6.5529872240 ***
           1        8                  4.3216540965                  4.2851170187 ***
           2        9               -663.9471986398               -663.9470363334
           2       10                 16.8514011578                 16.8512525338
           2       11                -28.4490593856                -28.4490661472
           2       12                -11.1080115307                -11.1080620173
           2       13                  7.1940182175                  7.1685154137
           2       14                 44.8544281765                 44.8543763625
 * Note: Onsite integrals marked "***" above are less accurate than
 * onsite_accuracy_threshold =    0.03000 eV. Usually, this is harmless.
 * When in doubt, tighten the "radial" and/or "radial_multiplier" flags to check.

  Preparing densities etc. for the partition functions (integrals / Hartree potential).

  Preparations completed.
  max(cpu_time)          :      0.184 s.
  Wall clock time (cpu1) :      0.184 s.
------------------------------------------------------------

------------------------------------------------------------
          Begin self-consistency loop: Initialization.

          Date     :  20220517, Time     :  113429.622
------------------------------------------------------------

  Initializing index lists of integration centers etc. from given atomic structure:
  | Number of centers in hartree potential         :        12
  | Number of centers in hartree multipole         :        12
  | Number of centers in electron density summation:        12
  | Number of centers in basis integrals           :        12
  | Number of centers in integrals                 :        12
  | Number of centers in hamiltonian               :        12
  * Using 24 tasks for Scalapack Eigenvalue solver.
  Detailed listing of tasks and assigned k-points:
  (for non-periodic systems, the "k-point" denotes an internal label only)
   Task     0 k-point     1 on node-k98a-011
   Task     1 k-point     1 on node-k98a-011
   Task     2 k-point     1 on node-k98a-011
   Task     3 k-point     1 on node-k98a-011
   Task     4 k-point     1 on node-k98a-011
   Task     5 k-point     1 on node-k98a-011
   Task     6 k-point     1 on node-k98a-011
   Task     7 k-point     1 on node-k98a-011
   Task     8 k-point     1 on node-k98a-011
   Task     9 k-point     1 on node-k98a-011
   Task    10 k-point     1 on node-k98a-011
   Task    11 k-point     1 on node-k98a-011
   Task    12 k-point     1 on node-k98a-011
   Task    13 k-point     1 on node-k98a-011
   Task    14 k-point     1 on node-k98a-011
   Task    15 k-point     1 on node-k98a-011
   Task    16 k-point     1 on node-k98a-011
   Task    17 k-point     1 on node-k98a-011
   Task    18 k-point     1 on node-k98a-011
   Task    19 k-point     1 on node-k98a-011
   Task    20 k-point     1 on node-k98a-011
   Task    21 k-point     1 on node-k98a-011
   Task    22 k-point     1 on node-k98a-011
   Task    23 k-point     1 on node-k98a-011
  Tasks:    24 split into      6 X      4 BLACS grid
  Calculating block size based on n_basis =          180  max_nprow =            6  max_npcol =            4
  ScaLAPACK block size set to:           16
  Allocating        0.012 MB for ovlp
  Allocating        0.012 MB for ham
  Allocating        0.012 MB for eigenvec
  Required Scalapack workspace - INTEGER:            1  REAL:             1
  Partitioning the integration grid into batches with parallel hashing+maxmin method.
  | Number of batches:     1002
  | Maximal batch size:     195
  | Minimal batch size:      20
  | Average batch size:      91.737
  | Standard deviation of batch sizes:      25.070

  Integration load balanced across    24 MPI tasks.
  Work distribution over tasks is as follows:
  Task     0 has       3772 integration points.
  Task     1 has       3789 integration points.
  Task     2 has       3836 integration points.
  Task     3 has       3905 integration points.
  Task     4 has       3907 integration points.
  Task     5 has       3852 integration points.
  Task     6 has       3854 integration points.
  Task     7 has       3784 integration points.
  Task     8 has       3776 integration points.
  Task     9 has       3822 integration points.
  Task    10 has       3848 integration points.
  Task    11 has       3776 integration points.
  Task    12 has       3794 integration points.
  Task    13 has       3810 integration points.
  Task    14 has       3907 integration points.
  Task    15 has       3777 integration points.
  Task    16 has       3850 integration points.
  Task    17 has       3914 integration points.
  Task    18 has       3839 integration points.
  Task    19 has       3847 integration points.
  Task    20 has       3844 integration points.
  Task    21 has       3774 integration points.
  Task    22 has       3844 integration points.
  Task    23 has       3799 integration points.
  Initializing partition tables, free-atom densities, potentials, etc. across the integration grid (initialize_grid_storage).
  | initialize_grid_storage: Actual outermost partition radius vs. multipole_radius_free
  | (-- VB: in principle, multipole_radius_free should be larger, hence this output)
  | Species        1: Confinement radius =              4.999999999999999 AA, multipole_radius_free =              5.004487022111096 AA.
  | Species        1: outer_partition_radius set to              5.004487022111096 AA .
  | Species        2: Confinement radius =              4.999999999999999 AA, multipole_radius_free =              5.009370088163274 AA.
  | Species        2: outer_partition_radius set to              5.009370088163274 AA .
  | The sparse table of interatomic distances needs          1.64 kbyte instead of         1.15 kbyte of memory.
  | Using the partition_type stratmann_smoother will reduce your memory usage.
  | Net number of integration points:    91920
  | of which are non-zero points    :    85843
  Renormalizing the initial density to the exact electron count on the 3D integration grid.
  | Initial density: Formal number of electrons (from input files) :     120.0000000000
  | Integrated number of electrons on 3D grid     :     119.9999504738
  | Charge integration error                      :      -0.0000495262
  | Normalization factor for density and gradient :       1.0000004127
  Renormalizing the free-atom superposition density to the exact electron count on the 3D integration grid.
  | Formal number of electrons (from input files) :     120.0000000000
  | Integrated number of electrons on 3D grid     :     119.9999504738
  | Charge integration error                      :      -0.0000495262
  | Normalization factor for density and gradient :       1.0000004127
  Obtaining max. number of non-zero basis functions in each batch (get_n_compute_maxes).
  | Maximal number of non-zero basis functions:      165 in task     0
  | Maximal number of non-zero basis functions:      170 in task     1
  | Maximal number of non-zero basis functions:      171 in task     2
  | Maximal number of non-zero basis functions:      165 in task     3
  | Maximal number of non-zero basis functions:      170 in task     4
  | Maximal number of non-zero basis functions:      170 in task     5
  | Maximal number of non-zero basis functions:      170 in task     6
  | Maximal number of non-zero basis functions:      165 in task     7
  | Maximal number of non-zero basis functions:      164 in task     8
  | Maximal number of non-zero basis functions:      171 in task     9
  | Maximal number of non-zero basis functions:      163 in task    10
  | Maximal number of non-zero basis functions:      166 in task    11
  | Maximal number of non-zero basis functions:      169 in task    12
  | Maximal number of non-zero basis functions:      166 in task    13
  | Maximal number of non-zero basis functions:      171 in task    14
  | Maximal number of non-zero basis functions:      171 in task    15
  | Maximal number of non-zero basis functions:      171 in task    16
  | Maximal number of non-zero basis functions:      170 in task    17
  | Maximal number of non-zero basis functions:      164 in task    18
  | Maximal number of non-zero basis functions:      164 in task    19
  | Maximal number of non-zero basis functions:      161 in task    20
  | Maximal number of non-zero basis functions:      171 in task    21
  | Maximal number of non-zero basis functions:      171 in task    22
  | Maximal number of non-zero basis functions:      165 in task    23
  Selecting the method for density update.
  Loop over occupied states selected for charge density update.
  Allocating        0.132 MB for KS_eigenvector
  Integrating Hamiltonian matrix: batch-based integration.
  Time summed over all CPUs for integration: real work        0.719 s, elapsed        0.768 s
  Integrating overlap matrix.
  Time summed over all CPUs for integration: real work        0.277 s, elapsed        0.296 s
  Deallocating overlap matrix.

  Updating Kohn-Sham eigenvalues and eigenvectors using ELSI and the ELPA eigensolver.
  Overlap matrix is not singular
  | Lowest and highest eigenvalues :  0.4294E-02,  0.5138E+01
  Finished singularity check of overlap matrix
  | Time :     0.004 s
  Starting ELPA eigensolver
  Finished Cholesky decomposition
  | Time :     0.002 s
  Finished transformation to standard eigenproblem
  | Time :     0.001 s
  Finished solving standard eigenproblem
  | Time :     0.003 s
  Finished back-transformation of eigenvectors
  | Time :     0.000 s

  Obtaining occupation numbers and chemical potential using ELSI.
  | Chemical potential (Fermi level):    -8.11302665 eV
  Writing Kohn-Sham eigenvalues.

  State    Occupation    Eigenvalue [Ha]    Eigenvalue [eV]
      1       2.00000         -55.483307        -1509.77760
      2       2.00000         -55.483007        -1509.76945
      3       2.00000         -55.482804        -1509.76391
      4       2.00000         -24.377671         -663.35019
      5       2.00000         -24.376108         -663.30765
      6       2.00000         -24.371578         -663.18437
      7       2.00000         -24.339914         -662.32277
      8       2.00000         -24.339167         -662.30244
      9       2.00000         -24.336568         -662.23170
     10       2.00000         -24.335944         -662.21474
     11       2.00000         -24.335901         -662.21356
     12       2.00000         -24.335424         -662.20057
     13       2.00000          -3.948475         -107.44346
     14       2.00000          -3.947999         -107.43053
     15       2.00000          -3.947658         -107.42124
     16       2.00000          -2.540970          -69.14332
     17       2.00000          -2.540525          -69.13121
     18       2.00000          -2.540491          -69.13026
     19       2.00000          -2.540097          -69.11957
     20       2.00000          -2.539841          -69.11260
     21       2.00000          -2.539647          -69.10732
     22       2.00000          -2.539474          -69.10260
     23       2.00000          -2.539305          -69.09801
     24       2.00000          -2.538966          -69.08879
     25       2.00000          -1.204780          -32.78373
     26       2.00000          -1.198666          -32.61737
     27       2.00000          -1.193629          -32.48030
     28       2.00000          -1.148660          -31.25662
     29       2.00000          -1.146307          -31.19259
     30       2.00000          -1.143722          -31.12226
     31       2.00000          -1.143192          -31.10784
     32       2.00000          -1.141444          -31.06026
     33       2.00000          -1.141148          -31.05222
     34       2.00000          -0.579718          -15.77492
     35       2.00000          -0.573133          -15.59575
     36       2.00000          -0.551515          -15.00750
     37       2.00000          -0.536021          -14.58587
     38       2.00000          -0.512945          -13.95794
     39       2.00000          -0.503363          -13.69720
     40       2.00000          -0.501712          -13.65228
     41       2.00000          -0.495727          -13.48943
     42       2.00000          -0.492572          -13.40356
     43       2.00000          -0.491103          -13.36360
     44       2.00000          -0.488807          -13.30113
     45       2.00000          -0.487407          -13.26303
     46       2.00000          -0.479921          -13.05932
     47       2.00000          -0.474973          -12.92467
     48       2.00000          -0.472811          -12.86584
     49       2.00000          -0.454014          -12.35435
     50       2.00000          -0.451885          -12.29643
     51       2.00000          -0.450950          -12.27098
     52       2.00000          -0.449246          -12.22461
     53       2.00000          -0.448057          -12.19226
     54       2.00000          -0.446960          -12.16240
     55       2.00000          -0.446779          -12.15748
     56       2.00000          -0.445571          -12.12461
     57       2.00000          -0.443704          -12.07381
     58       2.00000          -0.442783          -12.04875
     59       2.00000          -0.442343          -12.03677
     60       2.00000          -0.441648          -12.01786
     61       0.00000          -0.144796           -3.94009
     62       0.00000          -0.099520           -2.70808
     63       0.00000          -0.089861           -2.44524
     64       0.00000          -0.032787           -0.89217
     65       0.00000          -0.019446           -0.52916
     66       0.00000           0.005284            0.14378
     67       0.00000           0.011949            0.32516
     68       0.00000           0.040815            1.11062
     69       0.00000           0.046283            1.25944
     70       0.00000           0.055407            1.50771
     71       0.00000           0.074980            2.04030
     72       0.00000           0.078525            2.13677
     73       0.00000           0.136776            3.72187
     74       0.00000           0.160884            4.37788
     75       0.00000           0.165081            4.49209
     76       0.00000           0.178521            4.85780
     77       0.00000           0.187331            5.09754
     78       0.00000           0.192473            5.23745
     79       0.00000           0.194984            5.30577
     80       0.00000           0.200381            5.45266
     81       0.00000           0.206300            5.61370
     82       0.00000           0.214497            5.83676
     83       0.00000           0.218924            5.95722
     84       0.00000           0.223153            6.07231
     85       0.00000           0.238274            6.48377
     86       0.00000           0.253089            6.88690
     87       0.00000           0.266799            7.25996
     88       0.00000           0.293512            7.98686
     89       0.00000           0.295954            8.05332
     90       0.00000           0.298698            8.12798
     91       0.00000           0.302456            8.23024
     92       0.00000           0.316719            8.61837
     93       0.00000           0.338468            9.21019
     94       0.00000           0.341826            9.30156
     95       0.00000           0.353099            9.60830
     96       0.00000           0.356221            9.69327

  Highest occupied state (VBM) at    -12.01786455 eV
  | Occupation number:      2.00000000

  Lowest unoccupied state (CBM) at    -3.94009186 eV
  | Occupation number:      0.00000000

  Overall HOMO-LUMO gap:      8.07777268 eV.
  Calculating total energy contributions from superposition of free atom densities.

  Total energy components:
  | Sum of eigenvalues            :        -887.53612596 Ha      -24151.08678106 eV
  | XC energy correction          :        -144.29678459 Ha       -3926.51528769 eV
  | XC potential correction       :         187.88116094 Ha        5112.50651072 eV
  | Free-atom electrostatic energy:        -781.41331735 Ha      -21263.33823184 eV
  | Hartree energy correction     :           0.00000000 Ha           0.00000000 eV
  | Entropy correction            :           0.00000000 Ha           0.00000000 eV
  | ---------------------------
  | Total energy                  :       -1625.36506696 Ha      -44228.43378987 eV
  | Total energy, T -> 0          :       -1625.36506696 Ha      -44228.43378987 eV  <-- do not rely on this value for anything but (periodic) metals
  | Electronic free energy        :       -1625.36506696 Ha      -44228.43378987 eV

  Derived energy quantities:
  | Kinetic energy                :        1627.51592201 Ha       44286.96153357 eV
  | Electrostatic energy          :       -3108.58420437 Ha      -84588.88003575 eV
  | Energy correction for multipole
  | error in Hartree potential    :           0.00000000 Ha           0.00000000 eV
  | Sum of eigenvalues per atom                           :       -2012.59056509 eV
  | Total energy (T->0) per atom                          :       -3685.70281582 eV  <-- do not rely on this value for anything but (periodic) metals
  | Electronic free energy per atom                       :       -3685.70281582 eV
  Initialize hartree_potential_storage
  Max. number of atoms included in rho_multipole:           12

  End scf initialization - timings             :  max(cpu_time)    wall_clock(cpu1)
  | Time for scf. initialization                :        0.118 s           0.119 s
  | Boundary condition initialization           :        0.000 s           0.000 s
  | Integration                                 :        0.046 s           0.046 s
  | Solution of K.-S. eqns.                     :        0.011 s           0.012 s
  | Grid partitioning                           :        0.038 s           0.038 s
  | Preloading free-atom quantities on grid     :        0.016 s           0.016 s
  | Free-atom superposition energy              :        0.005 s           0.005 s
  | Total energy evaluation                     :        0.000 s           0.000 s

  Partial memory accounting:
  | Current value for overall tracked memory usage:
  |   Minimum:        0.273 MB (on task 23)
  |   Maximum:        0.292 MB (on task  0)
  |   Average:        0.287 MB
  | Peak value for overall tracked memory usage:
  |   Minimum:        1.323 MB (on task 20 after allocating wave)
  |   Maximum:        1.406 MB (on task  2 after allocating wave)
  |   Average:        1.378 MB
  | Largest tracked array allocation so far:
  |   Minimum:        0.240 MB (H_times_psi on task 20)
  |   Maximum:        0.518 MB (all_coords on task  9)
  |   Average:        0.276 MB
  Note:  These values currently only include a subset of arrays which are explicitly tracked.
  The "true" memory usage will be greater.
------------------------------------------------------------
  Evaluating new KS density.
  Integration grid: deviation in total charge (<rho> - N_e) =   2.842171E-14

  Time for density update prior                :  max(cpu_time)    wall_clock(cpu1)
  | self-consistency iterative process          :        0.029 s           0.029 s

------------------------------------------------------------
          Begin self-consistency iteration #    1

  Date     :  20220517, Time     :  113429.770
------------------------------------------------------------
  Pulay mixing of updated and previous charge densities.
  Renormalizing the density to the exact electron count on the 3D integration grid.
  | Formal number of electrons (from input files) :     120.0000000000
  | Integrated number of electrons on 3D grid     :     120.0000000000
  | Charge integration error                      :      -0.0000000000
  | Normalization factor for density and gradient :       1.0000000000

  Evaluating partitioned Hartree potential by multipole expansion.
  | Original multipole sum: apparent total charge =  -0.471813E-13
  | Sum of charges compensated after spline to logarithmic grids =   0.149581E-03
  | Analytical far-field extrapolation by fixed multipoles:
  | Hartree multipole sum: apparent total charge =  -0.483063E-13
  Summing up the Hartree potential.
  Time summed over all CPUs for potential: real work        0.384 s, elapsed        0.412 s
  | RMS charge density error from multipole expansion :   0.105744E-01

  Integrating Hamiltonian matrix: batch-based integration.
  Time summed over all CPUs for integration: real work        0.673 s, elapsed        0.707 s

  Updating Kohn-Sham eigenvalues and eigenvectors using ELSI and the ELPA eigensolver.
  Starting ELPA eigensolver
  Finished transformation to standard eigenproblem
  | Time :     0.001 s
  Finished solving standard eigenproblem
  | Time :     0.003 s
  Finished back-transformation of eigenvectors
  | Time :     0.000 s

  Obtaining occupation numbers and chemical potential using ELSI.
  | Chemical potential (Fermi level):    -7.96021974 eV
  Writing Kohn-Sham eigenvalues.

  State    Occupation    Eigenvalue [Ha]    Eigenvalue [eV]
      1       2.00000         -55.661339        -1514.62209
      2       2.00000         -55.650771        -1514.33454
      3       2.00000         -55.650216        -1514.31942
      4       2.00000         -24.276024         -660.58423
      5       2.00000         -24.275196         -660.56168
      6       2.00000         -24.263228         -660.23604
      7       2.00000         -24.082500         -655.31817
      8       2.00000         -24.067711         -654.91574
      9       2.00000         -24.065844         -654.86495
     10       2.00000         -24.064467         -654.82747
     11       2.00000         -24.063624         -654.80453
     12       2.00000         -24.053134         -654.51906
     13       2.00000          -4.099594         -111.55563
     14       2.00000          -4.090127         -111.29801
     15       2.00000          -4.089677         -111.28576
     16       2.00000          -2.693721          -73.29988
     17       2.00000          -2.692391          -73.26369
     18       2.00000          -2.690622          -73.21556
     19       2.00000          -2.683975          -73.03467
     20       2.00000          -2.683714          -73.02757
     21       2.00000          -2.683240          -73.01468
     22       2.00000          -2.682492          -72.99431
     23       2.00000          -2.681093          -72.95625
     24       2.00000          -2.680747          -72.94684
     25       2.00000          -1.199498          -32.63999
     26       2.00000          -1.192329          -32.44492
     27       2.00000          -1.185685          -32.26412
     28       2.00000          -1.028730          -27.99318
     29       2.00000          -1.014933          -27.61773
     30       2.00000          -1.013662          -27.58315
     31       2.00000          -1.010111          -27.48651
     32       2.00000          -1.009773          -27.47732
     33       2.00000          -1.000151          -27.21550
     34       2.00000          -0.585542          -15.93342
     35       2.00000          -0.580612          -15.79926
     36       2.00000          -0.554065          -15.07688
     37       2.00000          -0.542285          -14.75633
     38       2.00000          -0.502506          -13.67387
     39       2.00000          -0.492912          -13.41282
     40       2.00000          -0.489664          -13.32442
     41       2.00000          -0.481561          -13.10393
     42       2.00000          -0.477203          -12.98536
     43       2.00000          -0.404942          -11.01903
     44       2.00000          -0.394400          -10.73217
     45       2.00000          -0.387076          -10.53286
     46       2.00000          -0.369739          -10.06111
     47       2.00000          -0.363740           -9.89786
     48       2.00000          -0.355305           -9.66835
     49       2.00000          -0.341818           -9.30134
     50       2.00000          -0.339083           -9.22691
     51       2.00000          -0.331648           -9.02461
     52       2.00000          -0.328623           -8.94230
     53       2.00000          -0.323087           -8.79165
     54       2.00000          -0.322697           -8.78103
     55       2.00000          -0.320873           -8.73139
     56       2.00000          -0.320635           -8.72493
     57       2.00000          -0.318455           -8.66559
     58       2.00000          -0.315981           -8.59829
     59       2.00000          -0.308994           -8.40815
     60       2.00000          -0.307213           -8.35969
     61       0.00000          -0.164749           -4.48304
     62       0.00000          -0.114664           -3.12016
     63       0.00000          -0.099247           -2.70066
     64       0.00000          -0.062231           -1.69339
     65       0.00000          -0.043185           -1.17512
     66       0.00000          -0.007720           -0.21006
     67       0.00000          -0.001253           -0.03410
     68       0.00000           0.015616            0.42493
     69       0.00000           0.028596            0.77814
     70       0.00000           0.050553            1.37562
     71       0.00000           0.051965            1.41403
     72       0.00000           0.054910            1.49418
     73       0.00000           0.130563            3.55279
     74       0.00000           0.146324            3.98169
     75       0.00000           0.154275            4.19805
     76       0.00000           0.170053            4.62738
     77       0.00000           0.181812            4.94735
     78       0.00000           0.182780            4.97371
     79       0.00000           0.187245            5.09519
     80       0.00000           0.196471            5.34624
     81       0.00000           0.202189            5.50184
     82       0.00000           0.202816            5.51890
     83       0.00000           0.210968            5.74073
     84       0.00000           0.215103            5.85326
     85       0.00000           0.230445            6.27072
     86       0.00000           0.239310            6.51196
     87       0.00000           0.250729            6.82267
     88       0.00000           0.278235            7.57117
     89       0.00000           0.282239            7.68011
     90       0.00000           0.286933            7.80783
     91       0.00000           0.294183            8.00513
     92       0.00000           0.300038            8.16445
     93       0.00000           0.325094            8.84627
     94       0.00000           0.331897            9.03137
     95       0.00000           0.352201            9.58387
     96       0.00000           0.364014            9.90534

  Highest occupied state (VBM) at     -8.35969469 eV
  | Occupation number:      2.00000000

  Lowest unoccupied state (CBM) at    -4.48304386 eV
  | Occupation number:      0.00000000

  Overall HOMO-LUMO gap:      3.87665083 eV.

  Total energy components:
  | Sum of eigenvalues            :        -882.28195581 Ha      -24008.11353704 eV
  | XC energy correction          :        -145.68512730 Ha       -3964.29401480 eV
  | XC potential correction       :         189.70615957 Ha        5162.16725006 eV
  | Free-atom electrostatic energy:        -781.41331735 Ha      -21263.33823184 eV
  | Hartree energy correction     :          -5.45400957 Ha        -148.41115136 eV
  | Entropy correction            :           0.00000000 Ha           0.00000000 eV
  | ---------------------------
  | Total energy                  :       -1625.12825046 Ha      -44221.98968497 eV
  | Total energy, T -> 0          :       -1625.12825046 Ha      -44221.98968497 eV  <-- do not rely on this value for anything but (periodic) metals
  | Electronic free energy        :       -1625.12825046 Ha      -44221.98968497 eV

  Derived energy quantities:
  | Kinetic energy                :        1634.19560881 Ha       44468.72505957 eV
  | Electrostatic energy          :       -3113.63873197 Ha      -84726.42072974 eV
  | Energy correction for multipole
  | error in Hartree potential    :           0.04321792 Ha           1.17601933 eV
  | Sum of eigenvalues per atom                           :       -2000.67612809 eV
  | Total energy (T->0) per atom                          :       -3685.16580708 eV  <-- do not rely on this value for anything but (periodic) metals
  | Electronic free energy per atom                       :       -3685.16580708 eV
  Evaluating new KS density.
  Integration grid: deviation in total charge (<rho> - N_e) =   1.421085E-14

  Self-consistency convergence accuracy:
  | Change of charge density      :  0.6187E+00
  | Change of sum of eigenvalues  :  0.1430E+03 eV
  | Change of total energy        :  0.6444E+01 eV


------------------------------------------------------------
  End self-consistency iteration #     1       :  max(cpu_time)    wall_clock(cpu1)
  | Time for this iteration                     :        0.082 s           0.082 s
  | Charge density update                       :        0.027 s           0.027 s
  | Density mixing                              :        0.000 s           0.000 s
  | Hartree multipole update                    :        0.001 s           0.002 s
  | Hartree multipole summation                 :        0.018 s           0.017 s
  | Integration                                 :        0.030 s           0.030 s
  | Solution of K.-S. eqns.                     :        0.004 s           0.004 s
  | Total energy evaluation                     :        0.000 s           0.000 s

  Partial memory accounting:
  | Current value for overall tracked memory usage:
  |   Minimum:        0.273 MB (on task 23)
  |   Maximum:        0.292 MB (on task  0)
  |   Average:        0.287 MB
  | Peak value for overall tracked memory usage:
  |   Minimum:        1.323 MB (on task 20 after allocating wave)
  |   Maximum:        1.406 MB (on task  2 after allocating wave)
  |   Average:        1.378 MB
  | Largest tracked array allocation so far:
  |   Minimum:        0.719 MB (gradient_basis_wave on task 20)
  |   Maximum:        0.763 MB (gradient_basis_wave on task  2)
  |   Average:        0.748 MB
  Note:  These values currently only include a subset of arrays which are explicitly tracked.
  The "true" memory usage will be greater.
------------------------------------------------------------

------------------------------------------------------------
          Begin self-consistency iteration #    2

  Date     :  20220517, Time     :  113429.857
------------------------------------------------------------
  Pulay mixing of updated and previous charge densities.
  Renormalizing the density to the exact electron count on the 3D integration grid.
  | Formal number of electrons (from input files) :     120.0000000000
  | Integrated number of electrons on 3D grid     :     120.0000000000
  | Charge integration error                      :       0.0000000000
  | Normalization factor for density and gradient :       1.0000000000

  Evaluating partitioned Hartree potential by multipole expansion.
  | Original multipole sum: apparent total charge =   0.353231E-13
  | Sum of charges compensated after spline to logarithmic grids =   0.115428E-03
  | Analytical far-field extrapolation by fixed multipoles:
  | Hartree multipole sum: apparent total charge =   0.356775E-13
  Summing up the Hartree potential.
  Time summed over all CPUs for potential: real work        0.382 s, elapsed        0.412 s
  | RMS charge density error from multipole expansion :   0.123782E-01

  Integrating Hamiltonian matrix: batch-based integration.
  Time summed over all CPUs for integration: real work        0.674 s, elapsed        0.707 s

  Updating Kohn-Sham eigenvalues and eigenvectors using ELSI and the ELPA eigensolver.
  Starting ELPA eigensolver
  Finished transformation to standard eigenproblem
  | Time :     0.001 s
  Finished solving standard eigenproblem
  | Time :     0.003 s
  Finished back-transformation of eigenvectors
  | Time :     0.000 s

  Obtaining occupation numbers and chemical potential using ELSI.
  | Chemical potential (Fermi level):    -8.19154134 eV
  Highest occupied state (VBM) at     -9.60136508 eV
  | Occupation number:      2.00000000

  Lowest unoccupied state (CBM) at    -4.69209059 eV
  | Occupation number:      0.00000000

  Overall HOMO-LUMO gap:      4.90927448 eV.

  Checking to see if s.c.f. parameters should be adjusted.

  Total energy components:
  | Sum of eigenvalues            :        -885.56977849 Ha      -24097.57974409 eV
  | XC energy correction          :        -145.16060681 Ha       -3950.02108626 eV
  | XC potential correction       :         189.01604332 Ha        5143.38823148 eV
  | Free-atom electrostatic energy:        -781.41331735 Ha      -21263.33823184 eV
  | Hartree energy correction     :          -1.92402899 Ha         -52.35549260 eV
  | Entropy correction            :           0.00000000 Ha           0.00000000 eV
  | ---------------------------
  | Total energy                  :       -1625.05168832 Ha      -44219.90632331 eV
  | Total energy, T -> 0          :       -1625.05168832 Ha      -44219.90632331 eV  <-- do not rely on this value for anything but (periodic) metals
  | Electronic free energy        :       -1625.05168832 Ha      -44219.90632331 eV

  Derived energy quantities:
  | Kinetic energy                :        1630.17914084 Ha       44359.43140537 eV
  | Electrostatic energy          :       -3110.07022235 Ha      -84629.31664242 eV
  | Energy correction for multipole
  | error in Hartree potential    :           0.04661200 Ha           1.26837695 eV
  | Sum of eigenvalues per atom                           :       -2008.13164534 eV
  | Total energy (T->0) per atom                          :       -3684.99219361 eV  <-- do not rely on this value for anything but (periodic) metals
  | Electronic free energy per atom                       :       -3684.99219361 eV
  Evaluating new KS density.
  Integration grid: deviation in total charge (<rho> - N_e) =   2.842171E-14

  Self-consistency convergence accuracy:
  | Change of charge density      :  0.5213E+00
  | Change of sum of eigenvalues  : -0.8947E+02 eV
  | Change of total energy        :  0.2083E+01 eV


------------------------------------------------------------
  End self-consistency iteration #     2       :  max(cpu_time)    wall_clock(cpu1)
  | Time for this iteration                     :        0.085 s           0.082 s
  | Charge density update                       :        0.027 s           0.027 s
  | Density mixing                              :        0.004 s           0.002 s
  | Hartree multipole update                    :        0.001 s           0.001 s
  | Hartree multipole summation                 :        0.017 s           0.017 s
  | Integration                                 :        0.030 s           0.030 s
  | Solution of K.-S. eqns.                     :        0.004 s           0.005 s
  | Total energy evaluation                     :        0.000 s           0.000 s

  Partial memory accounting:
  | Current value for overall tracked memory usage:
  |   Minimum:        0.274 MB (on task 23)
  |   Maximum:        0.293 MB (on task  0)
  |   Average:        0.288 MB
  | Peak value for overall tracked memory usage:
  |   Minimum:        1.323 MB (on task 20 after allocating wave)
  |   Maximum:        1.406 MB (on task  2 after allocating wave)
  |   Average:        1.378 MB
  | Largest tracked array allocation so far:
  |   Minimum:        0.719 MB (gradient_basis_wave on task 20)
  |   Maximum:        0.763 MB (gradient_basis_wave on task  2)
  |   Average:        0.748 MB
  Note:  These values currently only include a subset of arrays which are explicitly tracked.
  The "true" memory usage will be greater.
------------------------------------------------------------

------------------------------------------------------------
          Begin self-consistency iteration #    3

  Date     :  20220517, Time     :  113429.945
------------------------------------------------------------
  Pulay mixing of updated and previous charge densities.
  Renormalizing the density to the exact electron count on the 3D integration grid.
  | Formal number of electrons (from input files) :     120.0000000000
  | Integrated number of electrons on 3D grid     :     120.0000000000
  | Charge integration error                      :      -0.0000000000
  | Normalization factor for density and gradient :       1.0000000000

  Evaluating partitioned Hartree potential by multipole expansion.
  | Original multipole sum: apparent total charge =  -0.122497E-12
  | Sum of charges compensated after spline to logarithmic grids =   0.152522E-03
  | Analytical far-field extrapolation by fixed multipoles:
  | Hartree multipole sum: apparent total charge =  -0.127902E-12
  Summing up the Hartree potential.
  Time summed over all CPUs for potential: real work        0.382 s, elapsed        0.400 s
  | RMS charge density error from multipole expansion :   0.169013E-01

  Integrating Hamiltonian matrix: batch-based integration.
  Time summed over all CPUs for integration: real work        0.674 s, elapsed        0.710 s

  Updating Kohn-Sham eigenvalues and eigenvectors using ELSI and the ELPA eigensolver.
  Starting ELPA eigensolver
  Finished transformation to standard eigenproblem
  | Time :     0.000 s
  Finished solving standard eigenproblem
  | Time :     0.003 s
  Finished back-transformation of eigenvectors
  | Time :     0.001 s

  Obtaining occupation numbers and chemical potential using ELSI.
  | Chemical potential (Fermi level):    -8.23006538 eV
  Highest occupied state (VBM) at     -9.34199225 eV
  | Occupation number:      2.00000000

  Lowest unoccupied state (CBM) at    -4.94404986 eV
  | Occupation number:      0.00000000

  Overall HOMO-LUMO gap:      4.39794239 eV.

  Total energy components:
  | Sum of eigenvalues            :        -886.71429138 Ha      -24128.72352428 eV
  | XC energy correction          :        -145.12670591 Ha       -3949.09859586 eV
  | XC potential correction       :         188.97018362 Ha        5142.14032544 eV
  | Free-atom electrostatic energy:        -781.41331735 Ha      -21263.33823184 eV
  | Hartree energy correction     :          -0.76624755 Ha         -20.85065659 eV
  | Entropy correction            :           0.00000000 Ha           0.00000000 eV
  | ---------------------------
  | Total energy                  :       -1625.05037857 Ha      -44219.87068314 eV
  | Total energy, T -> 0          :       -1625.05037857 Ha      -44219.87068314 eV  <-- do not rely on this value for anything but (periodic) metals
  | Electronic free energy        :       -1625.05037857 Ha      -44219.87068314 eV

  Derived energy quantities:
  | Kinetic energy                :        1628.51084578 Ha       44314.03478706 eV
  | Electrostatic energy          :       -3108.43451844 Ha      -84584.80687434 eV
  | Energy correction for multipole
  | error in Hartree potential    :           0.06105324 Ha           1.66134309 eV
  | Sum of eigenvalues per atom                           :       -2010.72696036 eV
  | Total energy (T->0) per atom                          :       -3684.98922360 eV  <-- do not rely on this value for anything but (periodic) metals
  | Electronic free energy per atom                       :       -3684.98922360 eV
  Evaluating new KS density.
  Integration grid: deviation in total charge (<rho> - N_e) =   0.000000E+00

  Self-consistency convergence accuracy:
  | Change of charge density      :  0.1319E+00
  | Change of sum of eigenvalues  : -0.3114E+02 eV
  | Change of total energy        :  0.3564E-01 eV


------------------------------------------------------------
  End self-consistency iteration #     3       :  max(cpu_time)    wall_clock(cpu1)
  | Time for this iteration                     :        0.084 s           0.082 s
  | Charge density update                       :        0.028 s           0.028 s
  | Density mixing                              :        0.003 s           0.001 s
  | Hartree multipole update                    :        0.001 s           0.002 s
  | Hartree multipole summation                 :        0.017 s           0.017 s
  | Integration                                 :        0.030 s           0.030 s
  | Solution of K.-S. eqns.                     :        0.004 s           0.004 s
  | Total energy evaluation                     :        0.000 s           0.000 s

  Partial memory accounting:
  | Current value for overall tracked memory usage:
  |   Minimum:        0.274 MB (on task 23)
  |   Maximum:        0.293 MB (on task  0)
  |   Average:        0.288 MB
  | Peak value for overall tracked memory usage:
  |   Minimum:        1.323 MB (on task 20 after allocating wave)
  |   Maximum:        1.406 MB (on task  2 after allocating wave)
  |   Average:        1.378 MB
  | Largest tracked array allocation so far:
  |   Minimum:        0.719 MB (gradient_basis_wave on task 20)
  |   Maximum:        0.763 MB (gradient_basis_wave on task  2)
  |   Average:        0.748 MB
  Note:  These values currently only include a subset of arrays which are explicitly tracked.
  The "true" memory usage will be greater.
------------------------------------------------------------

------------------------------------------------------------
          Begin self-consistency iteration #    4

  Date     :  20220517, Time     :  113430.032
------------------------------------------------------------
  Pulay mixing of updated and previous charge densities.
  Renormalizing the density to the exact electron count on the 3D integration grid.
  | Formal number of electrons (from input files) :     120.0000000000
  | Integrated number of electrons on 3D grid     :     120.0000000000
  | Charge integration error                      :       0.0000000000
  | Normalization factor for density and gradient :       1.0000000000

  Evaluating partitioned Hartree potential by multipole expansion.
  | Original multipole sum: apparent total charge =  -0.695563E-13
  | Sum of charges compensated after spline to logarithmic grids =   0.171534E-03
  | Analytical far-field extrapolation by fixed multipoles:
  | Hartree multipole sum: apparent total charge =  -0.691319E-13
  Summing up the Hartree potential.
  Time summed over all CPUs for potential: real work        0.382 s, elapsed        0.400 s
  | RMS charge density error from multipole expansion :   0.193206E-01

  Integrating Hamiltonian matrix: batch-based integration.
  Time summed over all CPUs for integration: real work        0.674 s, elapsed        0.707 s

  Updating Kohn-Sham eigenvalues and eigenvectors using ELSI and the ELPA eigensolver.
  Starting ELPA eigensolver
  Finished transformation to standard eigenproblem
  | Time :     0.001 s
  Finished solving standard eigenproblem
  | Time :     0.003 s
  Finished back-transformation of eigenvectors
  | Time :     0.000 s

  Obtaining occupation numbers and chemical potential using ELSI.
  | Chemical potential (Fermi level):    -8.23243536 eV
  Highest occupied state (VBM) at     -9.43147044 eV
  | Occupation number:      2.00000000

  Lowest unoccupied state (CBM) at    -4.91225497 eV
  | Occupation number:      0.00000000

  Overall HOMO-LUMO gap:      4.51921547 eV.

  Total energy components:
  | Sum of eigenvalues            :        -886.93348884 Ha      -24134.68819066 eV
  | XC energy correction          :        -145.10360804 Ha       -3948.47007071 eV
  | XC potential correction       :         188.93894590 Ha        5141.29030385 eV
  | Free-atom electrostatic energy:        -781.41331735 Ha      -21263.33823184 eV
  | Hartree energy correction     :          -0.53636907 Ha         -14.59534509 eV
  | Entropy correction            :           0.00000000 Ha           0.00000000 eV
  | ---------------------------
  | Total energy                  :       -1625.04783740 Ha      -44219.80153445 eV
  | Total energy, T -> 0          :       -1625.04783740 Ha      -44219.80153445 eV  <-- do not rely on this value for anything but (periodic) metals
  | Electronic free energy        :       -1625.04783740 Ha      -44219.80153445 eV

  Derived energy quantities:
  | Kinetic energy                :        1627.68804051 Ha       44291.64511635 eV
  | Electrostatic energy          :       -3107.63226987 Ha      -84562.97658009 eV
  | Energy correction for multipole
  | error in Hartree potential    :           0.06846643 Ha           1.86306647 eV
  | Sum of eigenvalues per atom                           :       -2011.22401589 eV
  | Total energy (T->0) per atom                          :       -3684.98346120 eV  <-- do not rely on this value for anything but (periodic) metals
  | Electronic free energy per atom                       :       -3684.98346120 eV
  Evaluating new KS density.
  Integration grid: deviation in total charge (<rho> - N_e) =   0.000000E+00

  Self-consistency convergence accuracy:
  | Change of charge density      :  0.9443E-01
  | Change of sum of eigenvalues  : -0.5965E+01 eV
  | Change of total energy        :  0.6915E-01 eV


------------------------------------------------------------
  End self-consistency iteration #     4       :  max(cpu_time)    wall_clock(cpu1)
  | Time for this iteration                     :        0.084 s           0.083 s
  | Charge density update                       :        0.028 s           0.028 s
  | Density mixing                              :        0.004 s           0.003 s
  | Hartree multipole update                    :        0.001 s           0.001 s
  | Hartree multipole summation                 :        0.017 s           0.017 s
  | Integration                                 :        0.030 s           0.030 s
  | Solution of K.-S. eqns.                     :        0.004 s           0.004 s
  | Total energy evaluation                     :        0.000 s           0.000 s

  Partial memory accounting:
  | Current value for overall tracked memory usage:
  |   Minimum:        0.274 MB (on task 23)
  |   Maximum:        0.293 MB (on task  0)
  |   Average:        0.288 MB
  | Peak value for overall tracked memory usage:
  |   Minimum:        1.323 MB (on task 20 after allocating wave)
  |   Maximum:        1.406 MB (on task  2 after allocating wave)
  |   Average:        1.378 MB
  | Largest tracked array allocation so far:
  |   Minimum:        0.719 MB (gradient_basis_wave on task 20)
  |   Maximum:        0.763 MB (gradient_basis_wave on task  2)
  |   Average:        0.748 MB
  Note:  These values currently only include a subset of arrays which are explicitly tracked.
  The "true" memory usage will be greater.
------------------------------------------------------------

------------------------------------------------------------
          Begin self-consistency iteration #    5

  Date     :  20220517, Time     :  113430.121
------------------------------------------------------------
  Pulay mixing of updated and previous charge densities.
  Renormalizing the density to the exact electron count on the 3D integration grid.
  | Formal number of electrons (from input files) :     120.0000000000
  | Integrated number of electrons on 3D grid     :     120.0000000000
  | Charge integration error                      :       0.0000000000
  | Normalization factor for density and gradient :       1.0000000000

  Evaluating partitioned Hartree potential by multipole expansion.
  | Original multipole sum: apparent total charge =  -0.756380E-14
  | Sum of charges compensated after spline to logarithmic grids =   0.171015E-03
  | Analytical far-field extrapolation by fixed multipoles:
  | Hartree multipole sum: apparent total charge =  -0.939326E-14
  Summing up the Hartree potential.
  Time summed over all CPUs for potential: real work        0.382 s, elapsed        0.400 s
  | RMS charge density error from multipole expansion :   0.190587E-01

  Integrating Hamiltonian matrix: batch-based integration.
  Time summed over all CPUs for integration: real work        0.674 s, elapsed        0.710 s

  Updating Kohn-Sham eigenvalues and eigenvectors using ELSI and the ELPA eigensolver.
  Starting ELPA eigensolver
  Finished transformation to standard eigenproblem
  | Time :     0.001 s
  Finished solving standard eigenproblem
  | Time :     0.003 s
  Finished back-transformation of eigenvectors
  | Time :     0.000 s

  Obtaining occupation numbers and chemical potential using ELSI.
  | Chemical potential (Fermi level):    -8.21385315 eV
  Highest occupied state (VBM) at     -9.48337020 eV
  | Occupation number:      2.00000000

  Lowest unoccupied state (CBM) at    -4.84348208 eV
  | Occupation number:      0.00000000

  Overall HOMO-LUMO gap:      4.63988812 eV.

  Total energy components:
  | Sum of eigenvalues            :        -886.70284186 Ha      -24128.41196710 eV
  | XC energy correction          :        -145.09762887 Ha       -3948.30736920 eV
  | XC potential correction       :         188.93131328 Ha        5141.08260967 eV
  | Free-atom electrostatic energy:        -781.41331735 Ha      -21263.33823184 eV
  | Hartree energy correction     :          -0.76516765 Ha         -20.82127113 eV
  | Entropy correction            :           0.00000000 Ha           0.00000000 eV
[...]
   Total forces(   7)            : -0.483334E-01  0.347834E+01  0.917137E+00
  atom #    8
   Hellmann-Feynman              : -0.143718E-01 -0.315067E+00  0.343330E+00
   Ionic forces                  :  0.000000E+00  0.000000E+00  0.000000E+00
   Multipole                     :  0.405845E+00 -0.278057E+00 -0.564857E-01
   Hartree pot. SCF incomplete   :  0.496609E-05 -0.772738E-06 -0.123772E-05
   Pulay + GGA                   : -0.158540E+01  0.601516E+00 -0.299903E+00
   ----------------------------------------------------------------
   Total forces(   8)            : -0.119392E+01  0.839118E-02 -0.130597E-01
  atom #    9
   Hellmann-Feynman              :  0.237148E+00  0.650253E+00 -0.391920E+00
   Ionic forces                  :  0.000000E+00  0.000000E+00  0.000000E+00
   Multipole                     : -0.419581E+00  0.226726E+00 -0.231501E+00
   Hartree pot. SCF incomplete   : -0.335503E-05  0.274195E-05 -0.197876E-05
   Pulay + GGA                   :  0.683579E+00 -0.102860E+01  0.162762E+01
   ----------------------------------------------------------------
   Total forces(   9)            :  0.501141E+00 -0.151616E+00  0.100420E+01
  atom #   10
   Hellmann-Feynman              : -0.854888E+00 -0.999585E+00  0.263549E+01
   Ionic forces                  :  0.000000E+00  0.000000E+00  0.000000E+00
   Multipole                     : -0.260270E+00 -0.286104E+00  0.630773E+00
   Hartree pot. SCF incomplete   :  0.973496E-07 -0.283762E-05  0.425665E-05
   Pulay + GGA                   :  0.227871E+01  0.238841E+01 -0.621356E+01
   ----------------------------------------------------------------
   Total forces(  10)            :  0.116356E+01  0.110272E+01 -0.294729E+01
  atom #   11
   Hellmann-Feynman              : -0.124566E+00  0.274605E+01 -0.116490E+01
   Ionic forces                  :  0.000000E+00  0.000000E+00  0.000000E+00
   Multipole                     : -0.921200E-01  0.678641E+00 -0.288323E+00
   Hartree pot. SCF incomplete   :  0.407998E-06  0.127735E-05 -0.617944E-05
   Pulay + GGA                   :  0.280410E+00 -0.667101E+01  0.225604E+01
   ----------------------------------------------------------------
   Total forces(  11)            :  0.637243E-01 -0.324632E+01  0.802813E+00
  atom #   12
   Hellmann-Feynman              : -0.375920E+00 -0.698707E+00  0.222936E+00
   Ionic forces                  :  0.000000E+00  0.000000E+00  0.000000E+00
   Multipole                     : -0.929123E-02 -0.187986E-01  0.469199E+00
   Hartree pot. SCF incomplete   : -0.134097E-05 -0.230466E-05  0.466410E-05
   Pulay + GGA                   :  0.106535E+01  0.108729E+01 -0.196741E+01
   ----------------------------------------------------------------
   Total forces(  12)            :  0.680139E+00  0.369780E+00 -0.127527E+01


  Self-consistency convergence accuracy:
  | Change of charge density      :  0.4442E-06
  | Change of sum of eigenvalues  : -0.2554E-04 eV
  | Change of total energy        : -0.3836E-09 eV
  | Change of forces              :  0.9723E-06 eV/A

  Writing Kohn-Sham eigenvalues.

  State    Occupation    Eigenvalue [Ha]    Eigenvalue [eV]
      1       2.00000         -55.644311        -1514.15875
      2       2.00000         -55.633229        -1513.85718
      3       2.00000         -55.632933        -1513.84913
      4       2.00000         -24.342049         -662.38085
      5       2.00000         -24.337216         -662.24934
      6       2.00000         -24.326882         -661.96815
      7       2.00000         -24.223859         -659.16474
      8       2.00000         -24.216313         -658.95942
      9       2.00000         -24.214479         -658.90949
     10       2.00000         -24.211829         -658.83738
     11       2.00000         -24.210386         -658.79813
     12       2.00000         -24.200263         -658.52266
     13       2.00000          -4.096691         -111.47662
     14       2.00000          -4.087239         -111.21944
     15       2.00000          -4.085873         -111.18227
     16       2.00000          -2.691156          -73.23008
     17       2.00000          -2.688333          -73.15325
     18       2.00000          -2.685073          -73.06455
     19       2.00000          -2.681439          -72.96568
     20       2.00000          -2.680275          -72.93401
     21       2.00000          -2.679275          -72.90679
     22       2.00000          -2.677398          -72.85571
     23       2.00000          -2.675527          -72.80480
     24       2.00000          -2.674394          -72.77395
     25       2.00000          -1.220101          -33.20063
     26       2.00000          -1.213762          -33.02815
     27       2.00000          -1.205488          -32.80299
     28       2.00000          -1.071277          -29.15093
     29       2.00000          -1.060083          -28.84632
     30       2.00000          -1.058282          -28.79732
     31       2.00000          -1.056875          -28.75904
     32       2.00000          -1.053942          -28.67922
     33       2.00000          -1.043193          -28.38673
     34       2.00000          -0.604035          -16.43664
     35       2.00000          -0.600003          -16.32691
     36       2.00000          -0.574549          -15.63428
     37       2.00000          -0.561099          -15.26827
     38       2.00000          -0.521468          -14.18986
     39       2.00000          -0.513721          -13.97905
     40       2.00000          -0.510285          -13.88557
     41       2.00000          -0.501834          -13.65559
     42       2.00000          -0.496740          -13.51697
     43       2.00000          -0.440128          -11.97650
     44       2.00000          -0.432060          -11.75696
     45       2.00000          -0.423503          -11.52410
     46       2.00000          -0.411886          -11.20800
     47       2.00000          -0.407916          -11.09996
     48       2.00000          -0.396880          -10.79965
     49       2.00000          -0.380477          -10.35331
     50       2.00000          -0.377377          -10.26895
     51       2.00000          -0.371540          -10.11011
     52       2.00000          -0.368386          -10.02429
     53       2.00000          -0.363974           -9.90423
     54       2.00000          -0.362949           -9.87635
     55       2.00000          -0.362294           -9.85853
     56       2.00000          -0.361834           -9.84601
     57       2.00000          -0.360645           -9.81366
     58       2.00000          -0.359315           -9.77746
     59       2.00000          -0.348794           -9.49116
     60       2.00000          -0.347612           -9.45899
     61       0.00000          -0.178058           -4.84519
     62       0.00000          -0.126270           -3.43599
     63       0.00000          -0.110905           -3.01788
     64       0.00000          -0.068911           -1.87515
     65       0.00000          -0.048814           -1.32829
     66       0.00000          -0.013619           -0.37058
     67       0.00000          -0.007232           -0.19679
     68       0.00000           0.009650            0.26260
     69       0.00000           0.021799            0.59317
     70       0.00000           0.044442            1.20933
     71       0.00000           0.046081            1.25392
     72       0.00000           0.049559            1.34856
     73       0.00000           0.122568            3.33526
     74       0.00000           0.141624            3.85377
     75       0.00000           0.148467            4.04000
     76       0.00000           0.164568            4.47813
     77       0.00000           0.176155            4.79342
     78       0.00000           0.177223            4.82247
     79       0.00000           0.180749            4.91842
     80       0.00000           0.188306            5.12406
     81       0.00000           0.194001            5.27903
     82       0.00000           0.197527            5.37497
     83       0.00000           0.202299            5.50485
     84       0.00000           0.207373            5.64291
     85       0.00000           0.223532            6.08262
     86       0.00000           0.231459            6.29831
     87       0.00000           0.244056            6.64110
     88       0.00000           0.273060            7.43035
     89       0.00000           0.278007            7.56495
     90       0.00000           0.282128            7.67708
     91       0.00000           0.289316            7.87268
     92       0.00000           0.292292            7.95366
     93       0.00000           0.317665            8.64411
     94       0.00000           0.323919            8.81428
     95       0.00000           0.344510            9.37459
     96       0.00000           0.354544            9.64762

  Highest occupied state (VBM) at     -9.45899358 eV
  | Occupation number:      2.00000000

  Lowest unoccupied state (CBM) at    -4.84519252 eV
  | Occupation number:      0.00000000

  Overall HOMO-LUMO gap:      4.61380106 eV.
  | Chemical Potential                          :    -8.20948517 eV

  Self-consistency cycle converged.


------------------------------------------------------------
  End self-consistency iteration #    14       :  max(cpu_time)    wall_clock(cpu1)
  | Time for this iteration                     :        0.271 s           0.269 s
  | Charge density & force component update     :        0.149 s           0.149 s
  | Density mixing                              :        0.005 s           0.002 s
  | Hartree multipole update                    :        0.001 s           0.002 s
  | Hartree multipole summation                 :        0.049 s           0.049 s
  | Hartree pot. SCF incomplete forces          :        0.032 s           0.032 s
  | Integration                                 :        0.030 s           0.030 s
  | Solution of K.-S. eqns.                     :        0.004 s           0.004 s
  | Total energy evaluation                     :        0.000 s           0.000 s

  Partial memory accounting:
  | Current value for overall tracked memory usage:
  |   Minimum:        0.274 MB (on task 23)
  |   Maximum:        0.293 MB (on task  0)
  |   Average:        0.289 MB
  | Peak value for overall tracked memory usage:
  |   Minimum:        2.943 MB (on task 20 after allocating hessian_basis_wave)
  |   Maximum:        3.105 MB (on task  2 after allocating hessian_basis_wave)
  |   Average:        3.051 MB
  | Largest tracked array allocation so far:
  |   Minimum:        1.437 MB (hessian_basis_wave on task 20)
  |   Maximum:        1.526 MB (hessian_basis_wave on task  2)
  |   Average:        1.497 MB
  Note:  These values currently only include a subset of arrays which are explicitly tracked.
  The "true" memory usage will be greater.
------------------------------------------------------------
  Removing unitary transformations (pure translations, rotations) from forces on atoms.
  Atomic forces before filtering:
  | Net force on center of mass :   0.282884E-02 -0.693865E-02  0.981262E-02 eV/A
  | Net torque on center of mass:  -0.151737E-01 -0.373771E-01  0.573632E-02 eV
  Atomic forces after filtering:
  | Net force on center of mass :   0.892031E-16  0.892031E-16  0.107044E-14 eV/A
  | Net torque on center of mass:  -0.278505E-14 -0.113290E-14 -0.672660E-15 eV

  Energy and forces in a compact form:
  | Total energy uncorrected      :         -0.442197957712734E+05 eV
  | Total energy corrected        :         -0.442197957712734E+05 eV  <-- do not rely on this value for anything but (periodic) metals
  | Electronic free energy        :         -0.442197957712734E+05 eV
  Total atomic forces (unitary forces cleaned) [eV/Ang]:
  |    1         -0.115957468997474E+01          0.185319495009703E+01          0.267796346469092E+01
  |    2          0.429416200777696E+01         -0.432674314155109E+00          0.667298268428371E+00
  |    3         -0.139966678667259E+01         -0.139484719017129E+01         -0.350629974638041E+01
  |    4         -0.249812891789008E+01         -0.257922060537188E+01         -0.110085636441489E+00
  |    5          0.100887098842014E+01         -0.220950042852484E+01          0.278035368158005E+01
  |    6         -0.141274521940416E+01          0.319931837864211E+01         -0.994580560644080E+00
  |    7         -0.493794475874217E-01          0.347934245999066E+01          0.916683356550056E+00
  |    8         -0.119355564991938E+01          0.863178061903866E-02         -0.146862603185287E-01
  |    9          0.499933817700717E+00         -0.150547388863278E+00          0.100330762375558E+01
  |   10          0.116538340911331E+01          0.110227073529328E+01         -0.294767502814307E+01
  |   11          0.642476144475427E-01         -0.324608648503411E+01          0.802891474544446E+00
  |   12          0.680452873989701E+00          0.370118107478391E+00         -0.127517063762185E+01

  ------------------------------------ 
  Start decomposition of the XC Energy 
  ------------------------------------ 
  X and C from original XC functional choice 
  Hartree-Fock Energy :          0.000000000 Ha              0.000000000 eV
  X Energy            :       -140.169254981 Ha          -3814.199492373 eV
  C Energy            :         -4.933761332 Ha           -134.254476630 eV
  Total XC Energy     :       -145.103016313 Ha          -3948.453969003 eV
  ------------------------------------ 
  LDA X and C from self-consistent density 
  X Energy LDA        :       -132.736080826 Ha          -3611.932532375 eV
  C Energy LDA        :         -8.821138884 Ha           -240.035401887 eV
  ------------------------------------ 
  End decomposition of the XC Energy 
  ------------------------------------ 

------------------------------------------------------------

------------------------------------------------------------------------------
  Final output of selected total energy values:

  The following output summarizes some interesting total energy values
  at the end of a run (AFTER all relaxation, molecular dynamics, etc.).

  | Total energy of the DFT / Hartree-Fock s.c.f. calculation      :         -44219.795771273 eV
  | Final zero-broadening corrected energy (caution - metals only) :         -44219.795771273 eV
  | For reference only, the value of 1 Hartree used in FHI-aims is :             27.211384500 eV

  Before relying on these values, please be sure to understand exactly which
  total energy value is referred to by a given number. Different objects may
  all carry the same name 'total energy'. Definitions:

  Total energy of the DFT / Hartree-Fock s.c.f. calculation:
  | Note that this energy does not include ANY quantities calculated after the
  | s.c.f. cycle, in particular not ANY RPA, MP2, etc. many-body perturbation terms.

  Final zero-broadening corrected energy:
  | For metallic systems only, a broadening of the occupation numbers at the Fermi
  | level can be extrapolated back to zero broadening by an electron-gas inspired
  | formula. For all systems that are not real metals, this value can be
  | meaningless and should be avoided.

------------------------------------------------------------------------------
  Methods described in the following list of references were used in this FHI-aims run.
  If you publish the results, please make sure to cite these reference if they apply.
  FHI-aims is an academic code, and for our developers (often, Ph.D. students
  and postdocs), scientific credit in the community is essential.
  Thank you for helping us!

  For any use of FHI-aims, please cite:

    Volker Blum, Ralf Gehrke, Felix Hanke, Paula Havu, Ville Havu,
    Xinguo Ren, Karsten Reuter, and Matthias Scheffler
    'Ab initio molecular simulations with numeric atom-centered orbitals'
    Computer Physics Communications 180, 2175-2196 (2009)
    http://dx.doi.org/10.1016/j.cpc.2009.06.022


  The ELSI infrastructure was used in your run to solve the Kohn-Sham electronic structure.
  Please check out http://elsi-interchange.org to learn more.
  If scalability is important for your project, please acknowledge ELSI by citing:

    V. W-z. Yu, F. Corsetti, A. Garcia, W. P. Huhn, M. Jacquelin, W. Jia,
    B. Lange, L. Lin, J. Lu, W. Mi, A. Seifitokaldani, A. Vazquez-Mayagoitia,
    C. Yang, H. Yang, and V. Blum
    'ELSI: A unified software interface for Kohn-Sham electronic structure solvers'
    Computer Physics Communications 222, 267-285 (2018).
    http://dx.doi.org/10.1016/j.cpc.2017.09.007


  For the real-space grid partitioning and parallelization used in this calculation, please cite:

    Ville Havu, Volker Blum, Paula Havu, and Matthias Scheffler,
    'Efficient O(N) integration for all-electron electronic structure calculation'
    'using numerically tabulated basis functions'
    Journal of Computational Physics 228, 8367-8379 (2009).
    http://dx.doi.org/10.1016/j.jcp.2009.08.008

  Of course, there are many other important community references, e.g., those cited in the
  above references. Our list is limited to references that describe implementations in the
  FHI-aims code. The reason is purely practical (length of this list) - please credit others as well.

------------------------------------------------------------
          Leaving FHI-aims.
          Date     :  20220517, Time     :  113431.392

          Computational steps:
          | Number of self-consistency cycles          :           14
          | Number of SCF (re)initializations          :            1

          Detailed time accounting                     :  max(cpu_time)    wall_clock(cpu1)
          | Total time                                  :        1.928 s           1.999 s
          | Preparation time                            :        0.184 s           0.184 s
          | Boundary condition initalization            :        0.000 s           0.000 s
          | Grid partitioning                           :        0.038 s           0.038 s
          | Preloading free-atom quantities on grid     :        0.016 s           0.016 s
          | Free-atom superposition energy              :        0.005 s           0.005 s
          | Total time for integrations                 :        0.464 s           0.463 s
          | Total time for solution of K.-S. equations  :        0.068 s           0.069 s
          | Total time for density & force components   :        0.658 s           0.657 s
          | Total time for mixing                       :        0.059 s           0.028 s
          | Total time for Hartree multipole update     :        0.018 s           0.020 s
          | Total time for Hartree multipole sum        :        0.304 s           0.303 s
          | Total time for total energy evaluation      :        0.002 s           0.001 s
          | Total time NSC force correction             :        0.064 s           0.064 s
          | Total time for scaled ZORA corrections      :        0.000 s           0.000 s

          Partial memory accounting:
          | Residual value for overall tracked memory usage across tasks:     0.000000 MB (should be 0.000000 MB)
          | Peak values for overall tracked memory usage:
          |   Minimum:        2.943 MB (on task 20 after allocating hessian_basis_wave)
          |   Maximum:        3.105 MB (on task  2 after allocating hessian_basis_wave)
          |   Average:        3.051 MB
          | Largest tracked array allocation:
          |   Minimum:        1.437 MB (hessian_basis_wave on task 20)
          |   Maximum:        1.526 MB (hessian_basis_wave on task  2)
          |   Average:        1.497 MB
          Note:  These values currently only include a subset of arrays which are explicitly tracked.
          The "true" memory usage will be greater.

          Have a nice day.
------------------------------------------------------------
