------------------------------------------------------------
          Invoking FHI-aims ...

          When using FHI-aims, please cite the following reference:

            Volker Blum, Ralf Gehrke, Felix Hanke, Paula Havu,
            Ville Havu, Xinguo Ren, Karsten Reuter, and Matthias Scheffler,
            'Ab Initio Molecular Simulations with Numeric Atom-Centered Orbitals',
            Computer Physics Communications 180, 2175-2196 (2009)

          In addition, many other developments in FHI-aims are likely important for
          your particular application. A partial list of references is given at the end of
          this file. Thank you for giving credit to the authors of these developments.

          For any questions about FHI-aims, please visit our slack channel at

            https://fhi-aims.slack.com

          and our main development and support site at

            https://aims-git.rz-berlin.mpg.de .

          The latter site, in particular, has a wiki to collect information, as well
          as an issue tracker to log discussions, suggest improvements, and report issues
          or bugs. https://aims-git.rz-berlin.mpg.de is also the main development site
          of the project and all new and updated code versions can be obtained there.
          Please send an email to aims-coordinators@fhi-berlin.mpg.de and we will add
          you to these sites. They are for you and everyone is welcome there.

------------------------------------------------------------



  Date     :  20220517, Time     :  121426.829
  Time zero on CPU 1             :   0.404770000000000E-01  s.
  Internal wall clock time zero  :           422021666.829  s.

  FHI-aims created a unique identifier for this run for later identification
  aims_uuid : BC0EEBEC-154A-4C3E-AA07-790CEF22F4A7

  Build configuration of the current instance of FHI-aims
  -------------------------------------------------------
  FHI-aims version      : 210914
  Commit number         : GITDIR-NOTFOUND
  CMake host system     : Linux-3.10.0-693.17.1.el7.x86_64
  CMake version         : 3.21.1
  Fortran compiler      : /shared/ucl/apps/intel/2018.Update3/impi/2018.3.222/intel64/bin/mpiifort (Intel) version 18.0.3.20180410
  Fortran compiler flags: -O3 -ip -fp-model precise
  C compiler            : /shared/ucl/apps/intel/2018.Update3/compilers_and_libraries_2018.3.222/linux/bin/intel64/icc (Intel) version 18.0.3.20180410
  C compiler flags      : -O3 -ip -fp-model precise -std=gnu99
  ELPA2 kernel          : AVX2
  Using MPI
  Using ScaLAPACK
  Using LibXC
  Using i-PI
  Using RLSY
  Linking against: /shared/ucl/apps/intel/2019.Update5/compilers_and_libraries_2019.5.281/linux/mkl/lib/intel64/libmkl_intel_lp64.so
                   /shared/ucl/apps/intel/2019.Update5/compilers_and_libraries_2019.5.281/linux/mkl/lib/intel64/libmkl_sequential.so
                   /shared/ucl/apps/intel/2019.Update5/compilers_and_libraries_2019.5.281/linux/mkl/lib/intel64/libmkl_core.so
                   /shared/ucl/apps/intel/2019.Update5/compilers_and_libraries_2019.5.281/linux/mkl/lib/intel64/libmkl_blacs_intelmpi_lp64.so
                   /shared/ucl/apps/intel/2019.Update5/compilers_and_libraries_2019.5.281/linux/mkl/lib/intel64/libmkl_scalapack_lp64.so

  Using       24 parallel tasks.
  Task        0 on host node-k98a-011 reporting.
  Task        1 on host node-k98a-011 reporting.
  Task        2 on host node-k98a-011 reporting.
  Task        3 on host node-k98a-011 reporting.
  Task        4 on host node-k98a-011 reporting.
  Task        5 on host node-k98a-011 reporting.
  Task        6 on host node-k98a-011 reporting.
  Task        7 on host node-k98a-011 reporting.
  Task        8 on host node-k98a-011 reporting.
  Task        9 on host node-k98a-011 reporting.
  Task       10 on host node-k98a-011 reporting.
  Task       11 on host node-k98a-011 reporting.
  Task       12 on host node-k98a-011 reporting.
  Task       13 on host node-k98a-011 reporting.
  Task       14 on host node-k98a-011 reporting.
  Task       15 on host node-k98a-011 reporting.
  Task       16 on host node-k98a-011 reporting.
  Task       17 on host node-k98a-011 reporting.
  Task       18 on host node-k98a-011 reporting.
  Task       19 on host node-k98a-011 reporting.
  Task       20 on host node-k98a-011 reporting.
  Task       21 on host node-k98a-011 reporting.
  Task       22 on host node-k98a-011 reporting.
  Task       23 on host node-k98a-011 reporting.

  Performing system and environment tests:
  | Environment variable OMP_NUM_THREADS correctly set to 1.
  | Checking for ScaLAPACK...
  | Testing pdtran()...
  | All pdtran() tests passed.

  Obtaining array dimensions for all initial allocations:
  
  -----------------------------------------------------------------------
  Parsing control.in (first pass over file, find array dimensions only).
  The contents of control.in will be repeated verbatim below
  unless switched off by setting 'verbatim_writeout .false.' .
  in the first line of control.in .
  -----------------------------------------------------------------------
  
  #########################################################################################  Physical model
  #########################################################################################
  xc                 pbesol
  spin               none
  relativistic       atomic_zora scalar
  charge             0.0
  #  SCF convergence
  occupation_type    gaussian 0.01
  mixer              pulay
  n_max_pulay        10
  charge_mix_param   0.5
  sc_accuracy_rho    1E-5
  sc_accuracy_eev    1E-3
  sc_accuracy_etot   1E-6
  sc_accuracy_forces 1E-4
  sc_iter_limit      1500
  #  Relaxation
  #relax_geometry   bfgs 1.e-3
  
  ################################################################################
  #
  #  FHI-aims code project
  #  VB, Fritz-Haber Institut, 2009
  #
  #  Suggested "light" defaults for Al atom (to be pasted into control.in file)
  #  Be sure to double-check any results obtained with these settings for post-processing,
  #  e.g., with the "tight" defaults and larger basis sets.
  #
  ################################################################################
    species        Al
  #     global species definitions
      nucleus             13
      mass                26.9815386
  #
      l_hartree           4
  #
      cut_pot             3.5          1.5  1.0
      basis_dep_cutoff    1e-4
  #
      radial_base         41 5.0
      radial_multiplier   1
      angular_grids       specified
        division   0.6594  110
        division   0.8170  194
        division   0.9059  302
  #      division   1.0363  434
  #      division   1.1443  590
  #      division   1.2621  770
  #      division   2.8177  974
  #      outer_grid   974
        outer_grid   302
  ################################################################################
  #
  #  Definition of "minimal" basis
  #
  ################################################################################
  #     valence basis states
      valence      3  s   2.
      valence      3  p   1.
  #     ion occupancy
      ion_occ      3  s   1.
      ion_occ      2  p   6.
  ################################################################################
  #
  #  Suggested additional basis functions. For production calculations,
  #  uncomment them one after another (the most important basis functions are
  #  listed first).
  #
  #  Constructed for dimers: 2.0 A, 2.5 A, 3.0 A, 3.75 A, 4.5 A
  #
  ################################################################################
  #  "First tier" - improvements: -199.47 meV to -10.63 meV
       ionic 3 d auto
       ionic 3 p auto
  #     hydro 4 f 4.7
       ionic 3 s auto
  #  "Second tier" - improvements: -5.35 meV to -1.57 meV
  #     hydro 5 g 7
  #     hydro 3 d 6
  #     hydro 2 s 11.6
  #     hydro 2 p 0.9
  #  "Third tier" - improvements: -0.63 meV to -0.20 meV
  #     hydro 5 f 7.6
  #     hydro 4 p 7.2
  #     hydro 4 s 3.7
  #     hydro 4 d 7.6
  #  "Fourth tier" - improvements: -0.17 meV to -0.08 meV
  #     hydro 4 d 13.6
  #     hydro 5 g 11.2
  #     hydro 4 d 0.9
  #     hydro 1 s 0.4
  #     hydro 4 p 0.1
  #     hydro 5 f 9.8
  #  Further basis functions that fell out of the optimization - noise level...
  #     hydro 4 p 5
  
  ################################################################################
  #
  #  FHI-aims code project
  #  VB, Fritz-Haber Institut, 2009
  #
  #  Suggested "light" defaults for F atom (to be pasted into control.in file)
  #  Be sure to double-check any results obtained with these settings for post-processing,
  #  e.g., with the "tight" defaults and larger basis sets.
  #
  ################################################################################
    species        F
  #     global species definitions
      nucleus             9
      mass                18.9984032
  #
      l_hartree           4
  #
      cut_pot             3.5  1.5  1.0
      basis_dep_cutoff    1e-4
  #
      radial_base         37 5.0
      radial_multiplier   1
      angular_grids specified
        division   0.4014  110
        division   0.5291  194
        division   0.6019  302
  #      division   0.6814  434
  #      division   0.7989  590
  #      division   0.8965  770
  #      division   1.3427  974
  #      outer_grid   974
        outer_grid   302
  ################################################################################
  #
  #  Definition of "minimal" basis
  #
  ################################################################################
  #     valence basis states
      valence      2  s   2.
      valence      2  p   5.
  #     ion occupancy
      ion_occ      2  s   1.
      ion_occ      2  p   4.
  ################################################################################
  #
  #  Suggested additional basis functions. For production calculations,
  #  uncomment them one after another (the most important basis functions are
  #  listed first).
  #
  #  Constructed for dimers: 1.2 A, 1.418 A, 1.75 A, 2.25 A, 3.25 A
  #
  ################################################################################
  #  "First tier" - improvements: -149.44 meV to -45.88 meV
       hydro 2 p 1.7
       hydro 3 d 7.4
       hydro 3 s 6.8
  #  "Second tier" - improvements: -12.96 meV to -1.56 meV
  #     hydro 4 f 11.2
  #     ionic 2 p auto
  #     hydro 1 s 0.75
  #     hydro 4 d 8.8
  #     hydro 5 g 16.8
  #  "Third tier" - improvements: -0.58 meV to -0.05 meV
  #     hydro 3 p 6.2
  #     hydro 3 s 3.2
  #     hydro 4 f 9.6
  #     hydro 3 s 19.6
  #     hydro 4 d 8.6
  #     hydro 5 g 14.4
  # Further basis functions: -0.05 meV and below
  #     hydro 3 p 4.2
  
  -----------------------------------------------------------------------
  Completed first pass over input file control.in .
  -----------------------------------------------------------------------
  
  
  -----------------------------------------------------------------------
  Parsing geometry.in (first pass over file, find array dimensions only).
  The contents of geometry.in will be repeated verbatim below
  unless switched off by setting 'verbatim_writeout .false.' .
  in the first line of geometry.in .
  -----------------------------------------------------------------------
  
  atom -0.046048613 1.559496372 2.144189220 Al
  atom 2.537416496 2.579201825 1.754772375 Al
  atom 1.309765684 2.786344584 -0.625094854 Al
  atom 1.029427378 2.995907336 2.885546863 F
  atom -1.560305483 2.602199122 2.257188786 F
  atom -0.439301071 -0.131905066 2.658207830 F
  atom 1.838278553 0.829092793 1.841819065 F
  atom 2.943373345 1.940950253 -0.133412416 F
  atom 1.007064609 3.233240933 -2.350639412 F
  atom 1.721898894 4.048630587 0.719435667 F
  atom 4.130927768 3.076815977 2.446616380 F
  atom -0.024970991 1.842859810 0.210270293 F
  
  -----------------------------------------------------------------------
  Completed first pass over input file geometry.in .
  -----------------------------------------------------------------------
  

  Basic array size parameters:
  | Number of species                 :        2
  | Number of atoms                   :       12
  | Max. basis fn. angular momentum   :        2
  | Max. atomic/ionic basis occupied n:        3
  | Max. number of basis fn. types    :        3
  | Max. radial fns per species/type  :        5
  | Max. logarithmic grid size        :     1340
  | Max. radial integration grid size :       41
  | Max. angular integration grid size:      302
  | Max. angular grid division number :        8
  | Radial grid for Hartree potential :     1340
  | Number of spin channels           :        1

------------------------------------------------------------
          Reading file control.in.
------------------------------------------------------------
  XC: Using PBEsol gradient-corrected functionals.
  Spin treatment: No spin polarisation.
  Scalar relativistic treatment of kinetic energy: on-site free-atom approximation to ZORA.
  Charge =   0.000000E+00: Neutral system requested explicitly.
  Occupation type: Gaussian broadening, width =   0.100000E-01 eV.
  Using pulay charge density mixing.
  Pulay mixing - number of memorized iterations:   10
  Charge density mixing - mixing parameter:     0.5000
  Convergence accuracy of self-consistent charge density:  0.1000E-04
  Convergence accuracy of sum of eigenvalues:  0.1000E-02
  Convergence accuracy of total energy:  0.1000E-05
  Convergence accuracy of forces:  0.1000E-03
  Maximum number of s.-c. iterations  :  1500
 
  Reading configuration options for species Al                  .
  | Found nuclear charge :  13.0000
  | Found atomic mass :    26.9815386000000      amu
  | Found l_max for Hartree potential  :   4
  | Found cutoff potl. onset [A], width [A], scale factor :    3.50000    1.50000    1.00000
  | Threshold for basis-dependent cutoff potential is   0.100000E-03
  | Found data for basic radial integration grid :    41 points, outermost radius =    5.000 A
  | Found multiplier for basic radial grid :   1
  | Found angular grid specification: user-specified.
  | Specified grid contains     4 separate shells.
  | Check grid settings after all constraints further below.
  | Found free-atom valence shell :  3 s   2.000
  | Found free-atom valence shell :  3 p   1.000
  | Found free-ion valence shell :  3 s   1.000
  | Found free-ion valence shell :  2 p   6.000
  | Found ionic basis function :  3 d , default cutoff radius.
  | Found ionic basis function :  3 p , default cutoff radius.
  | Found ionic basis function :  3 s , default cutoff radius.
  Species Al                  : Missing cutoff potential type.
  Defaulting to exp(1/x)/(1-x)^2 type cutoff potential.
  Species Al: No 'logarithmic' tag. Using default grid for free atom:
  | Default logarithmic grid data [bohr] : 0.1000E-03 0.1000E+03 0.1012E+01
  | Will include ionic basis functions of  2.0-fold positive Al                   ion.
  Species Al: On-site basis accuracy parameter (for Gram-Schmidt orthonormalisation) not specified.
  Using default value basis_acc =  0.1000000E-03.
  Species Al                  : Using default innermost maximum threshold i_radial=  2 for radial functions.
  Species Al                  : Default cutoff onset for free atom density etc. : 0.35000000E+01 AA.
  Species Al                  : Basic radial grid will be enhanced according to radial_multiplier =   1, to contain    41 grid points.
 
  Reading configuration options for species F                   .
  | Found nuclear charge :   9.0000
  | Found atomic mass :    18.9984032000000      amu
  | Found l_max for Hartree potential  :   4
  | Found cutoff potl. onset [A], width [A], scale factor :    3.50000    1.50000    1.00000
  | Threshold for basis-dependent cutoff potential is   0.100000E-03
  | Found data for basic radial integration grid :    37 points, outermost radius =    5.000 A
  | Found multiplier for basic radial grid :   1
  | Found angular grid specification: user-specified.
  | Specified grid contains     4 separate shells.
  | Check grid settings after all constraints further below.
  | Found free-atom valence shell :  2 s   2.000
  | Found free-atom valence shell :  2 p   5.000
  | Found free-ion valence shell :  2 s   1.000
  | Found free-ion valence shell :  2 p   4.000
  | Found hydrogenic basis function :  2 p   1.700
  | Found hydrogenic basis function :  3 d   7.400
  | Found hydrogenic basis function :  3 s   6.800
  Species F                   : Missing cutoff potential type.
  Defaulting to exp(1/x)/(1-x)^2 type cutoff potential.
  Species F : No 'logarithmic' tag. Using default grid for free atom:
  | Default logarithmic grid data [bohr] : 0.1000E-03 0.1000E+03 0.1012E+01
  Species F : On-site basis accuracy parameter (for Gram-Schmidt orthonormalisation) not specified.
  Using default value basis_acc =  0.1000000E-03.
  Species F                   : Using default innermost maximum threshold i_radial=  2 for radial functions.
  Species F                   : Default cutoff onset for free atom density etc. : 0.35000000E+01 AA.
  Species F                   : Basic radial grid will be enhanced according to radial_multiplier =   1, to contain    37 grid points.
 
  Finished reading input file 'control.in'.
 
------------------------------------------------------------


------------------------------------------------------------
          Reading geometry description geometry.in.
------------------------------------------------------------
  | The smallest distance between any two atoms is         1.80708222 AA.
  | The first atom of this pair is atom number                      2 .
  | The second atom of this pair is atom number                    11 .
  Input structure read successfully.
  The structure contains       12 atoms,  and a total of        120.000 electrons.

  Input geometry:
  | No unit cell requested.
  | Atomic structure:
  |       Atom                x [A]            y [A]            z [A]
  |    1: Species Al           -0.04604861        1.55949637        2.14418922
  |    2: Species Al            2.53741650        2.57920183        1.75477238
  |    3: Species Al            1.30976568        2.78634458       -0.62509485
  |    4: Species F             1.02942738        2.99590734        2.88554686
  |    5: Species F            -1.56030548        2.60219912        2.25718879
  |    6: Species F            -0.43930107       -0.13190507        2.65820783
  |    7: Species F             1.83827855        0.82909279        1.84181906
  |    8: Species F             2.94337334        1.94095025       -0.13341242
  |    9: Species F             1.00706461        3.23324093       -2.35063941
  |   10: Species F             1.72189889        4.04863059        0.71943567
  |   11: Species F             4.13092777        3.07681598        2.44661638
  |   12: Species F            -0.02497099        1.84285981        0.21027029

 
  Finished reading input file 'control.in'.
 

------------------------------------------------------------
          Reading geometry description geometry.in.
------------------------------------------------------------
 
  Consistency checks for stacksize environment parameter are next.
 
  | Maximum stacksize for task 0: unlimited
  | Maximum stacksize for task 1: unlimited
  | Maximum stacksize for task 2: unlimited
  | Maximum stacksize for task 3: unlimited
  | Maximum stacksize for task 4: unlimited
  | Maximum stacksize for task 5: unlimited
  | Maximum stacksize for task 6: unlimited
  | Maximum stacksize for task 7: unlimited
  | Maximum stacksize for task 8: unlimited
  | Maximum stacksize for task 9: unlimited
  | Maximum stacksize for task 10: unlimited
  | Maximum stacksize for task 11: unlimited
  | Maximum stacksize for task 12: unlimited
  | Maximum stacksize for task 13: unlimited
  | Maximum stacksize for task 14: unlimited
  | Maximum stacksize for task 15: unlimited
  | Maximum stacksize for task 16: unlimited
  | Maximum stacksize for task 17: unlimited
  | Maximum stacksize for task 18: unlimited
  | Maximum stacksize for task 19: unlimited
  | Maximum stacksize for task 20: unlimited
  | Maximum stacksize for task 21: unlimited
  | Maximum stacksize for task 22: unlimited
  | Maximum stacksize for task 23: unlimited
  | Current stacksize for task 0: unlimited
  | Current stacksize for task 1: unlimited
  | Current stacksize for task 2: unlimited
  | Current stacksize for task 3: unlimited
  | Current stacksize for task 4: unlimited
  | Current stacksize for task 5: unlimited
  | Current stacksize for task 6: unlimited
  | Current stacksize for task 7: unlimited
  | Current stacksize for task 8: unlimited
  | Current stacksize for task 9: unlimited
  | Current stacksize for task 10: unlimited
  | Current stacksize for task 11: unlimited
  | Current stacksize for task 12: unlimited
  | Current stacksize for task 13: unlimited
  | Current stacksize for task 14: unlimited
  | Current stacksize for task 15: unlimited
  | Current stacksize for task 16: unlimited
  | Current stacksize for task 17: unlimited
  | Current stacksize for task 18: unlimited
  | Current stacksize for task 19: unlimited
  | Current stacksize for task 20: unlimited
  | Current stacksize for task 21: unlimited
  | Current stacksize for task 22: unlimited
  | Current stacksize for task 23: unlimited
 
  Consistency checks for the contents of control.in are next.
 
  MPI_IN_PLACE appears to work with this MPI implementation.
  | Keeping use_mpi_in_place .true. (see manual).
  Target number of points in a grid batch is not set. Defaulting to  100
  Method for grid partitioning is not set. Defaulting to parallel hash+maxmin partitioning.
  Batch size limit is not set. Defaulting to    200
  By default, will store active basis functions for each batch.
  If in need of memory, prune_basis_once .false. can be used to disable this option.
  communication_type for Hartree potential was not specified.
  Defaulting to calc_hartree .
  Pulay mixer: Number of initial linear mixing iterations not set.
  Defaulting to    0 iterations.
  Work space size for distributed Hartree potential not set.
  Defaulting to   0.200000E+03 MB.
  Algorithm-dependent basis array size parameters:
  | n_max_pulay                         :       10
  Presetting      1001 iterations before the initial mixing cycle
  is restarted anyway using the sc_init_iter criterion / keyword.
  Presetting a factor      1.000 between actual scf density residual
  and density convergence criterion sc_accuracy_rho below which sc_init_iter
  takes no effect.
  Geometry relaxation not requested: no relaxation will be performed.
  Forces evaluation will include force correction term due to incomplete self-consistency (default).
  Handling of forces: Unphysical translation and rotation will be removed from forces.
  No accuracy limit for integral partition fn. given. Defaulting to  0.1000E-14.
  No threshold value for u(r) in integrations given. Defaulting to  0.1000E-05.
  No accuracy for occupation numbers given. Defaulting to  0.1000E-12.
  No threshold value for occupation numbers given. Defaulting to  0.0000E+00.
  No accuracy for fermi level given. Defaulting to  0.1000E-19.
  Maximum # of iterations to find E_F not set. Defaulting to  200.
  Preferred method for the eigenvalue solver ('KS_method') not specified in 'control.in'.
  Calling BLACS routine to test compilation state
  Since ScaLAPACK support is enabled, defaulting to ELPA (via ELSI).
  Will not use alltoall communication since running on < 1024 CPUs.
  Threshold for basis singularities not set.
  Default threshold for basis singularities:  0.1000E-04
  partition_type (choice of integration weights) for integrals was not specified.
  | Using a version of the partition function of Stratmann and coworkers ('stratmann_sparse').
  | At each grid point, the set of atoms used to build the partition table is smoothly restricted to
  | only those atoms whose free-atom density would be non-zero at that grid point.
  Partitioning for Hartree potential was not defined. Using partition_type for integrals.
  | Adjusted default value of keyword multip_moments_threshold to:       0.10000000E-11
  | This value may affect high angular momentum components of the Hartree potential in periodic systems.
  No q(lm)/r^(l+1) cutoff set for long-range Hartree potential.
  | Using default value of  0.100000E-09 .
  | Verify using the multipole_threshold keyword.
  Defaulting to new monopole extrapolation.
  Density update method: automatic selection selected.
  Charge integration errors on the 3D integration grid will be compensated
  by explicit normalization and distribution of residual charges.
  Use the "compensate_multipole_errors" flag to change this behaviour.
  Set 'collect_eigenvectors' to be '.true.' for use_density_matrix .false.
 
  Consistency checks for the contents of geometry.in are next.
 
  Number of empty states per atom not set in control.in - providing a guess from actual geometry.
  | Total number of empty states used during s.c.f. cycle:       36
  If you use a very high smearing, use empty_states (per atom!) in control.in to increase this value.

  Structure-dependent array size parameters: 
  | Maximum number of distinct radial functions  :       14
  | Maximum number of basis functions            :      180
  | Number of Kohn-Sham states (occupied + empty):       96
------------------------------------------------------------

------------------------------------------------------------
          Preparing all fixed parts of the calculation.
------------------------------------------------------------
  Determining machine precision:
    2.225073858507201E-308
  Setting up grids for atomic and cluster calculations.

  Creating wave function, potential, and density for free atoms.

  Species: Al

  List of occupied orbitals and eigenvalues:
    n    l              occ      energy [Ha]    energy [eV]
    1    0           2.0000       -55.621123     -1513.5278
    2    0           2.0000        -3.957030      -107.6763
    3    0           2.0000        -0.272233        -7.4078
    2    1           6.0000        -2.540949       -69.1427
    3    1           1.0000        -0.083300        -2.2667


  Species: F

  List of occupied orbitals and eigenvalues:
    n    l              occ      energy [Ha]    energy [eV]
    1    0           2.0000       -24.399611      -663.9472
    2    0           2.0000        -1.098702       -29.8972
    2    1           5.0000        -0.408210       -11.1080


  Adding cutoff potential to free-atom effective potential.
  Creating fixed part of basis set: Ionic, confined, hydrogenic.
 
  Al                   ion:

  List of free ionic orbitals and eigenvalues:
    n    l      energy [Ha]    energy [eV]
    1    0       -56.418846     -1535.2349
    2    0        -4.732717      -128.7838
    3    0        -0.872690       -23.7471
    2    1        -3.317230       -90.2664


  List of ionic basis orbitals and eigenvalues:
    n    l      energy [Ha]    energy [eV]    outer radius [A]
    3    2        -0.346815        -9.4373       4.594041
    3    1        -0.631870       -17.1940       4.538221
    3    0        -0.872657       -23.7462       4.538221

 
  F                    hydrogenic:
 
  List of hydrogenic basis orbitals: 
    n    l      effective z      eigenvalue [eV]  inner max. [A]     outer max. [A]     outer radius [A]   
    2    1         1.700000        -9.7616           1.243167           1.243167           4.598524
    3    2         7.400000       -82.7828           0.642437           0.642437           3.305741
    3    0         6.800000       -69.9026           0.057798           1.022307           3.781556
 
  Creating atomic-like basis functions for current effective potential.

  Species Al                  :

  List of atomic basis orbitals and eigenvalues:
    n    l      energy [Ha]    energy [eV]    outer radius [A]
    1    0       -55.621123     -1513.5278       0.850197
    2    0        -3.957030      -107.6763       3.144911
    3    0        -0.272233        -7.4078       4.594041
    2    1        -2.540949       -69.1427       3.731966
    3    1        -0.083300        -2.2667       4.594041


  Species F                   :

  List of atomic basis orbitals and eigenvalues:
    n    l      energy [Ha]    energy [eV]    outer radius [A]
    1    0       -24.399611      -663.9472       1.258458
    2    0        -1.098702       -29.8972       4.325857
    2    1        -0.408210       -11.1080       4.487453

  Assembling full basis from fixed parts.
  | Species Al :   atomic orbital   1 s accepted.
  | Species Al :   atomic orbital   2 s accepted.
  | Species Al :    ionic orbital   3 s accepted.
  | Species Al :   atomic orbital   3 s accepted.
  | Species Al :   atomic orbital   2 p accepted.
  | Species Al :    ionic orbital   3 p accepted.
  | Species Al :   atomic orbital   3 p accepted.
  | Species Al :    ionic orbital   3 d accepted.
  | Species F :   atomic orbital   1 s accepted.
  | Species F :    hydro orbital   3 s accepted.
  | Species F :   atomic orbital   2 s accepted.
  | Species F :   atomic orbital   2 p accepted.
  | Species F :    hydro orbital   2 p accepted.
  | Species F :    hydro orbital   3 d accepted.
 
  Basis size parameters after reduction:
  | Total number of radial functions:       14
  | Total number of basis functions :      180
 
  Per-task memory consumption for arrays in subroutine allocate_ext:
  |           4.807768MB.
  Testing on-site integration grid accuracy.
  |  Species  Function  <phi|h_atom|phi> (log., in eV)  <phi|h_atom|phi> (rad., in eV)
           1        1              -1513.5277717935              -1513.5271881332
           1        2               -107.6762691836               -107.6762662489
           1        3                 -6.9467474784                 -6.9471269649
           1        4                  5.5771951849                  5.4862107220 ***
           1        5                -69.1427313144                -69.1427312731
           1        6                 -1.5197375330                 -1.5230432022
           1        7                  6.8210948310                  6.5529872240 ***
           1        8                  4.3216540965                  4.2851170187 ***
           2        9               -663.9471986398               -663.9470363334
           2       10                 16.8514011578                 16.8512525338
           2       11                -28.4490593856                -28.4490661472
           2       12                -11.1080115307                -11.1080620173
           2       13                  7.1940182175                  7.1685154137
           2       14                 44.8544281765                 44.8543763625
 * Note: Onsite integrals marked "***" above are less accurate than
 * onsite_accuracy_threshold =    0.03000 eV. Usually, this is harmless.
 * When in doubt, tighten the "radial" and/or "radial_multiplier" flags to check.

  Preparing densities etc. for the partition functions (integrals / Hartree potential).

  Preparations completed.
  max(cpu_time)          :      0.184 s.
  Wall clock time (cpu1) :      0.184 s.
------------------------------------------------------------

------------------------------------------------------------
          Begin self-consistency loop: Initialization.

          Date     :  20220517, Time     :  121427.064
------------------------------------------------------------

  Initializing index lists of integration centers etc. from given atomic structure:
  | Number of centers in hartree potential         :        12
  | Number of centers in hartree multipole         :        12
  | Number of centers in electron density summation:        12
  | Number of centers in basis integrals           :        12
  | Number of centers in integrals                 :        12
  | Number of centers in hamiltonian               :        12
  * Using 24 tasks for Scalapack Eigenvalue solver.
  Detailed listing of tasks and assigned k-points:
  (for non-periodic systems, the "k-point" denotes an internal label only)
   Task     0 k-point     1 on node-k98a-011
   Task     1 k-point     1 on node-k98a-011
   Task     2 k-point     1 on node-k98a-011
   Task     3 k-point     1 on node-k98a-011
   Task     4 k-point     1 on node-k98a-011
   Task     5 k-point     1 on node-k98a-011
   Task     6 k-point     1 on node-k98a-011
   Task     7 k-point     1 on node-k98a-011
   Task     8 k-point     1 on node-k98a-011
   Task     9 k-point     1 on node-k98a-011
   Task    10 k-point     1 on node-k98a-011
   Task    11 k-point     1 on node-k98a-011
   Task    12 k-point     1 on node-k98a-011
   Task    13 k-point     1 on node-k98a-011
   Task    14 k-point     1 on node-k98a-011
   Task    15 k-point     1 on node-k98a-011
   Task    16 k-point     1 on node-k98a-011
   Task    17 k-point     1 on node-k98a-011
   Task    18 k-point     1 on node-k98a-011
   Task    19 k-point     1 on node-k98a-011
   Task    20 k-point     1 on node-k98a-011
   Task    21 k-point     1 on node-k98a-011
   Task    22 k-point     1 on node-k98a-011
   Task    23 k-point     1 on node-k98a-011
  Tasks:    24 split into      6 X      4 BLACS grid
  Calculating block size based on n_basis =          180  max_nprow =            6  max_npcol =            4
  ScaLAPACK block size set to:           16
  Allocating        0.012 MB for ovlp
  Allocating        0.012 MB for ham
  Allocating        0.012 MB for eigenvec
  Required Scalapack workspace - INTEGER:            1  REAL:             1
  Partitioning the integration grid into batches with parallel hashing+maxmin method.
  | Number of batches:     1022
  | Maximal batch size:     187
  | Minimal batch size:      17
  | Average batch size:      89.941
  | Standard deviation of batch sizes:      23.985

  Integration load balanced across    24 MPI tasks.
  Work distribution over tasks is as follows:
  Task     0 has       3850 integration points.
  Task     1 has       3831 integration points.
  Task     2 has       3840 integration points.
  Task     3 has       3798 integration points.
  Task     4 has       3846 integration points.
  Task     5 has       3785 integration points.
  Task     6 has       3840 integration points.
  Task     7 has       3920 integration points.
  Task     8 has       3789 integration points.
  Task     9 has       3864 integration points.
  Task    10 has       3789 integration points.
  Task    11 has       3845 integration points.
  Task    12 has       3854 integration points.
  Task    13 has       3859 integration points.
  Task    14 has       3800 integration points.
  Task    15 has       3794 integration points.
  Task    16 has       3796 integration points.
  Task    17 has       3843 integration points.
  Task    18 has       3786 integration points.
  Task    19 has       3859 integration points.
  Task    20 has       3852 integration points.
  Task    21 has       3791 integration points.
  Task    22 has       3786 integration points.
  Task    23 has       3903 integration points.
  Initializing partition tables, free-atom densities, potentials, etc. across the integration grid (initialize_grid_storage).
  | initialize_grid_storage: Actual outermost partition radius vs. multipole_radius_free
  | (-- VB: in principle, multipole_radius_free should be larger, hence this output)
  | Species        1: Confinement radius =              4.999999999999999 AA, multipole_radius_free =              5.004487022111096 AA.
  | Species        1: outer_partition_radius set to              5.004487022111096 AA .
  | Species        2: Confinement radius =              4.999999999999999 AA, multipole_radius_free =              5.009370088163274 AA.
  | Species        2: outer_partition_radius set to              5.009370088163274 AA .
  | The sparse table of interatomic distances needs          1.64 kbyte instead of         1.15 kbyte of memory.
  | Using the partition_type stratmann_smoother will reduce your memory usage.
  | Net number of integration points:    91920
  | of which are non-zero points    :    85111
  Renormalizing the initial density to the exact electron count on the 3D integration grid.
  | Initial density: Formal number of electrons (from input files) :     120.0000000000
  | Integrated number of electrons on 3D grid     :     119.9998663003
  | Charge integration error                      :      -0.0001336997
  | Normalization factor for density and gradient :       1.0000011142
  Renormalizing the free-atom superposition density to the exact electron count on the 3D integration grid.
  | Formal number of electrons (from input files) :     120.0000000000
  | Integrated number of electrons on 3D grid     :     119.9998663003
  | Charge integration error                      :      -0.0001336997
  | Normalization factor for density and gradient :       1.0000011142
  Obtaining max. number of non-zero basis functions in each batch (get_n_compute_maxes).
  | Maximal number of non-zero basis functions:      171 in task     0
  | Maximal number of non-zero basis functions:      170 in task     1
  | Maximal number of non-zero basis functions:      165 in task     2
  | Maximal number of non-zero basis functions:      164 in task     3
  | Maximal number of non-zero basis functions:      165 in task     4
  | Maximal number of non-zero basis functions:      164 in task     5
  | Maximal number of non-zero basis functions:      165 in task     6
  | Maximal number of non-zero basis functions:      166 in task     7
  | Maximal number of non-zero basis functions:      172 in task     8
  | Maximal number of non-zero basis functions:      164 in task     9
  | Maximal number of non-zero basis functions:      164 in task    10
  | Maximal number of non-zero basis functions:      170 in task    11
  | Maximal number of non-zero basis functions:      165 in task    12
  | Maximal number of non-zero basis functions:      166 in task    13
  | Maximal number of non-zero basis functions:      163 in task    14
  | Maximal number of non-zero basis functions:      173 in task    15
  | Maximal number of non-zero basis functions:      164 in task    16
  | Maximal number of non-zero basis functions:      171 in task    17
  | Maximal number of non-zero basis functions:      172 in task    18
  | Maximal number of non-zero basis functions:      170 in task    19
  | Maximal number of non-zero basis functions:      172 in task    20
  | Maximal number of non-zero basis functions:      169 in task    21
  | Maximal number of non-zero basis functions:      167 in task    22
  | Maximal number of non-zero basis functions:      170 in task    23
  Selecting the method for density update.
  Loop over occupied states selected for charge density update.
  Allocating        0.132 MB for KS_eigenvector
  Integrating Hamiltonian matrix: batch-based integration.
  Time summed over all CPUs for integration: real work        0.758 s, elapsed        0.798 s
  Integrating overlap matrix.
  Time summed over all CPUs for integration: real work        0.287 s, elapsed        0.309 s
  Deallocating overlap matrix.

  Updating Kohn-Sham eigenvalues and eigenvectors using ELSI and the ELPA eigensolver.
  Overlap matrix is not singular
  | Lowest and highest eigenvalues :  0.3111E-02,  0.5736E+01
  Finished singularity check of overlap matrix
  | Time :     0.010 s
  Starting ELPA eigensolver
  Finished Cholesky decomposition
  | Time :     0.009 s
  Finished transformation to standard eigenproblem
  | Time :     0.004 s
  Finished solving standard eigenproblem
  | Time :     0.012 s
  Finished back-transformation of eigenvectors
  | Time :     0.002 s

  Obtaining occupation numbers and chemical potential using ELSI.
  | Chemical potential (Fermi level):    -7.32750171 eV
  Writing Kohn-Sham eigenvalues.

  State    Occupation    Eigenvalue [Ha]    Eigenvalue [eV]
      1       2.00000         -55.485908        -1509.84838
      2       2.00000         -55.484755        -1509.81700
      3       2.00000         -55.483986        -1509.79609
      4       2.00000         -24.364468         -662.99091
      5       2.00000         -24.357171         -662.79234
      6       2.00000         -24.356020         -662.76103
      7       2.00000         -24.353039         -662.67990
      8       2.00000         -24.351670         -662.64266
      9       2.00000         -24.341623         -662.36927
     10       2.00000         -24.341509         -662.36615
     11       2.00000         -24.341196         -662.35764
     12       2.00000         -24.337691         -662.26226
     13       2.00000          -3.951491         -107.52553
     14       2.00000          -3.950073         -107.48694
     15       2.00000          -3.949138         -107.46152
     16       2.00000          -2.544561          -69.24103
     17       2.00000          -2.543485          -69.21175
     18       2.00000          -2.542926          -69.19653
     19       2.00000          -2.542510          -69.18523
     20       2.00000          -2.541701          -69.16321
     21       2.00000          -2.541653          -69.16191
     22       2.00000          -2.541291          -69.15204
     23       2.00000          -2.540721          -69.13655
     24       2.00000          -2.539987          -69.11655
     25       2.00000          -1.190960          -32.40766
     26       2.00000          -1.181343          -32.14598
     27       2.00000          -1.175034          -31.97431
     28       2.00000          -1.170556          -31.85246
     29       2.00000          -1.161396          -31.60319
     30       2.00000          -1.150512          -31.30702
     31       2.00000          -1.150201          -31.29857
     32       2.00000          -1.149847          -31.28892
     33       2.00000          -1.143985          -31.12941
     34       2.00000          -0.560310          -15.24680
     35       2.00000          -0.557591          -15.17283
     36       2.00000          -0.543764          -14.79656
     37       2.00000          -0.522368          -14.21436
     38       2.00000          -0.519936          -14.14817
     39       2.00000          -0.510514          -13.89180
     40       2.00000          -0.507481          -13.80927
     41       2.00000          -0.502479          -13.67315
     42       2.00000          -0.497974          -13.55055
     43       2.00000          -0.495454          -13.48200
     44       2.00000          -0.490016          -13.33401
     45       2.00000          -0.487508          -13.26577
     46       2.00000          -0.479113          -13.03733
     47       2.00000          -0.473069          -12.87285
     48       2.00000          -0.472428          -12.85541
     49       2.00000          -0.466940          -12.70610
     50       2.00000          -0.464775          -12.64717
     51       2.00000          -0.461007          -12.54463
     52       2.00000          -0.454258          -12.36099
     53       2.00000          -0.453289          -12.33461
     54       2.00000          -0.452865          -12.32307
     55       2.00000          -0.452150          -12.30364
     56       2.00000          -0.451352          -12.28190
     57       2.00000          -0.450736          -12.26514
     58       2.00000          -0.443629          -12.07175
     59       2.00000          -0.443301          -12.06284
     60       2.00000          -0.439996          -11.97291
     61       0.00000          -0.143089           -3.89365
     62       0.00000          -0.087898           -2.39181
     63       0.00000          -0.070211           -1.91054
     64       0.00000          -0.032986           -0.89760
     65       0.00000          -0.021400           -0.58233
     66       0.00000           0.001008            0.02743
     67       0.00000           0.020019            0.54476
     68       0.00000           0.030906            0.84098
     69       0.00000           0.050595            1.37676
     70       0.00000           0.074313            2.02215
     71       0.00000           0.077911            2.12006
     72       0.00000           0.116221            3.16254
     73       0.00000           0.148970            4.05368
     74       0.00000           0.162099            4.41093
     75       0.00000           0.168937            4.59701
     76       0.00000           0.179737            4.89088
     77       0.00000           0.193717            5.27130
     78       0.00000           0.197309            5.36906
     79       0.00000           0.210434            5.72620
     80       0.00000           0.215633            5.86768
     81       0.00000           0.225077            6.12465
     82       0.00000           0.227994            6.20403
     83       0.00000           0.237859            6.47246
     84       0.00000           0.240976            6.55730
     85       0.00000           0.259383            7.05817
     86       0.00000           0.266011            7.23853
     87       0.00000           0.269585            7.33579
     88       0.00000           0.276876            7.53417
     89       0.00000           0.278826            7.58725
     90       0.00000           0.293617            7.98972
     91       0.00000           0.297071            8.08371
     92       0.00000           0.337483            9.18338
     93       0.00000           0.340564            9.26723
     94       0.00000           0.360820            9.81840
     95       0.00000           0.371998           10.12259
     96       0.00000           0.385462           10.48895

  Highest occupied state (VBM) at    -11.97291235 eV
  | Occupation number:      2.00000000

  Lowest unoccupied state (CBM) at    -3.89364630 eV
  | Occupation number:      0.00000000

  Overall HOMO-LUMO gap:      8.07926605 eV.
  Calculating total energy contributions from superposition of free atom densities.

  Total energy components:
  | Sum of eigenvalues            :        -887.71341847 Ha      -24155.91115590 eV
  | XC energy correction          :        -144.39735265 Ha       -3929.25188363 eV
  | XC potential correction       :         188.01717850 Ha        5116.20773690 eV
  | Free-atom electrostatic energy:        -781.26200674 Ha      -21259.22086065 eV
  | Hartree energy correction     :           0.00000000 Ha           0.00000000 eV
  | Entropy correction            :           0.00000000 Ha           0.00000000 eV
  | ---------------------------
  | Total energy                  :       -1625.35559935 Ha      -44228.17616327 eV
  | Total energy, T -> 0          :       -1625.35559935 Ha      -44228.17616327 eV  <-- do not rely on this value for anything but (periodic) metals
  | Electronic free energy        :       -1625.35559935 Ha      -44228.17616327 eV

  Derived energy quantities:
  | Kinetic energy                :        1627.74244446 Ha       44293.12552304 eV
  | Electrostatic energy          :       -3108.70069116 Ha      -84592.04980268 eV
  | Energy correction for multipole
  | error in Hartree potential    :           0.00000000 Ha           0.00000000 eV
  | Sum of eigenvalues per atom                           :       -2012.99259632 eV
  | Total energy (T->0) per atom                          :       -3685.68134694 eV  <-- do not rely on this value for anything but (periodic) metals
  | Electronic free energy per atom                       :       -3685.68134694 eV
  Initialize hartree_potential_storage
  Max. number of atoms included in rho_multipole:           12

  End scf initialization - timings             :  max(cpu_time)    wall_clock(cpu1)
  | Time for scf. initialization                :        0.170 s           0.171 s
  | Boundary condition initialization           :        0.000 s           0.000 s
  | Integration                                 :        0.051 s           0.051 s
  | Solution of K.-S. eqns.                     :        0.041 s           0.041 s
  | Grid partitioning                           :        0.046 s           0.046 s
  | Preloading free-atom quantities on grid     :        0.017 s           0.017 s
  | Free-atom superposition energy              :        0.006 s           0.006 s
  | Total energy evaluation                     :        0.000 s           0.000 s

  Partial memory accounting:
  | Current value for overall tracked memory usage:
  |   Minimum:        0.273 MB (on task 23)
  |   Maximum:        0.292 MB (on task  0)
  |   Average:        0.287 MB
  | Peak value for overall tracked memory usage:
  |   Minimum:        1.318 MB (on task  3 after allocating wave)
  |   Maximum:        1.382 MB (on task  8 after allocating wave)
  |   Average:        1.347 MB
  | Largest tracked array allocation so far:
  |   Minimum:        0.234 MB (H_times_psi on task  3)
  |   Maximum:        0.563 MB (all_coords on task 14)
  |   Average:        0.267 MB
  Note:  These values currently only include a subset of arrays which are explicitly tracked.
  The "true" memory usage will be greater.
------------------------------------------------------------
  Evaluating new KS density.
  Integration grid: deviation in total charge (<rho> - N_e) =   2.842171E-14

  Time for density update prior                :  max(cpu_time)    wall_clock(cpu1)
  | self-consistency iterative process          :        0.029 s           0.029 s

------------------------------------------------------------
          Begin self-consistency iteration #    1

  Date     :  20220517, Time     :  121427.266
------------------------------------------------------------
  Pulay mixing of updated and previous charge densities.
  Renormalizing the density to the exact electron count on the 3D integration grid.
  | Formal number of electrons (from input files) :     120.0000000000
  | Integrated number of electrons on 3D grid     :     120.0000000000
  | Charge integration error                      :       0.0000000000
  | Normalization factor for density and gradient :       1.0000000000

  Evaluating partitioned Hartree potential by multipole expansion.
  | Original multipole sum: apparent total charge =  -0.105401E-13
  | Sum of charges compensated after spline to logarithmic grids =   0.837855E-04
  | Analytical far-field extrapolation by fixed multipoles:
  | Hartree multipole sum: apparent total charge =  -0.115548E-13
  Summing up the Hartree potential.
  Time summed over all CPUs for potential: real work        0.381 s, elapsed        0.394 s
  | RMS charge density error from multipole expansion :   0.109529E-01

  Integrating Hamiltonian matrix: batch-based integration.
  Time summed over all CPUs for integration: real work        0.706 s, elapsed        0.741 s

  Updating Kohn-Sham eigenvalues and eigenvectors using ELSI and the ELPA eigensolver.
  Starting ELPA eigensolver
  Finished transformation to standard eigenproblem
  | Time :     0.004 s
  Finished solving standard eigenproblem
  | Time :     0.009 s
  Finished back-transformation of eigenvectors
  | Time :     0.001 s

  Obtaining occupation numbers and chemical potential using ELSI.
  | Chemical potential (Fermi level):    -7.31761406 eV
  Writing Kohn-Sham eigenvalues.

  State    Occupation    Eigenvalue [Ha]    Eigenvalue [eV]
      1       2.00000         -55.676892        -1515.04531
      2       2.00000         -55.660606        -1514.60215
      3       2.00000         -55.620483        -1513.51036
      4       2.00000         -24.247828         -659.81696
      5       2.00000         -24.233467         -659.42618
      6       2.00000         -24.212050         -658.84340
      7       2.00000         -24.200772         -658.53652
      8       2.00000         -24.190250         -658.25021
      9       2.00000         -24.091591         -655.56554
     10       2.00000         -24.075277         -655.12162
     11       2.00000         -24.043164         -654.24778
     12       2.00000         -24.031059         -653.91838
     13       2.00000          -4.115514         -111.98884
     14       2.00000          -4.099053         -111.54091
     15       2.00000          -4.059246         -110.45770
     16       2.00000          -2.708379          -73.69876
     17       2.00000          -2.708192          -73.69366
     18       2.00000          -2.708030          -73.68923
     19       2.00000          -2.692783          -73.27435
     20       2.00000          -2.691531          -73.24028
     21       2.00000          -2.690860          -73.22202
     22       2.00000          -2.653051          -72.19318
     23       2.00000          -2.652464          -72.17721
     24       2.00000          -2.650095          -72.11277
     25       2.00000          -1.168516          -31.79693
     26       2.00000          -1.155799          -31.45090
     27       2.00000          -1.132136          -30.80700
     28       2.00000          -1.127773          -30.68828
     29       2.00000          -1.108214          -30.15603
     30       2.00000          -1.036784          -28.21232
     31       2.00000          -1.021325          -27.79167
     32       2.00000          -0.993376          -27.03112
     33       2.00000          -0.981357          -26.70409
     34       2.00000          -0.558565          -15.19932
     35       2.00000          -0.547285          -14.89238
     36       2.00000          -0.523890          -14.25578
     37       2.00000          -0.498039          -13.55232
     38       2.00000          -0.490227          -13.33976
     39       2.00000          -0.478445          -13.01914
     40       2.00000          -0.475494          -12.93884
     41       2.00000          -0.472191          -12.84897
     42       2.00000          -0.456496          -12.42188
     43       2.00000          -0.450504          -12.25885
     44       2.00000          -0.434424          -11.82128
     45       2.00000          -0.422288          -11.49105
     46       2.00000          -0.416686          -11.33861
     47       2.00000          -0.411936          -11.20935
     48       2.00000          -0.400511          -10.89846
     49       2.00000          -0.391316          -10.64824
     50       2.00000          -0.382513          -10.40870
     51       2.00000          -0.366542           -9.97412
     52       2.00000          -0.346620           -9.43202
     53       2.00000          -0.345632           -9.40513
     54       2.00000          -0.332340           -9.04342
     55       2.00000          -0.330768           -9.00067
     56       2.00000          -0.328702           -8.94445
     57       2.00000          -0.307183           -8.35889
     58       2.00000          -0.302858           -8.24118
     59       2.00000          -0.289739           -7.88420
     60       2.00000          -0.283228           -7.70702
     61       0.00000          -0.162528           -4.42260
     62       0.00000          -0.101019           -2.74887
     63       0.00000          -0.066548           -1.81087
     64       0.00000          -0.061273           -1.66732
     65       0.00000          -0.053384           -1.45265
     66       0.00000          -0.018103           -0.49261
     67       0.00000           0.017263            0.46974
     68       0.00000           0.025496            0.69379
     69       0.00000           0.036659            0.99755
     70       0.00000           0.060515            1.64670
     71       0.00000           0.088808            2.41659
     72       0.00000           0.098330            2.67570
     73       0.00000           0.143994            3.91827
     74       0.00000           0.155848            4.24083
     75       0.00000           0.159712            4.34599
     76       0.00000           0.163262            4.44257
     77       0.00000           0.181381            4.93562
     78       0.00000           0.191839            5.22022
     79       0.00000           0.199089            5.41749
     80       0.00000           0.215676            5.86885
     81       0.00000           0.216449            5.88989
     82       0.00000           0.224790            6.11684
     83       0.00000           0.231309            6.29423
     84       0.00000           0.234943            6.39311
     85       0.00000           0.247742            6.74141
     86       0.00000           0.249118            6.77884
     87       0.00000           0.257010            6.99359
     88       0.00000           0.267952            7.29134
     89       0.00000           0.278225            7.57090
     90       0.00000           0.285238            7.76173
     91       0.00000           0.290149            7.89535
     92       0.00000           0.338863            9.22092
     93       0.00000           0.350687            9.54267
     94       0.00000           0.367464            9.99920
     95       0.00000           0.380412           10.35153
     96       0.00000           0.388094           10.56058

  Highest occupied state (VBM) at     -7.70701599 eV
  | Occupation number:      2.00000000

  Lowest unoccupied state (CBM) at    -4.42260344 eV
  | Occupation number:      0.00000000

  Overall HOMO-LUMO gap:      3.28441255 eV.

  Total energy components:
  | Sum of eigenvalues            :        -882.96467889 Ha      -24026.69137725 eV
  | XC energy correction          :        -145.68264325 Ha       -3964.22642056 eV
  | XC potential correction       :         189.70651220 Ha        5162.17684558 eV
  | Free-atom electrostatic energy:        -781.26200674 Ha      -21259.22086065 eV
  | Hartree energy correction     :          -4.93777906 Ha        -134.36380447 eV
  | Entropy correction            :           0.00000000 Ha           0.00000000 eV
  | ---------------------------
  | Total energy                  :       -1625.14059574 Ha      -44222.32561734 eV
  | Total energy, T -> 0          :       -1625.14059574 Ha      -44222.32561734 eV  <-- do not rely on this value for anything but (periodic) metals
  | Electronic free energy        :       -1625.14059574 Ha      -44222.32561734 eV

  Derived energy quantities:
  | Kinetic energy                :        1633.86363400 Ha       44459.69156538 eV
  | Electrostatic energy          :       -3113.32158649 Ha      -84717.79076217 eV
  | Energy correction for multipole
  | error in Hartree potential    :           0.03341702 Ha           0.90932342 eV
  | Sum of eigenvalues per atom                           :       -2002.22428144 eV
  | Total energy (T->0) per atom                          :       -3685.19380144 eV  <-- do not rely on this value for anything but (periodic) metals
  | Electronic free energy per atom                       :       -3685.19380144 eV
  Evaluating new KS density.
  Integration grid: deviation in total charge (<rho> - N_e) =  -1.421085E-14

  Self-consistency convergence accuracy:
  | Change of charge density      :  0.5897E+00
  | Change of sum of eigenvalues  :  0.1292E+03 eV
  | Change of total energy        :  0.5851E+01 eV


------------------------------------------------------------
  End self-consistency iteration #     1       :  max(cpu_time)    wall_clock(cpu1)
  | Time for this iteration                     :        0.102 s           0.102 s
  | Charge density update                       :        0.029 s           0.029 s
  | Density mixing                              :        0.001 s           0.001 s
  | Hartree multipole update                    :        0.003 s           0.003 s
  | Hartree multipole summation                 :        0.018 s           0.019 s
  | Integration                                 :        0.033 s           0.033 s
  | Solution of K.-S. eqns.                     :        0.016 s           0.016 s
  | Total energy evaluation                     :        0.001 s           0.001 s

  Partial memory accounting:
  | Current value for overall tracked memory usage:
  |   Minimum:        0.273 MB (on task 23)
  |   Maximum:        0.292 MB (on task  0)
  |   Average:        0.287 MB
  | Peak value for overall tracked memory usage:
  |   Minimum:        1.318 MB (on task  3 after allocating wave)
  |   Maximum:        1.382 MB (on task  8 after allocating wave)
  |   Average:        1.347 MB
  | Largest tracked array allocation so far:
  |   Minimum:        0.698 MB (gradient_basis_wave on task 14)
  |   Maximum:        0.740 MB (gradient_basis_wave on task 15)
  |   Average:        0.717 MB
  Note:  These values currently only include a subset of arrays which are explicitly tracked.
  The "true" memory usage will be greater.
------------------------------------------------------------

------------------------------------------------------------
          Begin self-consistency iteration #    2

  Date     :  20220517, Time     :  121427.375
------------------------------------------------------------
  Pulay mixing of updated and previous charge densities.
  Renormalizing the density to the exact electron count on the 3D integration grid.
  | Formal number of electrons (from input files) :     120.0000000000
  | Integrated number of electrons on 3D grid     :     120.0000000000
  | Charge integration error                      :      -0.0000000000
  | Normalization factor for density and gradient :       1.0000000000

  Evaluating partitioned Hartree potential by multipole expansion.
  | Original multipole sum: apparent total charge =  -0.473875E-13
  | Sum of charges compensated after spline to logarithmic grids =   0.441338E-04
  | Analytical far-field extrapolation by fixed multipoles:
  | Hartree multipole sum: apparent total charge =  -0.489741E-13
  Summing up the Hartree potential.
  Time summed over all CPUs for potential: real work        0.379 s, elapsed        0.392 s
  | RMS charge density error from multipole expansion :   0.127557E-01

  Integrating Hamiltonian matrix: batch-based integration.
  Time summed over all CPUs for integration: real work        0.706 s, elapsed        0.735 s

  Updating Kohn-Sham eigenvalues and eigenvectors using ELSI and the ELPA eigensolver.
  Starting ELPA eigensolver
  Finished transformation to standard eigenproblem
  | Time :     0.004 s
  Finished solving standard eigenproblem
  | Time :     0.010 s
  Finished back-transformation of eigenvectors
  | Time :     0.002 s

  Obtaining occupation numbers and chemical potential using ELSI.
  | Chemical potential (Fermi level):    -7.55748319 eV
  Highest occupied state (VBM) at     -8.73376041 eV
  | Occupation number:      2.00000000

  Lowest unoccupied state (CBM) at    -4.65057710 eV
  | Occupation number:      0.00000000

  Overall HOMO-LUMO gap:      4.08318330 eV.

  Checking to see if s.c.f. parameters should be adjusted.

  Total energy components:
  | Sum of eigenvalues            :        -885.84256268 Ha      -24105.00257950 eV
  | XC energy correction          :        -145.21271213 Ha       -3951.43894411 eV
  | XC potential correction       :         189.08828442 Ha        5145.35401193 eV
  | Free-atom electrostatic energy:        -781.26200674 Ha      -21259.22086065 eV
  | Hartree energy correction     :          -1.85301465 Ha         -50.42309409 eV
  | Entropy correction            :           0.00000000 Ha           0.00000000 eV
  | ---------------------------
  | Total energy                  :       -1625.08201177 Ha      -44220.73146642 eV
  | Total energy, T -> 0          :       -1625.08201177 Ha      -44220.73146642 eV  <-- do not rely on this value for anything but (periodic) metals
  | Electronic free energy        :       -1625.08201177 Ha      -44220.73146642 eV

  Derived energy quantities:
  | Kinetic energy                :        1630.09917049 Ha       44357.25530139 eV
  | Electrostatic energy          :       -3109.96847013 Ha      -84626.54782370 eV
  | Energy correction for multipole
  | error in Hartree potential    :           0.03737539 Ha           1.01703618 eV
  | Sum of eigenvalues per atom                           :       -2008.75021496 eV
  | Total energy (T->0) per atom                          :       -3685.06095553 eV  <-- do not rely on this value for anything but (periodic) metals
  | Electronic free energy per atom                       :       -3685.06095553 eV
  Evaluating new KS density.
  Integration grid: deviation in total charge (<rho> - N_e) =   4.263256E-14

  Self-consistency convergence accuracy:
  | Change of charge density      :  0.4544E+00
  | Change of sum of eigenvalues  : -0.7831E+02 eV
  | Change of total energy        :  0.1594E+01 eV


------------------------------------------------------------
  End self-consistency iteration #     2       :  max(cpu_time)    wall_clock(cpu1)
  | Time for this iteration                     :        0.104 s           0.101 s
  | Charge density update                       :        0.028 s           0.029 s
  | Density mixing                              :        0.006 s           0.004 s
  | Hartree multipole update                    :        0.001 s           0.001 s
  | Hartree multipole summation                 :        0.017 s           0.017 s
  | Integration                                 :        0.033 s           0.033 s
  | Solution of K.-S. eqns.                     :        0.017 s           0.017 s
  | Total energy evaluation                     :        0.000 s           0.000 s

  Partial memory accounting:
  | Current value for overall tracked memory usage:
  |   Minimum:        0.274 MB (on task 23)
  |   Maximum:        0.293 MB (on task  0)
  |   Average:        0.288 MB
  | Peak value for overall tracked memory usage:
  |   Minimum:        1.318 MB (on task  3 after allocating wave)
  |   Maximum:        1.382 MB (on task  8 after allocating wave)
  |   Average:        1.347 MB
  | Largest tracked array allocation so far:
  |   Minimum:        0.698 MB (gradient_basis_wave on task 14)
  |   Maximum:        0.740 MB (gradient_basis_wave on task 15)
  |   Average:        0.717 MB
  Note:  These values currently only include a subset of arrays which are explicitly tracked.
  The "true" memory usage will be greater.
------------------------------------------------------------

------------------------------------------------------------
          Begin self-consistency iteration #    3

  Date     :  20220517, Time     :  121427.484
------------------------------------------------------------
  Pulay mixing of updated and previous charge densities.
  Renormalizing the density to the exact electron count on the 3D integration grid.
  | Formal number of electrons (from input files) :     120.0000000000
  | Integrated number of electrons on 3D grid     :     120.0000000000
  | Charge integration error                      :      -0.0000000000
  | Normalization factor for density and gradient :       1.0000000000

  Evaluating partitioned Hartree potential by multipole expansion.
  | Original multipole sum: apparent total charge =  -0.927227E-13
  | Sum of charges compensated after spline to logarithmic grids =   0.533814E-04
  | Analytical far-field extrapolation by fixed multipoles:
  | Hartree multipole sum: apparent total charge =  -0.918157E-13
  Summing up the Hartree potential.
  Time summed over all CPUs for potential: real work        0.380 s, elapsed        0.397 s
  | RMS charge density error from multipole expansion :   0.173687E-01

  Integrating Hamiltonian matrix: batch-based integration.
  Time summed over all CPUs for integration: real work        0.706 s, elapsed        0.757 s

  Updating Kohn-Sham eigenvalues and eigenvectors using ELSI and the ELPA eigensolver.
  Starting ELPA eigensolver
  Finished transformation to standard eigenproblem
  | Time :     0.005 s
  Finished solving standard eigenproblem
  | Time :     0.010 s
  Finished back-transformation of eigenvectors
  | Time :     0.002 s

  Obtaining occupation numbers and chemical potential using ELSI.
  | Chemical potential (Fermi level):    -7.55408257 eV
  Highest occupied state (VBM) at     -8.36822335 eV
  | Occupation number:      2.00000000

  Lowest unoccupied state (CBM) at    -4.88536594 eV
  | Occupation number:      0.00000000

  Overall HOMO-LUMO gap:      3.48285741 eV.

  Total energy components:
  | Sum of eigenvalues            :        -886.78671445 Ha      -24130.69425644 eV
  | XC energy correction          :        -145.17722678 Ha       -3950.47333852 eV
  | XC potential correction       :         189.04044018 Ha        5144.05210383 eV
  | Free-atom electrostatic energy:        -781.26200674 Ha      -21259.22086065 eV
  | Hartree energy correction     :          -0.89547567 Ha         -24.36713290 eV
  | Entropy correction            :           0.00000000 Ha           0.00000000 eV
  | ---------------------------
  | Total energy                  :       -1625.08098346 Ha      -44220.70348468 eV
  | Total energy, T -> 0          :       -1625.08098346 Ha      -44220.70348468 eV  <-- do not rely on this value for anything but (periodic) metals
  | Electronic free energy        :       -1625.08098346 Ha      -44220.70348468 eV

  Derived energy quantities:
  | Kinetic energy                :        1628.42407802 Ha       44311.67371607 eV
  | Electrostatic energy          :       -3108.32783471 Ha      -84581.90386223 eV
  | Energy correction for multipole
  | error in Hartree potential    :           0.05036560 Ha           1.37051758 eV
  | Sum of eigenvalues per atom                           :       -2010.89118804 eV
  | Total energy (T->0) per atom                          :       -3685.05862372 eV  <-- do not rely on this value for anything but (periodic) metals
  | Electronic free energy per atom                       :       -3685.05862372 eV
  Evaluating new KS density.
  Integration grid: deviation in total charge (<rho> - N_e) =   5.684342E-14

  Self-consistency convergence accuracy:
  | Change of charge density      :  0.1229E+00
  | Change of sum of eigenvalues  : -0.2569E+02 eV
  | Change of total energy        :  0.2798E-01 eV


------------------------------------------------------------
  End self-consistency iteration #     3       :  max(cpu_time)    wall_clock(cpu1)
  | Time for this iteration                     :        0.108 s           0.106 s
  | Charge density update                       :        0.028 s           0.029 s
  | Density mixing                              :        0.004 s           0.001 s
  | Hartree multipole update                    :        0.005 s           0.005 s
  | Hartree multipole summation                 :        0.017 s           0.017 s
  | Integration                                 :        0.034 s           0.034 s
  | Solution of K.-S. eqns.                     :        0.018 s           0.018 s
  | Total energy evaluation                     :        0.001 s           0.001 s

  Partial memory accounting:
  | Current value for overall tracked memory usage:
  |   Minimum:        0.274 MB (on task 23)
  |   Maximum:        0.293 MB (on task  0)
  |   Average:        0.288 MB
  | Peak value for overall tracked memory usage:
  |   Minimum:        1.318 MB (on task  3 after allocating wave)
  |   Maximum:        1.382 MB (on task  8 after allocating wave)
  |   Average:        1.347 MB
  | Largest tracked array allocation so far:
  |   Minimum:        0.698 MB (gradient_basis_wave on task 14)
  |   Maximum:        0.740 MB (gradient_basis_wave on task 15)
  |   Average:        0.717 MB
  Note:  These values currently only include a subset of arrays which are explicitly tracked.
  The "true" memory usage will be greater.
------------------------------------------------------------

------------------------------------------------------------
          Begin self-consistency iteration #    4

  Date     :  20220517, Time     :  121427.597
------------------------------------------------------------
  Pulay mixing of updated and previous charge densities.
  Renormalizing the density to the exact electron count on the 3D integration grid.
  | Formal number of electrons (from input files) :     120.0000000000
  | Integrated number of electrons on 3D grid     :     120.0000000000
  | Charge integration error                      :       0.0000000000
  | Normalization factor for density and gradient :       1.0000000000

  Evaluating partitioned Hartree potential by multipole expansion.
  | Original multipole sum: apparent total charge =  -0.456596E-13
  | Sum of charges compensated after spline to logarithmic grids =   0.567670E-04
  | Analytical far-field extrapolation by fixed multipoles:
  | Hartree multipole sum: apparent total charge =  -0.473506E-13
  Summing up the Hartree potential.
  Time summed over all CPUs for potential: real work        0.380 s, elapsed        0.393 s
  | RMS charge density error from multipole expansion :   0.193654E-01

  Integrating Hamiltonian matrix: batch-based integration.
  Time summed over all CPUs for integration: real work        0.706 s, elapsed        0.752 s

  Updating Kohn-Sham eigenvalues and eigenvectors using ELSI and the ELPA eigensolver.
  Starting ELPA eigensolver
  Finished transformation to standard eigenproblem
  | Time :     0.004 s
  Finished solving standard eigenproblem
  | Time :     0.012 s
  Finished back-transformation of eigenvectors
  | Time :     0.000 s

  Obtaining occupation numbers and chemical potential using ELSI.
  | Chemical potential (Fermi level):    -7.54055282 eV
  Highest occupied state (VBM) at     -8.35735455 eV
  | Occupation number:      2.00000000

  Lowest unoccupied state (CBM) at    -4.86386933 eV
  | Occupation number:      0.00000000

  Overall HOMO-LUMO gap:      3.49348522 eV.

  Total energy components:
  | Sum of eigenvalues            :        -886.89899448 Ha      -24133.74955152 eV
  | XC energy correction          :        -145.16170504 Ha       -3950.05097045 eV
  | XC potential correction       :         189.01940603 Ha        5143.47973557 eV
  | Free-atom electrostatic energy:        -781.26200674 Ha      -21259.22086065 eV
  | Hartree energy correction     :          -0.77557995 Ha         -21.10460423 eV
  | Entropy correction            :           0.00000000 Ha           0.00000000 eV
  | ---------------------------
  | Total energy                  :       -1625.07888018 Ha      -44220.64625128 eV
  | Total energy, T -> 0          :       -1625.07888018 Ha      -44220.64625128 eV  <-- do not rely on this value for anything but (periodic) metals
  | Electronic free energy        :       -1625.07888018 Ha      -44220.64625128 eV

  Derived energy quantities:
  | Kinetic energy                :        1627.77962593 Ha       44294.13728248 eV
  | Electrostatic energy          :       -3107.69680107 Ha      -84564.73256331 eV
  | Energy correction for multipole
  | error in Hartree potential    :           0.05551808 Ha           1.51072375 eV
  | Sum of eigenvalues per atom                           :       -2011.14579596 eV
  | Total energy (T->0) per atom                          :       -3685.05385427 eV  <-- do not rely on this value for anything but (periodic) metals
  | Electronic free energy per atom                       :       -3685.05385427 eV
  Evaluating new KS density.
  Integration grid: deviation in total charge (<rho> - N_e) =   2.842171E-14

  Self-consistency convergence accuracy:
  | Change of charge density      :  0.8110E-01
  | Change of sum of eigenvalues  : -0.3055E+01 eV
  | Change of total energy        :  0.5723E-01 eV


------------------------------------------------------------
  End self-consistency iteration #     4       :  max(cpu_time)    wall_clock(cpu1)
  | Time for this iteration                     :        0.113 s           0.110 s
  | Charge density update                       :        0.029 s           0.029 s
  | Density mixing                              :        0.008 s           0.003 s
  | Hartree multipole update                    :        0.009 s           0.009 s
  | Hartree multipole summation                 :        0.017 s           0.017 s
  | Integration                                 :        0.033 s           0.033 s
  | Solution of K.-S. eqns.                     :        0.018 s           0.018 s
  | Total energy evaluation                     :        0.000 s           0.000 s

  Partial memory accounting:
  | Current value for overall tracked memory usage:
  |   Minimum:        0.274 MB (on task 23)
  |   Maximum:        0.293 MB (on task  0)
  |   Average:        0.288 MB
  | Peak value for overall tracked memory usage:
  |   Minimum:        1.318 MB (on task  3 after allocating wave)
  |   Maximum:        1.382 MB (on task  8 after allocating wave)
  |   Average:        1.347 MB
  | Largest tracked array allocation so far:
  |   Minimum:        0.698 MB (gradient_basis_wave on task 14)
  |   Maximum:        0.740 MB (gradient_basis_wave on task 15)
  |   Average:        0.717 MB
  Note:  These values currently only include a subset of arrays which are explicitly tracked.
  The "true" memory usage will be greater.
------------------------------------------------------------

------------------------------------------------------------
          Begin self-consistency iteration #    5

  Date     :  20220517, Time     :  121427.713
------------------------------------------------------------
  Pulay mixing of updated and previous charge densities.
  Renormalizing the density to the exact electron count on the 3D integration grid.
  | Formal number of electrons (from input files) :     120.0000000000
  | Integrated number of electrons on 3D grid     :     120.0000000000
  | Charge integration error                      :       0.0000000000
  | Normalization factor for density and gradient :       1.0000000000

  Evaluating partitioned Hartree potential by multipole expansion.
  | Original multipole sum: apparent total charge =   0.231772E-13
  | Sum of charges compensated after spline to logarithmic grids =   0.576676E-04
  | Analytical far-field extrapolation by fixed multipoles:
  | Hartree multipole sum: apparent total charge =   0.234770E-13
  Summing up the Hartree potential.
  Time summed over all CPUs for potential: real work        0.379 s, elapsed        0.392 s
  | RMS charge density error from multipole expansion :   0.191892E-01

  Integrating Hamiltonian matrix: batch-based integration.
  Time summed over all CPUs for integration: real work        0.706 s, elapsed        0.746 s

  Updating Kohn-Sham eigenvalues and eigenvectors using ELSI and the ELPA eigensolver.
  Starting ELPA eigensolver
  Finished transformation to standard eigenproblem
  | Time :     0.004 s
  Finished solving standard eigenproblem
  | Time :     0.014 s
  Finished back-transformation of eigenvectors
  | Time :     0.002 s

  Obtaining occupation numbers and chemical potential using ELSI.
  | Chemical potential (Fermi level):    -7.53295591 eV
  Highest occupied state (VBM) at     -8.44240402 eV
  | Occupation number:      2.00000000

  Lowest unoccupied state (CBM) at    -4.80047472 eV
  | Occupation number:      0.00000000

  Overall HOMO-LUMO gap:      3.64192930 eV.

  Total energy components:
  | Sum of eigenvalues            :        -886.71201202 Ha      -24128.66149985 eV
  | XC energy correction          :        -145.15901185 Ha       -3949.97768510 eV
  | XC potential correction       :         189.01602754 Ha        5143.38780219 eV
  | Free-atom electrostatic energy:        -781.26200674 Ha      -21259.22086065 eV
  | Hartree energy correction     :          -0.96175062 Ha         -26.17056599 eV
  | Entropy correction            :           0.00000000 Ha           0.00000000 eV
[...]
   Total forces(   7)            : -0.246605E+00  0.238237E+01  0.890479E-01
  atom #    8
   Hellmann-Feynman              :  0.727712E+00 -0.800116E+00  0.325444E+00
   Ionic forces                  :  0.000000E+00  0.000000E+00  0.000000E+00
   Multipole                     :  0.385516E+00 -0.240945E+00 -0.780267E-01
   Hartree pot. SCF incomplete   :  0.865555E-05 -0.461015E-05 -0.700676E-05
   Pulay + GGA                   : -0.317719E+01  0.254181E+01  0.175747E+00
   ----------------------------------------------------------------
   Total forces(   8)            : -0.206395E+01  0.150074E+01  0.423158E+00
  atom #    9
   Hellmann-Feynman              : -0.591399E+00  0.823521E+00 -0.317191E+01
   Ionic forces                  :  0.000000E+00  0.000000E+00  0.000000E+00
   Multipole                     : -0.137961E+00  0.212139E+00 -0.859849E+00
   Hartree pot. SCF incomplete   : -0.236438E-05  0.770793E-06 -0.310794E-05
   Pulay + GGA                   :  0.133786E+01 -0.187638E+01  0.738143E+01
   ----------------------------------------------------------------
   Total forces(   9)            :  0.608501E+00 -0.840715E+00  0.334967E+01
  atom #   10
   Hellmann-Feynman              : -0.359906E+00  0.634644E+00  0.822525E+00
   Ionic forces                  :  0.000000E+00  0.000000E+00  0.000000E+00
   Multipole                     :  0.218808E-01  0.479736E+00  0.181724E+00
   Hartree pot. SCF incomplete   : -0.237079E-05  0.136255E-04 -0.204591E-05
   Pulay + GGA                   :  0.450518E+00 -0.324649E+01 -0.196951E+01
   ----------------------------------------------------------------
   Total forces(  10)            :  0.112490E+00 -0.213210E+01 -0.965266E+00
  atom #   11
   Hellmann-Feynman              :  0.306836E+01  0.986817E+00  0.121283E+01
   Ionic forces                  :  0.000000E+00  0.000000E+00  0.000000E+00
   Multipole                     :  0.745422E+00  0.285301E+00  0.264084E+00
   Hartree pot. SCF incomplete   :  0.101260E-05  0.947794E-06  0.176497E-05
   Pulay + GGA                   : -0.674580E+01 -0.220524E+01 -0.275130E+01
   ----------------------------------------------------------------
   Total forces(  11)            : -0.293202E+01 -0.933119E+00 -0.127438E+01
  atom #   12
   Hellmann-Feynman              : -0.225848E+00 -0.273928E+00  0.283419E+00
   Ionic forces                  :  0.000000E+00  0.000000E+00  0.000000E+00
   Multipole                     : -0.332125E+00 -0.329800E+00  0.962698E-01
   Hartree pot. SCF incomplete   : -0.781265E-05 -0.110972E-05 -0.408095E-05
   Pulay + GGA                   :  0.203788E+01  0.134416E+01 -0.596399E+00
   ----------------------------------------------------------------
   Total forces(  12)            :  0.147990E+01  0.740431E+00 -0.216715E+00


  Self-consistency convergence accuracy:
  | Change of charge density      :  0.1132E-05
  | Change of sum of eigenvalues  : -0.3279E-04 eV
  | Change of total energy        :  0.6691E-07 eV
  | Change of forces              :  0.1838E-05 eV/A

  Writing Kohn-Sham eigenvalues.

  State    Occupation    Eigenvalue [Ha]    Eigenvalue [eV]
      1       2.00000         -55.667395        -1514.78689
      2       2.00000         -55.642125        -1514.09927
      3       2.00000         -55.595546        -1512.83177
      4       2.00000         -24.315736         -661.66486
      5       2.00000         -24.315453         -661.65714
      6       2.00000         -24.303014         -661.31865
      7       2.00000         -24.279076         -660.66729
      8       2.00000         -24.275053         -660.55779
      9       2.00000         -24.244878         -659.73670
     10       2.00000         -24.217302         -658.98633
     11       2.00000         -24.172785         -657.77494
     12       2.00000         -24.162601         -657.49783
     13       2.00000          -4.119855         -112.10696
     14       2.00000          -4.093817         -111.39843
     15       2.00000          -4.046804         -110.11915
     16       2.00000          -2.712937          -73.82278
     17       2.00000          -2.711759          -73.79071
     18       2.00000          -2.709638          -73.73301
     19       2.00000          -2.686905          -73.11441
     20       2.00000          -2.685369          -73.07261
     21       2.00000          -2.683948          -73.03395
     22       2.00000          -2.641303          -71.87352
     23       2.00000          -2.638473          -71.79650
     24       2.00000          -2.635154          -71.70618
     25       2.00000          -1.190003          -32.38163
     26       2.00000          -1.180416          -32.12076
     27       2.00000          -1.161133          -31.59603
     28       2.00000          -1.147615          -31.22821
     29       2.00000          -1.129767          -30.74251
     30       2.00000          -1.091912          -29.71244
     31       2.00000          -1.064546          -28.96778
     32       2.00000          -1.021690          -27.80160
     33       2.00000          -1.008459          -27.44158
     34       2.00000          -0.577859          -15.72436
     35       2.00000          -0.564743          -15.36743
     36       2.00000          -0.544731          -14.82288
     37       2.00000          -0.519526          -14.13701
     38       2.00000          -0.515134          -14.01750
     39       2.00000          -0.497301          -13.53225
     40       2.00000          -0.496495          -13.51032
     41       2.00000          -0.493687          -13.43391
     42       2.00000          -0.479631          -13.05143
     43       2.00000          -0.473417          -12.88232
     44       2.00000          -0.461183          -12.54944
     45       2.00000          -0.451967          -12.29865
     46       2.00000          -0.447967          -12.18981
     47       2.00000          -0.437744          -11.91163
     48       2.00000          -0.434011          -11.81004
     49       2.00000          -0.421827          -11.47850
     50       2.00000          -0.413613          -11.25499
     51       2.00000          -0.397577          -10.81863
     52       2.00000          -0.396426          -10.78731
     53       2.00000          -0.389197          -10.59058
     54       2.00000          -0.370683          -10.08679
     55       2.00000          -0.369532          -10.05547
     56       2.00000          -0.358119           -9.74490
     57       2.00000          -0.332488           -9.04746
     58       2.00000          -0.326896           -8.89528
     59       2.00000          -0.315158           -8.57589
     60       2.00000          -0.309273           -8.41576
     61       0.00000          -0.176498           -4.80274
     62       0.00000          -0.114205           -3.10768
     63       0.00000          -0.075420           -2.05228
     64       0.00000          -0.064597           -1.75777
     65       0.00000          -0.061189           -1.66504
     66       0.00000          -0.024534           -0.66760
     67       0.00000           0.012711            0.34588
     68       0.00000           0.020741            0.56440
     69       0.00000           0.035266            0.95964
     70       0.00000           0.058399            1.58912
     71       0.00000           0.085647            2.33056
     72       0.00000           0.096191            2.61749
     73       0.00000           0.135103            3.67634
     74       0.00000           0.148478            4.04029
     75       0.00000           0.151936            4.13438
     76       0.00000           0.158653            4.31717
     77       0.00000           0.176239            4.79572
     78       0.00000           0.186260            5.06840
     79       0.00000           0.196156            5.33768
     80       0.00000           0.211160            5.74596
     81       0.00000           0.214003            5.82332
     82       0.00000           0.219643            5.97680
     83       0.00000           0.227135            6.18065
     84       0.00000           0.229317            6.24003
     85       0.00000           0.243942            6.63801
     86       0.00000           0.246421            6.70545
     87       0.00000           0.249416            6.78695
     88       0.00000           0.260154            7.07916
     89       0.00000           0.277513            7.55151
     90       0.00000           0.283220            7.70682
     91       0.00000           0.284945            7.75374
     92       0.00000           0.337605            9.18670
     93       0.00000           0.343541            9.34823
     94       0.00000           0.359955            9.79488
     95       0.00000           0.369959           10.06711
     96       0.00000           0.380071           10.34225

  Highest occupied state (VBM) at     -8.41575642 eV
  | Occupation number:      2.00000000

  Lowest unoccupied state (CBM) at    -4.80274398 eV
  | Occupation number:      0.00000000

  Overall HOMO-LUMO gap:      3.61301244 eV.
  | Chemical Potential                          :    -7.53035706 eV

  Self-consistency cycle converged.


------------------------------------------------------------
  End self-consistency iteration #    13       :  max(cpu_time)    wall_clock(cpu1)
  | Time for this iteration                     :        0.287 s           0.286 s
  | Charge density & force component update     :        0.151 s           0.152 s
  | Density mixing                              :        0.007 s           0.004 s
  | Hartree multipole update                    :        0.008 s           0.008 s
  | Hartree multipole summation                 :        0.049 s           0.049 s
  | Hartree pot. SCF incomplete forces          :        0.031 s           0.031 s
  | Integration                                 :        0.037 s           0.037 s
  | Solution of K.-S. eqns.                     :        0.004 s           0.005 s
  | Total energy evaluation                     :        0.000 s           0.000 s

  Partial memory accounting:
  | Current value for overall tracked memory usage:
  |   Minimum:        0.274 MB (on task 23)
  |   Maximum:        0.293 MB (on task  0)
  |   Average:        0.289 MB
  | Peak value for overall tracked memory usage:
  |   Minimum:        2.875 MB (on task 14 after allocating hessian_basis_wave)
  |   Maximum:        3.009 MB (on task 15 after allocating hessian_basis_wave)
  |   Average:        2.936 MB
  | Largest tracked array allocation so far:
  |   Minimum:        1.395 MB (hessian_basis_wave on task 14)
  |   Maximum:        1.481 MB (hessian_basis_wave on task 15)
  |   Average:        1.435 MB
  Note:  These values currently only include a subset of arrays which are explicitly tracked.
  The "true" memory usage will be greater.
------------------------------------------------------------
  Removing unitary transformations (pure translations, rotations) from forces on atoms.
  Atomic forces before filtering:
  | Net force on center of mass :  -0.863145E-02 -0.768094E-02  0.149115E-02 eV/A
  | Net torque on center of mass:   0.837393E-03  0.665224E-02 -0.220102E-02 eV
  Atomic forces after filtering:
  | Net force on center of mass :   0.178406E-15  0.535218E-15  0.223008E-15 eV/A
  | Net torque on center of mass:  -0.113290E-14 -0.896880E-15 -0.944085E-15 eV

  Energy and forces in a compact form:
  | Total energy uncorrected      :         -0.442206425065172E+05 eV
  | Total energy corrected        :         -0.442206425065172E+05 eV  <-- do not rely on this value for anything but (periodic) metals
  | Electronic free energy        :         -0.442206425065172E+05 eV
  Total atomic forces (unitary forces cleaned) [eV/Ang]:
  |    1         -0.318516790983015E+01         -0.113969584380314E+01          0.141498981438066E+01
  |    2          0.256221138083241E+01          0.373772765231874E+00          0.186809818643280E+01
  |    3         -0.131437172190066E+00          0.528348607545538E+00         -0.241195643617702E+01
  |    4          0.809753508329303E+00         -0.153952724821475E+01         -0.132978123152266E+01
  |    5          0.242529278468273E+01         -0.161442071078596E+01         -0.198717292343737E+00
  |    6          0.556264132754862E+00          0.266992153842270E+01         -0.747934527349789E+00
  |    7         -0.245866534799628E+00          0.238309038221706E+01          0.890737367311962E-01
  |    8         -0.206303339847234E+01          0.150145696293497E+01          0.423281422335988E+00
  |    9          0.609616037227134E+00         -0.840247155817591E+00          0.334947598885658E+01
  |   10          0.113131215149074E+00         -0.213143742660101E+01         -0.965399912109875E+00
  |   11         -0.293154030379941E+01         -0.932195814249591E+00         -0.127414580489584E+01
  |   12          0.148077626011607E+01          0.740933943119886E+00         -0.216983944338294E+00

  ------------------------------------ 
  Start decomposition of the XC Energy 
  ------------------------------------ 
  X and C from original XC functional choice 
  Hartree-Fock Energy :          0.000000000 Ha              0.000000000 eV
  X Energy            :       -140.207246292 Ha          -3815.233288549 eV
  C Energy            :         -4.955495177 Ha           -134.845884642 eV
  Total XC Energy     :       -145.162741469 Ha          -3950.079173190 eV
  ------------------------------------ 
  LDA X and C from self-consistent density 
  X Energy LDA        :       -132.795190862 Ha          -3613.540998287 eV
  C Energy LDA        :         -8.827677148 Ha           -240.213317104 eV
  ------------------------------------ 
  End decomposition of the XC Energy 
  ------------------------------------ 

------------------------------------------------------------

------------------------------------------------------------------------------
  Final output of selected total energy values:

  The following output summarizes some interesting total energy values
  at the end of a run (AFTER all relaxation, molecular dynamics, etc.).

  | Total energy of the DFT / Hartree-Fock s.c.f. calculation      :         -44220.642506517 eV
  | Final zero-broadening corrected energy (caution - metals only) :         -44220.642506517 eV
  | For reference only, the value of 1 Hartree used in FHI-aims is :             27.211384500 eV

  Before relying on these values, please be sure to understand exactly which
  total energy value is referred to by a given number. Different objects may
  all carry the same name 'total energy'. Definitions:

  Total energy of the DFT / Hartree-Fock s.c.f. calculation:
  | Note that this energy does not include ANY quantities calculated after the
  | s.c.f. cycle, in particular not ANY RPA, MP2, etc. many-body perturbation terms.

  Final zero-broadening corrected energy:
  | For metallic systems only, a broadening of the occupation numbers at the Fermi
  | level can be extrapolated back to zero broadening by an electron-gas inspired
  | formula. For all systems that are not real metals, this value can be
  | meaningless and should be avoided.

------------------------------------------------------------------------------
  Methods described in the following list of references were used in this FHI-aims run.
  If you publish the results, please make sure to cite these reference if they apply.
  FHI-aims is an academic code, and for our developers (often, Ph.D. students
  and postdocs), scientific credit in the community is essential.
  Thank you for helping us!

  For any use of FHI-aims, please cite:

    Volker Blum, Ralf Gehrke, Felix Hanke, Paula Havu, Ville Havu,
    Xinguo Ren, Karsten Reuter, and Matthias Scheffler
    'Ab initio molecular simulations with numeric atom-centered orbitals'
    Computer Physics Communications 180, 2175-2196 (2009)
    http://dx.doi.org/10.1016/j.cpc.2009.06.022


  The ELSI infrastructure was used in your run to solve the Kohn-Sham electronic structure.
  Please check out http://elsi-interchange.org to learn more.
  If scalability is important for your project, please acknowledge ELSI by citing:

    V. W-z. Yu, F. Corsetti, A. Garcia, W. P. Huhn, M. Jacquelin, W. Jia,
    B. Lange, L. Lin, J. Lu, W. Mi, A. Seifitokaldani, A. Vazquez-Mayagoitia,
    C. Yang, H. Yang, and V. Blum
    'ELSI: A unified software interface for Kohn-Sham electronic structure solvers'
    Computer Physics Communications 222, 267-285 (2018).
    http://dx.doi.org/10.1016/j.cpc.2017.09.007


  For the real-space grid partitioning and parallelization used in this calculation, please cite:

    Ville Havu, Volker Blum, Paula Havu, and Matthias Scheffler,
    'Efficient O(N) integration for all-electron electronic structure calculation'
    'using numerically tabulated basis functions'
    Journal of Computational Physics 228, 8367-8379 (2009).
    http://dx.doi.org/10.1016/j.jcp.2009.08.008

  Of course, there are many other important community references, e.g., those cited in the
  above references. Our list is limited to references that describe implementations in the
  FHI-aims code. The reason is purely practical (length of this list) - please credit others as well.

------------------------------------------------------------
          Leaving FHI-aims.
          Date     :  20220517, Time     :  121429.140

          Computational steps:
          | Number of self-consistency cycles          :           13
          | Number of SCF (re)initializations          :            1

          Detailed time accounting                     :  max(cpu_time)    wall_clock(cpu1)
          | Total time                                  :        2.242 s           2.311 s
          | Preparation time                            :        0.184 s           0.184 s
          | Boundary condition initalization            :        0.000 s           0.000 s
          | Grid partitioning                           :        0.046 s           0.046 s
          | Preloading free-atom quantities on grid     :        0.017 s           0.017 s
          | Free-atom superposition energy              :        0.006 s           0.006 s
          | Total time for integrations                 :        0.484 s           0.488 s
          | Total time for solution of K.-S. equations  :        0.277 s           0.277 s
          | Total time for density & force components   :        0.650 s           0.651 s
          | Total time for mixing                       :        0.071 s           0.036 s
          | Total time for Hartree multipole update     :        0.064 s           0.063 s
          | Total time for Hartree multipole sum        :        0.294 s           0.295 s
          | Total time for total energy evaluation      :        0.005 s           0.007 s
          | Total time NSC force correction             :        0.062 s           0.062 s
          | Total time for scaled ZORA corrections      :        0.000 s           0.000 s

          Partial memory accounting:
          | Residual value for overall tracked memory usage across tasks:     0.000000 MB (should be 0.000000 MB)
          | Peak values for overall tracked memory usage:
          |   Minimum:        2.875 MB (on task 14 after allocating hessian_basis_wave)
          |   Maximum:        3.009 MB (on task 15 after allocating hessian_basis_wave)
          |   Average:        2.936 MB
          | Largest tracked array allocation:
          |   Minimum:        1.395 MB (hessian_basis_wave on task 14)
          |   Maximum:        1.481 MB (hessian_basis_wave on task 15)
          |   Average:        1.435 MB
          Note:  These values currently only include a subset of arrays which are explicitly tracked.
          The "true" memory usage will be greater.

          Have a nice day.
------------------------------------------------------------
