********************************************************************************
*                       GENERAL UTILITY LATTICE PROGRAM                        *
*                                 Julian Gale                                  *
*                       Curtin Institute for Computation                       *
*                           Department of Chemistry                            *
*                    Curtin University, Western Australia                      *
********************************************************************************
* Version = 5.1.1 * Last modified =  11th January 2019                         *
********************************************************************************
*  single       - perform a single point run                                   *
*  phonon       - calculate phonons for final geometry                         *
*  eigenvectors - output phonon eigenvectors                                   *
********************************************************************************

  Job Started  at 10:33.25 17th May        2022                               

  Number of CPUs =     1

  Host name      = login04                                 


  Total number of configurations input =      1

********************************************************************************
*  Input for Configuration =   1                                               *
********************************************************************************

  Formula = Al3F9                                                       

  Number of irreducible atoms/shells =      21


  Total number atoms/shells =      21

  Dimensionality = 0               :  Cluster


  Charge on cluster =  -0.000000


  Initial cluster dipoles : x =      0.757008 e.Angs
                            y =      0.337337 e.Angs
                            z =     -0.713433 e.Angs

  Temperature of configuration =  0.000     K 

  Symmetry number =      1

  Cartesian coordinates of cluster :

--------------------------------------------------------------------------------
   No.  Atomic       x           y          z         Charge      Occupancy
        Label      (Angs)      (Angs)     (Angs)        (e)         (Frac)  
--------------------------------------------------------------------------------
      1 Al    c     -0.0460      1.5595      2.1442     3.00000    1.000000    
      2 Al    c      2.5374      2.5792      1.7548     3.00000    1.000000    
      3 Al    c      1.3098      2.7863     -0.6251     3.00000    1.000000    
      4 F     c      1.0294      2.9959      2.8855     0.59000    1.000000    
      5 F     c     -1.5603      2.6022      2.2572     0.59000    1.000000    
      6 F     c     -0.4393     -0.1319      2.6582     0.59000    1.000000    
      7 F     c      1.8383      0.8291      1.8418     0.59000    1.000000    
      8 F     c      2.9434      1.9410     -0.1334     0.59000    1.000000    
      9 F     c      1.0071      3.2332     -2.3506     0.59000    1.000000    
     10 F     c      1.7219      4.0486      0.7194     0.59000    1.000000    
     11 F     c      4.1309      3.0768      2.4466     0.59000    1.000000    
     12 F     c     -0.0250      1.8429      0.2103     0.59000    1.000000    
     13 F     s      1.0294      2.9959      2.8855    -1.59000    1.000000    
     14 F     s     -1.5603      2.6022      2.2572    -1.59000    1.000000    
     15 F     s     -0.4393     -0.1319      2.6582    -1.59000    1.000000    
     16 F     s      1.8383      0.8291      1.8418    -1.59000    1.000000    
     17 F     s      2.9434      1.9410     -0.1334    -1.59000    1.000000    
     18 F     s      1.0071      3.2332     -2.3506    -1.59000    1.000000    
     19 F     s      1.7219      4.0486      0.7194    -1.59000    1.000000    
     20 F     s      4.1309      3.0768      2.4466    -1.59000    1.000000    
     21 F     s     -0.0250      1.8429      0.2103    -1.59000    1.000000    
--------------------------------------------------------------------------------


  Brillouin zone sampling points :

--------------------------------------------------------------------------------
  Point number          x          y          z            Weight
--------------------------------------------------------------------------------
        1           0.000000   0.000000   0.000000     1.00000000
--------------------------------------------------------------------------------


********************************************************************************
*  General input information                                                   *
********************************************************************************

  Species output for all configurations : 

--------------------------------------------------------------------------------
  Species    Type    Atomic    Atomic    Charge       Radii (Angs)     Library
                     Number     Mass       (e)     Cova   Ionic  VDW   Symbol
--------------------------------------------------------------------------------
    Al       Core       13      26.98   3.000000   1.350  0.000  2.050          
    F        Core        9      19.00   0.590000   0.710  0.000  1.300          
    F        Shell       9       0.00  -1.590000   0.710  0.000  1.300          
--------------------------------------------------------------------------------


  Accuracy factor for short range sums = 12.000

  Time limit = Infinity

  Maximum range for interatomic potentials =    100000.000000 Angstroms

  General interatomic potentials :

--------------------------------------------------------------------------------
Atom  Types   Potential      Parameter       Value         Units   Cutoffs(Ang)
  1     2                                                            Min /  Max 
--------------------------------------------------------------------------------
Al   c F    s Buckingham    Buckingham A     3760.0008    eV        0.000 10.000
                            Buckingham rho  0.22200000    Ang       
                            Buckingham C     0.0000000    eV*Ang^6  
--------------------------------------------------------------------------------
F    s F    s Buck 4 range  Buck4 A          1127.7000    eV        0.000 12.000
                            Buck4 rho       0.27530000    Ang       
                            Buck4 C          15.830000    eV*Ang^6  
                            Buck4 minimum    2.7900000    Ang       
--------------------------------------------------------------------------------
F    c F    s Spring (c-s)  Spring k 2       20.770000    eV*Ang^-2 0.000  0.800
                            Spring k 4       0.0000000    eV*Ang^-4 
--------------------------------------------------------------------------------

********************************************************************************
*  Output for configuration   1                                                *
********************************************************************************


  Components of energy : 

--------------------------------------------------------------------------------
  Interatomic potentials     =          10.28174128 eV    
  Monopole - monopole (real) =        -178.21476212 eV    
--------------------------------------------------------------------------------
  Total lattice energy       =        -167.93302084 eV    
--------------------------------------------------------------------------------
  Total lattice energy       =          -16202.9694 kJ/mol
--------------------------------------------------------------------------------

  Born effective charge tensors : 

-------------------------------------------------------------------------------
  Atom             x           y             z
-------------------------------------------------------------------------------
    1 Al    x       2.4523     -0.0772     -0.1412
            y      -0.0706      2.1788     -0.1125
            z      -0.0617     -0.0180      2.0031
-------------------------------------------------------------------------------
    2 Al    x       2.2788      0.0778     -0.1814
            y       0.0618      2.0942     -0.0272
            z      -0.0975     -0.0351      2.3761
-------------------------------------------------------------------------------
    3 Al    x       2.1095      0.0459      0.1967
            y       0.0398      1.8292     -0.1180
            z       0.0390     -0.2032      2.3482
-------------------------------------------------------------------------------
    4 F     x      -0.8317     -0.1225      0.1197
            y      -0.1018     -0.6240     -0.2146
            z       0.1652     -0.2019     -0.7029
-------------------------------------------------------------------------------
    5 F     x      -1.1164      0.3376      0.0753
            y       0.2136     -0.6621      0.0239
            z       0.1777     -0.0659     -0.5630
-------------------------------------------------------------------------------
    6 F     x      -0.5912     -0.2271      0.0831
            y      -0.1660     -1.0472      0.1813
            z       0.0699      0.2244     -0.5879
-------------------------------------------------------------------------------
    7 F     x      -0.8218      0.0504      0.0441
            y       0.0178     -0.8620      0.0484
            z       0.0827      0.0979     -0.4629
-------------------------------------------------------------------------------
    8 F     x      -0.8117      0.2206      0.0957
            y       0.2508     -0.5184     -0.0950
            z       0.0568     -0.1388     -0.9157
-------------------------------------------------------------------------------
    9 F     x      -0.5157      0.0152     -0.0944
            y       0.0231     -0.5353      0.1752
            z      -0.1141      0.1829     -1.1813
-------------------------------------------------------------------------------
   10 F     x      -0.4498      0.0636     -0.0944
            y       0.0563     -0.9084      0.0295
            z      -0.1659      0.0318     -0.6965
-------------------------------------------------------------------------------
   11 F     x      -1.0622     -0.1860     -0.2546
            y      -0.1749     -0.5277     -0.0557
            z      -0.2670     -0.0652     -0.6292
-------------------------------------------------------------------------------
   12 F     x      -0.6401     -0.1983      0.1513
            y      -0.1500     -0.4172      0.1645
            z       0.1150      0.1911     -0.9880
-------------------------------------------------------------------------------




  Moment of inertia tensor (10^-46 x kgm^2): 

-------------------------------------------------------------------------------
                x           y           z           Principal axis system
-------------------------------------------------------------------------------
       x        141.30      -21.95        9.80          115.349963
       y        -21.95      186.10       23.03          149.469777
       z          9.80       23.03      137.84          200.412637
-------------------------------------------------------------------------------
  Centre of mass (Ang) =     1.209955     2.282907     1.145092
-------------------------------------------------------------------------------


  Vibrational Frequency Calculation : 

--------------------------------------------------------------------------------

  Frequencies (cm-1) and Eigenvectors : 

  Frequency    -369.1230 -239.6261 -231.5250   -0.0000   -0.0000    0.0000
  IR Intensity    0.0046    0.0042    0.0010    0.0000    0.0000    0.0000
     in X         0.0005    0.0021    0.0002    0.0000    0.0000    0.0000
     in Y         0.0008    0.0000    0.0000    0.0000    0.0000    0.0000
     in Z         0.0033    0.0021    0.0008    0.0000    0.0000    0.0000
  Raman Intsty    0.0041    0.0354    0.0066    0.0000    0.0000    0.0000

     1 x       0.072818 -0.405435 -0.040881 -0.070748 -0.048681  0.315775
     1 y      -0.255531  0.240131  0.464899  0.021911 -0.323402 -0.044947
     1 z      -0.140147 -0.329089  0.396432  0.318753  0.011426  0.073177
     2 x      -0.316254 -0.136495  0.081398 -0.070748 -0.048681  0.315775
     2 y       0.645762 -0.264250  0.030129  0.021911 -0.323402 -0.044947
     2 z       0.305297  0.354207 -0.210183  0.318753  0.011426  0.073177
     3 x       0.234202  0.496437 -0.038285 -0.070748 -0.048681  0.315775
     3 y      -0.382594  0.016538 -0.527552  0.021911 -0.323402 -0.044947
     3 z      -0.126516 -0.003183 -0.144198  0.318753  0.011426  0.073177
     4 x      -0.010237 -0.109972 -0.090960 -0.059370 -0.040852  0.264993
     4 y       0.064474 -0.046061  0.023515  0.018387 -0.271393 -0.037719
     4 z       0.093540 -0.020246  0.143688  0.267492  0.009588  0.061409
     5 x       0.091452 -0.210095 -0.127505 -0.059370 -0.040852  0.264993
     5 y      -0.049282  0.146677  0.106911  0.018387 -0.271393 -0.037719
     5 z      -0.001547  0.006683 -0.005707  0.267492  0.009588  0.061409
     6 x      -0.031926  0.017824  0.081122 -0.059370 -0.040852  0.264993
     6 y      -0.087921  0.153881  0.219264  0.018387 -0.271393 -0.037719
     6 z       0.011670 -0.121176  0.047351  0.267492  0.009588  0.061409
     7 x      -0.051551  0.127037  0.060680 -0.059370 -0.040852  0.264993
     7 y       0.138330 -0.079688  0.127393  0.018387 -0.271393 -0.037719
     7 z      -0.031594  0.006809 -0.026688  0.267492  0.009588  0.061409
     8 x      -0.012191  0.064906  0.071332 -0.059370 -0.040852  0.264993
     8 y      -0.054865 -0.074970 -0.104018  0.018387 -0.271393 -0.037719
     8 z      -0.109106 -0.127555 -0.193400  0.267492  0.009588  0.061409
     9 x       0.015977  0.077215 -0.001916 -0.059370 -0.040852  0.264993
     9 y      -0.028837 -0.012883 -0.103657  0.018387 -0.271393 -0.037719
     9 z      -0.009507  0.030015 -0.040706  0.267492  0.009588  0.061409
    10 x       0.051359  0.047333  0.054773 -0.059370 -0.040852  0.264993
    10 y      -0.041971 -0.051043 -0.247504  0.018387 -0.271393 -0.037719
    10 z       0.020212  0.048632  0.049755  0.267492  0.009588  0.061409
    11 x      -0.020212 -0.051126  0.011690 -0.059370 -0.040852  0.264993
    11 y       0.052771 -0.053333  0.006899  0.018387 -0.271393 -0.037719
    11 z       0.020997  0.049744 -0.036519  0.267492  0.009588  0.061409
    12 x      -0.021669  0.091090 -0.061876 -0.059370 -0.040852  0.264993
    12 y      -0.001800  0.026453  0.009953  0.018387 -0.271393 -0.037719
    12 z      -0.040704  0.100955  0.012115  0.267492  0.009588  0.061409


  Frequency     125.3034  133.7569  140.3822  142.8054  147.8463  149.9248
  IR Intensity    0.0006    0.0017    0.0008    0.0026    0.0003    0.0005
     in X         0.0002    0.0000    0.0000    0.0020    0.0002    0.0000
     in Y         0.0004    0.0003    0.0007    0.0000    0.0000    0.0000
     in Z         0.0000    0.0015    0.0001    0.0006    0.0001    0.0005
  Raman Intsty    0.0697    0.0239    0.0374    0.0041    0.0746    0.0001

     1 x      -0.004273  0.015553 -0.003851  0.018236 -0.017554  0.025267
     1 y       0.071093 -0.000373  0.016025 -0.033650 -0.009364  0.010860
     1 z      -0.167024 -0.027040  0.025119 -0.001254  0.064203  0.020499
     2 x       0.156635  0.009339 -0.074237 -0.067610 -0.040419  0.002733
     2 y       0.046837 -0.106218 -0.014810 -0.006523 -0.009311 -0.012633
     2 z       0.084374  0.053638 -0.006299  0.013262 -0.057255  0.015964
     3 x      -0.131243  0.005850  0.046012 -0.022921  0.054964 -0.021149
     3 y      -0.098106  0.072464 -0.005553  0.067282  0.023464  0.023074
     3 z       0.148940 -0.005554 -0.063072 -0.033283 -0.012561 -0.010247
     4 x       0.124547  0.085425 -0.005321 -0.037859  0.035550  0.002513
     4 y      -0.042106 -0.074992  0.052276 -0.156758 -0.112515  0.186683
     4 z       0.162680  0.292811 -0.057713  0.143455  0.270582 -0.068197
     5 x       0.183513  0.115207  0.116989 -0.026690 -0.009020  0.104765
     5 y       0.361661  0.041619  0.223189 -0.071047 -0.032796  0.128195
     5 z      -0.279149 -0.092679 -0.391658 -0.275893  0.077718  0.008695
     6 x      -0.193557 -0.022584 -0.285222  0.323090 -0.201299 -0.162065
     6 y       0.032198 -0.009787  0.230602  0.001040 -0.087247  0.031392
     6 z      -0.456427  0.052274  0.480264  0.241708 -0.276986 -0.038204
     7 x       0.018223 -0.297494 -0.123781  0.192924 -0.034325 -0.040575
     7 y       0.060990  0.116388 -0.080692 -0.033381 -0.007886  0.045235
     7 z       0.068090 -0.371552  0.157536 -0.018791  0.212947  0.252599
     8 x       0.085645  0.165148 -0.092428 -0.033523 -0.118987 -0.230600
     8 y       0.082190  0.032704 -0.083593  0.019541 -0.135184 -0.413480
     8 z       0.148960 -0.079957  0.184050 -0.214135  0.068447 -0.088564
     9 x      -0.238859  0.188240  0.374857 -0.263705  0.425664 -0.300427
     9 y      -0.169335  0.347826 -0.100707  0.461484  0.241853  0.384495
     9 z       0.156865  0.020244 -0.154515  0.101283 -0.018930  0.126701
    10 x      -0.116713 -0.079880 -0.039184 -0.189444 -0.249167  0.395986
    10 y      -0.086922 -0.174502  0.057845 -0.109289 -0.109628 -0.007859
    10 z       0.114401  0.160659 -0.072772  0.136382  0.173457 -0.118076
    11 x       0.145922  0.024738 -0.082625 -0.119869  0.107069  0.169319
    11 y       0.066971 -0.418548 -0.055635  0.214601  0.177137 -0.356903
    11 z       0.117348  0.225636  0.045327 -0.043076 -0.537965 -0.131045
    12 x      -0.033889 -0.215434  0.174937  0.241227  0.048101  0.052919
    12 y      -0.329271  0.179958 -0.238117 -0.358495  0.060560 -0.023143
    12 z      -0.111763 -0.232512 -0.137787 -0.045579  0.037419  0.024850


  Frequency     153.2932  167.4254  173.1111  189.4019  191.3310  204.4842
  IR Intensity    0.0021    0.0014    0.0038    0.0025    0.0054    0.0060
     in X         0.0018    0.0014    0.0013    0.0002    0.0035    0.0049
     in Y         0.0002    0.0000    0.0024    0.0008    0.0019    0.0011
     in Z         0.0001    0.0000    0.0000    0.0015    0.0000    0.0000
  Raman Intsty    0.0023    0.0158    0.0079    0.0099    0.0757    0.0196

     1 x      -0.010348  0.091620 -0.039117  0.006524 -0.091253 -0.051553
     1 y      -0.020557  0.009548 -0.075449 -0.003823  0.029303 -0.044945
     1 z      -0.055826  0.095041 -0.054932  0.124531 -0.061511  0.016346
     2 x      -0.078583 -0.084898  0.111200 -0.031507  0.039093 -0.036967
     2 y      -0.027523 -0.058345 -0.055996  0.121753 -0.029369  0.148429
     2 z       0.041109 -0.060229 -0.007349 -0.100181  0.031505 -0.043272
     3 x       0.034856 -0.034754  0.009917  0.032032 -0.050036 -0.155692
     3 y       0.022385  0.023936 -0.072695 -0.096658 -0.095850 -0.186499
     3 z      -0.041864 -0.156531  0.115869 -0.082121  0.066378  0.121668
     4 x       0.276919  0.157722  0.046123  0.027564 -0.033591 -0.128427
     4 y      -0.204958 -0.117914 -0.210249 -0.239362  0.296495 -0.265631
     4 z       0.105863  0.038002 -0.053931 -0.027720 -0.289797 -0.224580
     5 x       0.286241  0.261994 -0.034685 -0.108127  0.072430 -0.056213
     5 y       0.368741  0.215634  0.009576 -0.161828  0.060695  0.353663
     5 z       0.312187  0.233318 -0.045166  0.144481  0.522249 -0.136599
     6 x      -0.012956 -0.044697 -0.282797 -0.539222  0.030875  0.267781
     6 y       0.135481 -0.046681  0.060558  0.154682  0.022350 -0.097510
     6 z       0.321441 -0.250386  0.152502 -0.086857  0.034732 -0.062453
     7 x       0.037485  0.105165 -0.124076  0.165866 -0.091157  0.225010
     7 y      -0.153882 -0.133679 -0.130767 -0.186940  0.079129 -0.186868
     7 z      -0.211685  0.055320 -0.283453 -0.073313 -0.128864 -0.137817
     8 x      -0.089949 -0.184629  0.147572  0.157990  0.121438 -0.270257
     8 y       0.032599 -0.228122 -0.178597  0.427206  0.018518  0.106198
     8 z      -0.122628 -0.135879  0.072238 -0.072354 -0.013175  0.070214
     9 x      -0.284122  0.104690 -0.023970 -0.050021  0.217817  0.325414
     9 y      -0.191116  0.125993  0.136461  0.211767  0.194832  0.159878
     9 z      -0.053355 -0.190128  0.215766  0.015378  0.122902  0.193608
    10 x      -0.199556 -0.044992  0.418447  0.073801 -0.155478  0.100172
    10 y       0.031244 -0.040388 -0.099473  0.125520 -0.081888  0.197271
    10 z      -0.020907 -0.121678 -0.038806 -0.009080 -0.133837  0.024732
    11 x       0.102468 -0.407584 -0.052683  0.005505  0.043862  0.058374
    11 y      -0.070017  0.194621  0.566451 -0.228067  0.056476 -0.169522
    11 z      -0.357679  0.480633 -0.050125  0.065060 -0.021975 -0.009253
    12 x      -0.052091  0.085734 -0.191647  0.258243 -0.084413 -0.230844
    12 y       0.082526  0.060163  0.089301 -0.128326 -0.532310  0.001444
    12 z       0.094186  0.035842 -0.032883  0.113246 -0.135577  0.169250


  Frequency     221.4506  227.2789  245.7618  254.3350  281.8769  294.2788
  IR Intensity    0.0152    0.0061    0.0186    0.0112    0.0099    0.0673
     in X         0.0084    0.0002    0.0102    0.0051    0.0072    0.0025
     in Y         0.0009    0.0049    0.0046    0.0028    0.0018    0.0058
     in Z         0.0060    0.0010    0.0038    0.0033    0.0008    0.0590
  Raman Intsty    0.0018    0.2242    0.3193    0.2989    0.0203    0.8385

     1 x      -0.113974  0.009789 -0.137727  0.021820  0.081033 -0.106201
     1 y       0.037392 -0.136013 -0.012310 -0.173269  0.013379 -0.089201
     1 z       0.130064  0.182460 -0.130310 -0.071697  0.063451 -0.118125
     2 x      -0.142232 -0.152862 -0.013176  0.084170 -0.000107  0.158638
     2 y      -0.041642 -0.128518 -0.055446 -0.004879 -0.003963  0.160144
     2 z       0.025698 -0.060666  0.024220  0.041644  0.031534 -0.111937
     3 x      -0.075647  0.088653 -0.043681 -0.214107  0.101765 -0.049468
     3 y       0.172100 -0.059996 -0.097833  0.203708  0.059993  0.090298
     3 z       0.030405 -0.023035 -0.117671  0.122679 -0.103477 -0.142451
     4 x      -0.045393 -0.246639  0.136114 -0.114925 -0.387676 -0.149999
     4 y      -0.091132  0.157039 -0.225105  0.067337 -0.081911 -0.264509
     4 z       0.378197 -0.153421  0.147120 -0.057042 -0.194111  0.009798
     5 x      -0.011493  0.201080 -0.000506  0.036408  0.157155 -0.307082
     5 y       0.083994  0.354728 -0.006561  0.064513  0.045694  0.277082
     5 z       0.098338 -0.106885  0.081672 -0.032841  0.186942  0.138126
     6 x       0.139607  0.019522  0.123116 -0.214065 -0.005635  0.007044
     6 y      -0.149465 -0.319965 -0.000991 -0.012020  0.038895 -0.210485
     6 z      -0.100514 -0.024479  0.115385  0.116510 -0.016854  0.125836
     7 x      -0.231207 -0.170382  0.070257  0.180446  0.105499 -0.164760
     7 y       0.139832 -0.063966 -0.011645  0.099378 -0.130816  0.165265
     7 z      -0.145432  0.120268  0.572897  0.172082  0.021394  0.014161
     8 x      -0.098264  0.438885  0.163146  0.010352 -0.122841  0.086425
     8 y       0.147095  0.225188  0.284085  0.080732  0.065179 -0.117415
     8 z      -0.108304  0.019631  0.030422 -0.686536  0.180563  0.118408
     9 x       0.099926 -0.084806 -0.008501  0.199304 -0.132640 -0.047099
     9 y      -0.190210  0.075614  0.141026 -0.170550  0.003044  0.073993
     9 z      -0.108771  0.052545 -0.117564 -0.012552 -0.254557 -0.320597
    10 x       0.512658  0.020110  0.141819  0.087314  0.157170 -0.038943
    10 y       0.201495 -0.179263 -0.011387 -0.198930 -0.076325 -0.152736
    10 z      -0.019559 -0.032087 -0.284978  0.216562  0.548516 -0.062005
    11 x      -0.137661 -0.239018  0.001217  0.098191  0.059357  0.405781
    11 y      -0.003135 -0.011924  0.017808  0.049194  0.035805  0.066270
    11 z      -0.151697 -0.178927 -0.003258  0.055271 -0.010862  0.222546
    12 x       0.167275  0.126097 -0.394789 -0.154189 -0.048091  0.205096
    12 y      -0.338490  0.149267  0.010093 -0.010111  0.017725 -0.029605
    12 z      -0.064101  0.185670 -0.275053  0.118169 -0.450911  0.197627


  Frequency     311.0050  325.1839  339.7318  360.1375  363.6748  388.7204
  IR Intensity    0.1401    0.0285    0.1161    0.0252    0.2166    0.1084
     in X         0.0433    0.0048    0.0020    0.0046    0.0345    0.0453
     in Y         0.0243    0.0085    0.0002    0.0202    0.0025    0.0629
     in Z         0.0725    0.0152    0.1139    0.0004    0.1796    0.0002
  Raman Intsty    1.9878    0.2502    3.0125    1.4794    0.2996    0.6219

     1 x       0.109483  0.113714 -0.033588 -0.064293  0.098967 -0.000794
     1 y       0.004408 -0.097790 -0.047548 -0.022424  0.056309 -0.032972
     1 z      -0.180982 -0.199291  0.310831  0.117394  0.123719 -0.085517
     2 x       0.018704 -0.093130 -0.000230  0.010824 -0.141466  0.144895
     2 y       0.167035  0.110153 -0.021970  0.148519  0.047691 -0.241535
     2 z      -0.354833 -0.018744  0.173179 -0.074787  0.320268 -0.004328
     3 x       0.114420 -0.219638  0.043068  0.081920 -0.230261  0.155816
     3 y       0.113826  0.177421  0.092746  0.117804  0.050904 -0.185261
     3 z       0.059694  0.030754  0.043547 -0.004036  0.123193  0.011826
     4 x      -0.069287 -0.224428 -0.327603  0.480355  0.139294  0.020902
     4 y      -0.357556  0.115572 -0.095915  0.223554 -0.304864 -0.093466
     4 z      -0.089850  0.261908  0.126315 -0.059394 -0.348214 -0.094746
     5 x      -0.082508 -0.029517  0.065706 -0.410689  0.049305  0.177006
     5 y       0.076703  0.015082  0.034564  0.169562 -0.103226 -0.067556
     5 z       0.158091  0.066368 -0.046579 -0.033938 -0.070702 -0.048185
     6 x       0.025061  0.024394 -0.136788 -0.067326  0.154303 -0.164061
     6 y       0.093097  0.284702 -0.120672 -0.255183  0.343101 -0.132256
     6 z       0.040132 -0.019022 -0.011779  0.046050 -0.170274  0.093403
     7 x      -0.059214  0.405951  0.318791  0.201939 -0.239656  0.190194
     7 y       0.287694 -0.001303  0.085056 -0.104862  0.076662  0.641788
     7 z       0.179167 -0.144329 -0.106748 -0.028083  0.069441 -0.081434
     8 x       0.168812  0.136663  0.313932  0.187294  0.285460 -0.181190
     8 y      -0.213949 -0.072316 -0.322322 -0.149774 -0.155570  0.106090
     8 z      -0.035572  0.316108 -0.079961  0.054151 -0.026281  0.152080
     9 x       0.021626  0.050531 -0.028658 -0.050346  0.006231 -0.058248
     9 y      -0.157263 -0.016263 -0.010498  0.019230  0.058302  0.105448
     9 z       0.406241 -0.110979 -0.055515 -0.198379 -0.314887 -0.214920
    10 x      -0.057822  0.126445 -0.186551  0.053179  0.017944  0.021468
    10 y       0.087133 -0.385663  0.425337  0.047845  0.026215  0.074571
    10 z       0.115160 -0.172455 -0.251412  0.297475  0.104790  0.086304
    11 x      -0.328644 -0.202683  0.116627 -0.219686 -0.045066 -0.209203
    11 y      -0.166131 -0.139698  0.009173 -0.097629 -0.044205 -0.005968
    11 z      -0.038726 -0.115555 -0.015541 -0.072006 -0.116692 -0.063638
    12 x       0.092876 -0.050156 -0.146478 -0.208623 -0.042783 -0.154261
    12 y       0.010336 -0.026266 -0.032403 -0.143384 -0.081004 -0.080776
    12 z      -0.167278  0.141127 -0.187437 -0.051836  0.196946  0.264108


  Frequency     400.3811  425.7077  464.4229  489.7260  532.4872  616.2095
  IR Intensity    0.1939    0.6187    0.2125    0.4312    0.2055    0.0343
     in X         0.0072    0.5458    0.0136    0.1239    0.0188    0.0086
     in Y         0.0460    0.0585    0.1547    0.2858    0.0232    0.0034
     in Z         0.1407    0.0144    0.0442    0.0215    0.1635    0.0223
  Raman Intsty    1.1271    0.0563    0.2418    0.0560    0.0513    1.7523

     1 x       0.024710  0.614343  0.070140  0.167040  0.376092 -0.237281
     1 y      -0.090623 -0.175582 -0.125093  0.523502  0.326757 -0.166575
     1 z      -0.346616  0.087477 -0.159978 -0.204898 -0.163627  0.146087
     2 x       0.153042  0.150138  0.096353  0.347861 -0.372741  0.510193
     2 y      -0.057647 -0.151241 -0.198736  0.248860 -0.190269  0.110192
     2 z      -0.223058  0.152356  0.298050  0.214123  0.122593  0.301248
     3 x      -0.064362  0.290079 -0.418233 -0.040464 -0.204049 -0.093126
     3 y      -0.234131 -0.003335 -0.334783  0.022921  0.066308  0.126751
     3 z      -0.070435 -0.004142  0.079722  0.199317 -0.501886 -0.613894
     4 x      -0.178305 -0.126575  0.078949 -0.143043  0.029692 -0.024920
     4 y       0.195943  0.004597  0.069313 -0.093912 -0.022636 -0.014346
     4 z       0.261288  0.069352 -0.000620  0.006521 -0.026377 -0.024665
     5 x       0.093992 -0.399060 -0.241127  0.078549 -0.046391  0.041035
     5 y      -0.026146  0.208809  0.158166 -0.099948 -0.015643 -0.005908
     5 z       0.047929  0.019174  0.100329  0.007892  0.009493 -0.018846
     6 x       0.068646 -0.004616 -0.019884 -0.098557 -0.090009  0.039219
     6 y       0.153211  0.174875 -0.027574 -0.372723 -0.216966  0.089163
     6 z       0.014870 -0.084529  0.049388  0.120949  0.076019 -0.037571
     7 x      -0.153321 -0.177014  0.110173 -0.080881  0.068234 -0.053310
     7 y      -0.236584 -0.037965  0.118847 -0.223793  0.049900 -0.011465
     7 z       0.071640  0.018520 -0.014644  0.012024 -0.007600 -0.008328
     8 x       0.200492 -0.162704  0.032692 -0.034275  0.103367 -0.023289
     8 y      -0.126446  0.118430  0.005597 -0.005564 -0.033258  0.002219
     8 z      -0.059051 -0.091418 -0.021252 -0.059176  0.079457  0.040843
     9 x      -0.014307 -0.054181  0.043674 -0.011471  0.056987  0.035388
     9 y       0.093904  0.016859  0.047617  0.021065 -0.056499 -0.054800
     9 z      -0.154122 -0.029839 -0.022517 -0.127585  0.241306  0.216935
    10 x       0.007477 -0.068393  0.001384 -0.038409  0.051067 -0.007122
    10 y       0.452491  0.002918  0.135285 -0.058137  0.076178 -0.009632
    10 z       0.276195 -0.151820  0.041692 -0.117986  0.114912  0.039887
    11 x      -0.054542 -0.076101 -0.119493 -0.236752  0.160025 -0.195128
    11 y       0.019339  0.017167 -0.000111 -0.097844  0.055673 -0.055869
    11 z       0.033190 -0.039312 -0.088717 -0.114147  0.038754 -0.090424
    12 x      -0.105252 -0.188010  0.413615 -0.000516 -0.093812 -0.026113
    12 y      -0.070030 -0.112261  0.277687 -0.016835 -0.078408 -0.023214
    12 z       0.270836  0.009013 -0.303190  0.023003  0.120999  0.080648




--------------------------------------------------------------------------------
  Vibrational properties (for cluster):  Temperature  =       0.000 K
--------------------------------------------------------------------------------
  Zero point energy            =        0.524546 eV
--------------------------------------------------------------------------------

  Phonon density of states : 

--------------------------------------------------------------------------------
 Frequency (cm-1) Density of States                                             
--------------------------------------------------------------------------------
    0.00000 |********************                                          0.032
    9.62828 |                                                              0.000
   19.25655 |                                                              0.000
   28.88483 |                                                              0.000
   38.51310 |                                                              0.000
   48.14138 |                                                              0.000
   57.76965 |                                                              0.000
   67.39793 |                                                              0.000
   77.02620 |                                                              0.000
   86.65448 |                                                              0.000
   96.28275 |                                                              0.000
  105.91103 |                                                              0.000
  115.53930 |                                                              0.000
  125.16758 |****************************************                      0.065
  134.79585 |****************************************                      0.065
  144.42413 |************************************************************  0.097
  154.05240 |                                                              0.000
  163.68068 |****************************************                      0.065
  173.30895 |                                                              0.000
  182.93723 |****************************************                      0.065
  192.56550 |                                                              0.000
  202.19378 |********************                                          0.032
  211.82205 |                                                              0.000
  221.45033 |****************************************                      0.065
  231.07860 |                                                              0.000
  240.70688 |********************                                          0.032
  250.33515 |********************                                          0.032
  259.96343 |                                                              0.000
  269.59170 |                                                              0.000
  279.21998 |********************                                          0.032
  288.84825 |********************                                          0.032
  298.47653 |                                                              0.000
  308.10480 |********************                                          0.032
  317.73308 |********************                                          0.032
  327.36135 |                                                              0.000
  336.98963 |********************                                          0.032
  346.61790 |                                                              0.000
  356.24618 |****************************************                      0.065
  365.87445 |                                                              0.000
  375.50273 |                                                              0.000
  385.13100 |********************                                          0.032
  394.75928 |********************                                          0.032
  404.38755 |                                                              0.000
  414.01583 |                                                              0.000
  423.64410 |********************                                          0.032
  433.27238 |                                                              0.000
  442.90065 |                                                              0.000
  452.52893 |                                                              0.000
  462.15720 |********************                                          0.032
  471.78548 |                                                              0.000
  481.41375 |********************                                          0.032
  491.04203 |                                                              0.000
  500.67030 |                                                              0.000
  510.29858 |                                                              0.000
  519.92685 |                                                              0.000
  529.55513 |********************                                          0.032
  539.18340 |                                                              0.000
  548.81168 |                                                              0.000
  558.43995 |                                                              0.000
  568.06823 |                                                              0.000
  577.69650 |                                                              0.000
  587.32478 |                                                              0.000
  596.95305 |                                                              0.000
  606.58133 |********************                                          0.032
--------------------------------------------------------------------------------



  XYZ File written as 004/0/sp_mod_-40/sp_mod_-40_eig.xyz


  Time to end of properties =       0.0126 seconds


  Peak dynamic memory used =       0.64 MB 


  Timing analysis for GULP :

--------------------------------------------------------------------------------
  Task / Subroutine                                          Time (Seconds)
--------------------------------------------------------------------------------
  Calculation of phonons                                          0.0038
--------------------------------------------------------------------------------
  Total CPU time                                                  0.0127
--------------------------------------------------------------------------------


  Job Finished at 10:33.25 17th May        2022                               

