12
Properties=species:S:1:pos:R:3:forces:R:3 energy=-182.35090019 pbc="F F F"
Al    -0.056556656999999996    1.670295596    2.158908021    -1.431929    0.99454    0.520108
Al    2.853770596    2.179451525    2.075242075    -2.327993    -9.932348    1.950615
Al    1.4040221579999999    2.482860581    -0.612041153    5.332999    -5.033894    0.113289
F    0.931373352    3.1379300189999997    2.857396832    -0.719258    0.916378    0.42608
F    -1.5718934469999999    2.683980543    2.1744510950000002    1.963465    -1.362323    -0.080123
F    -0.52536746    -0.083168718    2.77473376    0.058854    0.149013    -0.138433
F    2.228872869    1.588157085    1.917518734    4.575914    8.854315    -0.386585
F    2.863940342    1.9162933720000002    -0.10904245400000001    -4.01572    2.056362    -2.219761
F    1.057301214    3.0887404519999997    -2.5411748039999997    -0.443468    0.710481    -1.112943
F    1.728071868    4.179430587    0.653391765    -0.157812    3.375751    1.344392
F    3.4543999660000004    2.807332111    2.208586668    -1.916374    -0.597294    -0.81061
F    0.002924099999999999    1.8250618680000001    0.184190505    -0.918677    -0.130981    0.393971
