********************************************************************************
*                       GENERAL UTILITY LATTICE PROGRAM                        *
*                                 Julian Gale                                  *
*                       Curtin Institute for Computation                       *
*                           Department of Chemistry                            *
*                    Curtin University, Western Australia                      *
********************************************************************************
* Version = 5.1.1 * Last modified =  11th January 2019                         *
********************************************************************************
*  optimise     - perform optimisation run                                     *
*  conp         - constant pressure calculation                                *
*  property     - calculate properties for final geometry                      *
*  phonon       - calculate phonons for final geometry                         *
*  eigenvectors - output phonon eigenvectors                                   *
*  conjugate    - use conjugate gradients minimiser                            *
********************************************************************************

  Job Started  at 11:44.59  5th May        2022                               

  Number of CPUs =     1

  Host name      = login04                                 


  Total number of configurations input =      1

********************************************************************************
*  Input for Configuration =   1                                               *
********************************************************************************

  Formula = Al3F9                                                       

  Number of irreducible atoms/shells =      21


  Total number atoms/shells =      21

  Dimensionality = 0               :  Cluster


  Charge on cluster =  -0.000000


  Initial cluster dipoles : x =     -0.218661 e.Angs
                            y =     -0.205419 e.Angs
                            z =      0.039569 e.Angs

  Temperature of configuration =  0.000     K 

  Symmetry number =      1

  Cartesian coordinates of cluster :

--------------------------------------------------------------------------------
   No.  Atomic       x           y          z         Charge      Occupancy
        Label      (Angs)      (Angs)     (Angs)        (e)         (Frac)  
--------------------------------------------------------------------------------
      1 Al    c      1.2826 *    0.0489 *    2.4438 *   3.00000    1.000000    
      2 Al    c      1.2768      1.1892     -0.0831     3.00000    1.000000    
      3 Al    c     -0.3191 *    0.8358 *   -2.3222 *   3.00000    1.000000    
      4 F     c     -1.6706 *   -0.3699 *   -2.2187 *   0.59000    1.000000    
      5 F     c      2.0632 *   -0.3521 *    0.7559 *   0.59000    1.000000    
      6 F     c      0.0496 *    1.8207 *   -3.7978 *   0.59000    1.000000    
      7 F     c     -0.3590 *    1.9326 *   -0.7684 *   0.59000    1.000000    
      8 F     c      2.5879 *    2.4209 *   -0.3204 *   0.59000    1.000000    
      9 F     c      1.2628 *    0.0411 *   -1.6257 *   0.59000    1.000000    
     10 F     c      0.4413 *    1.5394 *    1.6133 *   0.59000    1.000000    
     11 F     c      2.5439 *    0.5953 *    3.6244 *   0.59000    1.000000    
     12 F     c      0.0206 *   -1.2007 *    2.8133 *   0.59000    1.000000    
     13 F     s     -1.6706 *   -0.3699 *   -2.2187 *  -1.59000    1.000000    
     14 F     s      2.0632 *   -0.3521 *    0.7559 *  -1.59000    1.000000    
     15 F     s      0.0496 *    1.8207 *   -3.7978 *  -1.59000    1.000000    
     16 F     s     -0.3590 *    1.9326 *   -0.7684 *  -1.59000    1.000000    
     17 F     s      2.5879 *    2.4209 *   -0.3204 *  -1.59000    1.000000    
     18 F     s      1.2628 *    0.0411 *   -1.6257 *  -1.59000    1.000000    
     19 F     s      0.4413 *    1.5394 *    1.6133 *  -1.59000    1.000000    
     20 F     s      2.5439 *    0.5953 *    3.6244 *  -1.59000    1.000000    
     21 F     s      0.0206 *   -1.2007 *    2.8133 *  -1.59000    1.000000    
--------------------------------------------------------------------------------


  Brillouin zone sampling points :

--------------------------------------------------------------------------------
  Point number          x          y          z            Weight
--------------------------------------------------------------------------------
        1           0.000000   0.000000   0.000000     1.00000000
--------------------------------------------------------------------------------


********************************************************************************
*  General input information                                                   *
********************************************************************************

  Species output for all configurations : 

--------------------------------------------------------------------------------
  Species    Type    Atomic    Atomic    Charge       Radii (Angs)     Library
                     Number     Mass       (e)     Cova   Ionic  VDW   Symbol
--------------------------------------------------------------------------------
    Al       Core       13      26.98   3.000000   1.350  0.000  2.050          
    F        Core        9      19.00   0.590000   0.710  0.000  1.300          
    F        Shell       9       0.00  -1.590000   0.710  0.000  1.300          
--------------------------------------------------------------------------------


  Accuracy factor for short range sums = 12.000

  Time limit = Infinity

  Maximum range for interatomic potentials =    100000.000000 Angstroms

  General interatomic potentials :

--------------------------------------------------------------------------------
Atom  Types   Potential      Parameter       Value         Units   Cutoffs(Ang)
  1     2                                                            Min /  Max 
--------------------------------------------------------------------------------
Al   c F    s Buckingham    Buckingham A     3760.0008    eV        0.000 10.000
                            Buckingham rho  0.22200000    Ang       
                            Buckingham C     0.0000000    eV*Ang^6  
--------------------------------------------------------------------------------
F    s F    s Buck 4 range  Buck4 A          1127.7000    eV        0.000 12.000
                            Buck4 rho       0.27530000    Ang       
                            Buck4 C          15.830000    eV*Ang^6  
                            Buck4 minimum    2.7900000    Ang       
--------------------------------------------------------------------------------
F    c F    s Spring (c-s)  Spring k 2       20.770000    eV*Ang^-2 0.000  0.800
                            Spring k 4       0.0000000    eV*Ang^-4 
--------------------------------------------------------------------------------

********************************************************************************
*  Output for configuration   1                                                *
********************************************************************************


  Components of energy : 

--------------------------------------------------------------------------------
  Interatomic potentials     =          10.51497315 eV    
  Monopole - monopole (real) =        -178.81669818 eV    
--------------------------------------------------------------------------------
  Total lattice energy       =        -168.30172502 eV    
--------------------------------------------------------------------------------
  Total lattice energy       =          -16238.5437 kJ/mol
--------------------------------------------------------------------------------


  Number of variables =       60

  Maximum number of calculations  =          2000
  Maximum Hessian update interval =            10
  Maximum step size               =   1.000000000
  Maximum parameter tolerance     =   0.000001000
  Maximum function  tolerance     =   0.000010000
  Maximum gradient  tolerance     =   0.000000010
  Maximum gradient  component     =   0.010000000

  Symmetry not applied to optimisation

  Cell parameters to be optimised using strains

  Conjugate gradient optimiser to be used

  Lower half triangular hessian to be used

  Minimiser to switch to RFO
  When gradient norm is less than     0.010000

  Start of cluster optimisation :

  Cycle:      0 Energy:      -168.301725  Gnorm:      0.772380  CPU:    0.007
  Cycle:      1 Energy:      -179.688900  Gnorm:      0.486293  CPU:    0.008
  Cycle:      2 Energy:      -182.171427  Gnorm:      0.395832  CPU:    0.008
  Cycle:      3 Energy:      -184.322984  Gnorm:      0.289706  CPU:    0.008
  Cycle:      4 Energy:      -185.350763  Gnorm:      0.222355  CPU:    0.008
  Cycle:      5 Energy:      -185.994422  Gnorm:      0.168054  CPU:    0.009
  Cycle:      6 Energy:      -186.358582  Gnorm:      0.130944  CPU:    0.009
  Cycle:      7 Energy:      -186.588398  Gnorm:      0.104481  CPU:    0.009
  Cycle:      8 Energy:      -186.739409  Gnorm:      0.086501  CPU:    0.009
  Cycle:      9 Energy:      -186.847341  Gnorm:      0.074070  CPU:    0.010
  Cycle:     10 Energy:      -186.939008  Gnorm:      0.064105  CPU:    0.010
  Cycle:     11 Energy:      -187.000873  Gnorm:      0.058088  CPU:    0.010
  Cycle:     12 Energy:      -187.054314  Gnorm:      0.052974  CPU:    0.010
  Cycle:     13 Energy:      -187.098999  Gnorm:      0.048718  CPU:    0.011
  Cycle:     14 Energy:      -187.137114  Gnorm:      0.044999  CPU:    0.011
  Cycle:     15 Energy:      -187.169771  Gnorm:      0.041682  CPU:    0.011
  Cycle:     16 Energy:      -187.197871  Gnorm:      0.038676  CPU:    0.011
  Cycle:     17 Energy:      -187.222107  Gnorm:      0.035929  CPU:    0.012
  Cycle:     18 Energy:      -187.243048  Gnorm:      0.033403  CPU:    0.012
  Cycle:     19 Energy:      -187.261163  Gnorm:      0.031072  CPU:    0.012
  Cycle:     20 Energy:      -187.277895  Gnorm:      0.028765  CPU:    0.012
  Cycle:     21 Energy:      -187.291216  Gnorm:      0.026800  CPU:    0.013
  Cycle:     22 Energy:      -187.302912  Gnorm:      0.024956  CPU:    0.013
  Cycle:     23 Energy:      -187.313042  Gnorm:      0.023249  CPU:    0.013
  Cycle:     24 Energy:      -187.321839  Gnorm:      0.021665  CPU:    0.013
  Cycle:     25 Energy:      -187.329482  Gnorm:      0.020196  CPU:    0.014
  Cycle:     26 Energy:      -187.336126  Gnorm:      0.018833  CPU:    0.014
  Cycle:     27 Energy:      -187.341906  Gnorm:      0.017569  CPU:    0.014
  Cycle:     28 Energy:      -187.346940  Gnorm:      0.016397  CPU:    0.014
  Cycle:     29 Energy:      -187.351328  Gnorm:      0.015311  CPU:    0.015
  Cycle:     30 Energy:      -187.355399  Gnorm:      0.014237  CPU:    0.015
  Cycle:     31 Energy:      -187.358682  Gnorm:      0.013316  CPU:    0.015
  Cycle:     32 Energy:      -187.361585  Gnorm:      0.012454  CPU:    0.015
  Cycle:     33 Energy:      -187.364123  Gnorm:      0.011656  CPU:    0.016
  Cycle:     34 Energy:      -187.366349  Gnorm:      0.010916  CPU:    0.016
  Cycle:     35 Energy:      -187.368303  Gnorm:      0.010230  CPU:    0.016
  Cycle:     36 Energy:      -187.370020  Gnorm:      0.009595  CPU:    0.016
  ** Hessian has required structure
  Cycle:     37 Energy:      -187.372218  Gnorm:      0.008879  CPU:    0.021
  ** Hessian has required structure
  Cycle:     38 Energy:      -187.374855  Gnorm:      0.007933  CPU:    0.022
  ** Hessian has required structure
  Cycle:     39 Energy:      -187.378737  Gnorm:      0.006279  CPU:    0.022
  ** Hessian has required structure
  Cycle:     40 Energy:      -187.382437  Gnorm:      0.004111  CPU:    0.023
  ** Hessian has required structure
  Cycle:     41 Energy:      -187.384739  Gnorm:      0.001667  CPU:    0.023
  ** Hessian has required structure
  Cycle:     42 Energy:      -187.385188  Gnorm:      0.000015  CPU:    0.024
  ** Hessian has required structure
  Cycle:     43 Energy:      -187.385188  Gnorm:      0.000000  CPU:    0.024
  ** Hessian has required structure
  Cycle:     44 Energy:      -187.385188  Gnorm:      0.000000  CPU:    0.025
  ** Hessian has required structure
  Cycle:     45 Energy:      -187.385188  Gnorm:      0.000000  CPU:    0.026
  ** Hessian has required structure
  Cycle:     46 Energy:      -187.385188  Gnorm:      0.000000  CPU:    0.026
  ** Hessian has required structure
  Cycle:     47 Energy:      -187.385188  Gnorm:      0.000000  CPU:    0.027
  ** Hessian calculated **

  XYZ File written as 001/001_eig.xyz



  **** Optimisation achieved ****


  Final energy =    -187.38518821 eV
  Final Gnorm  =       0.00000007

  Components of energy : 

--------------------------------------------------------------------------------
  Interatomic potentials     =          39.00496039 eV    
  Monopole - monopole (real) =        -226.39014861 eV    
--------------------------------------------------------------------------------
  Total lattice energy       =        -187.38518821 eV    
--------------------------------------------------------------------------------
  Total lattice energy       =          -18079.8062 kJ/mol
--------------------------------------------------------------------------------

  Final cartesian coordinates of atoms :

--------------------------------------------------------------------------------
   No.  Atomic        x           y          z          Radius
        Label       (Angs)      (Angs)     (Angs)       (Angs) 
--------------------------------------------------------------------------------
     1  Al    c     1.282632    0.048946    2.443836    0.000000
     2  Al    c     1.276784    1.189243   -0.083083    0.000000
     3  Al    c    -0.319097    0.835787   -2.322249    0.000000
     4  F     c    -1.670556   -0.369898   -2.218742    0.000000
     5  F     c     2.063174   -0.352116    0.755932    0.000000
     6  F     c     0.049583    1.820662   -3.797749    0.000000
     7  F     c    -0.359050    1.932594   -0.768371    0.000000
     8  F     c     2.587877    2.420947   -0.320355    0.000000
     9  F     c     1.262785    0.041070   -1.625692    0.000000
    10  F     c     0.441337    1.539407    1.613253    0.000000
    11  F     c     2.543915    0.595336    3.624357    0.000000
    12  F     c     0.020557   -1.200649    2.813309    0.000000
    13  F     s    -1.463629   -0.186742   -2.231389    0.000000
    14  F     s     1.893639   -0.153995    0.853938    0.000000
    15  F     s    -0.006682    1.669341   -3.570327    0.000000
    16  F     s    -0.190713    1.733347   -0.866161    0.000000
    17  F     s     2.387659    2.232853   -0.284122    0.000000
    18  F     s     1.088344    0.241601   -1.542285    0.000000
    19  F     s     0.614581    1.337750    1.530063    0.000000
    20  F     s     2.350006    0.511631    3.442210    0.000000
    21  F     s     0.211770   -1.009773    2.753903    0.000000
--------------------------------------------------------------------------------


  Final Cartesian derivatives :

--------------------------------------------------------------------------------
   No.  Atomic          x             y             z           Radius
        Label       (eV/Angs)     (eV/Angs)    (eV/Angs)      (eV/Angs)
--------------------------------------------------------------------------------
      1 Al    c       0.000000      0.000000      0.000000      0.000000
      2 Al    c       0.000000      0.000000      0.000000      0.000000
      3 Al    c       0.000000      0.000000     -0.000000      0.000000
      4 F     c       0.000000      0.000000      0.000000      0.000000
      5 F     c      -0.000000      0.000000      0.000000      0.000000
      6 F     c       0.000000     -0.000000      0.000000      0.000000
      7 F     c       0.000000     -0.000000     -0.000000      0.000000
      8 F     c      -0.000000     -0.000000      0.000000      0.000000
      9 F     c      -0.000000      0.000000      0.000000      0.000000
     10 F     c       0.000000     -0.000000     -0.000000      0.000000
     11 F     c      -0.000000      0.000000     -0.000000      0.000000
     12 F     c       0.000000      0.000000     -0.000000      0.000000
     13 F     s       0.000000      0.000000      0.000000      0.000000
     14 F     s       0.000001     -0.000001      0.000001      0.000000
     15 F     s      -0.000000     -0.000001      0.000001      0.000000
     16 F     s      -0.000001      0.000000     -0.000001      0.000000
     17 F     s       0.000001      0.000000     -0.000000      0.000000
     18 F     s      -0.000000     -0.000001     -0.000001      0.000000
     19 F     s      -0.000001      0.000000      0.000002      0.000000
     20 F     s      -0.000001     -0.000000     -0.000000      0.000000
     21 F     s       0.000000      0.000000     -0.000000      0.000000
--------------------------------------------------------------------------------
  Maximum abs         0.000001      0.000001      0.000002      0.000000
--------------------------------------------------------------------------------


  Born effective charge tensors : 

-------------------------------------------------------------------------------
  Atom             x           y             z
-------------------------------------------------------------------------------
    1 Al    x       0.7248     -0.4119     -0.1908
            y      -0.4046      1.0040     -0.0991
            z      -0.2068     -0.1128      1.1637
-------------------------------------------------------------------------------
    2 Al    x       0.8792     -0.3317      0.2208
            y      -0.3317      0.8760     -0.0245
            z       0.2208     -0.0245      1.6210
-------------------------------------------------------------------------------
    3 Al    x       1.0164     -0.3393      0.2006
            y      -0.3465      0.8695      0.3077
            z       0.2166      0.3214      1.0067
-------------------------------------------------------------------------------
    4 F     x      -0.2259      0.2904     -0.0750
            y       0.2778     -0.2690     -0.0394
            z      -0.0471     -0.0155     -0.5799
-------------------------------------------------------------------------------
    5 F     x      -0.2815      0.0289     -0.0439
            y       0.0139     -0.3013      0.0416
            z      -0.0245      0.0558     -0.3598
-------------------------------------------------------------------------------
    6 F     x      -0.5241      0.0593     -0.1128
            y       0.0775     -0.3521     -0.2540
            z      -0.1529     -0.2884     -0.1866
-------------------------------------------------------------------------------
    7 F     x      -0.3190      0.0106     -0.0501
            y       0.0259     -0.2741      0.0271
            z      -0.0683      0.0116     -0.3495
-------------------------------------------------------------------------------
    8 F     x      -0.2366      0.2792     -0.0906
            y       0.2792     -0.2610     -0.0307
            z      -0.0906     -0.0307     -0.6181
-------------------------------------------------------------------------------
    9 F     x      -0.2788     -0.0052     -0.0240
            y      -0.0025     -0.2771     -0.0131
            z      -0.0454     -0.0315     -0.3866
-------------------------------------------------------------------------------
   10 F     x      -0.2725      0.0042     -0.0087
            y       0.0013     -0.2701      0.0017
            z       0.0115      0.0213     -0.3999
-------------------------------------------------------------------------------
   11 F     x      -0.2378      0.1417      0.2471
            y       0.1235     -0.4842      0.1245
            z       0.2873      0.1589     -0.3408
-------------------------------------------------------------------------------
   12 F     x      -0.2442      0.2737     -0.0726
            y       0.2863     -0.2606     -0.0417
            z      -0.1005     -0.0657     -0.5701
-------------------------------------------------------------------------------




  Moment of inertia tensor (10^-46 x kgm^2): 

-------------------------------------------------------------------------------
                x           y           z           Principal axis system
-------------------------------------------------------------------------------
       x        242.22       -7.85      -55.89           79.765413
       y         -7.85      259.54       32.32          244.962766
       z        -55.89       32.32      103.88          280.915472
-------------------------------------------------------------------------------
  Centre of mass (Ang) =     0.763264     0.706817     0.009850
-------------------------------------------------------------------------------


  Vibrational Frequency Calculation : 

--------------------------------------------------------------------------------

  Frequencies (cm-1) and Eigenvectors : 

  Frequency      -0.0313   -0.0297   -0.0019   -0.0000    0.0000    0.0000
  IR Intensity    0.0000    0.0001    0.0000    0.0000    0.0000    0.0000
     in X         0.0000    0.0000    0.0000    0.0000    0.0000    0.0000
     in Y         0.0000    0.0000    0.0000    0.0000    0.0000    0.0000
     in Z         0.0000    0.0000    0.0000    0.0000    0.0000    0.0000
  Raman Intsty    0.0000    0.0000    0.0000    0.0000    0.0000    0.0000

     1 x      -0.252458 -0.022846  0.212571  0.323349  0.033699  0.037365
     1 y      -0.201140  0.088348 -0.247949  0.029297 -0.323660  0.038411
     1 z      -0.000495  0.028754 -0.112377  0.040915 -0.034607 -0.322826
     2 x       0.040838  0.099374 -0.001440  0.323353  0.033699  0.037367
     2 y      -0.028707 -0.118254  0.001689  0.029292 -0.323660  0.038408
     2 z       0.076638 -0.064760  0.000770  0.040913 -0.034607 -0.322827
     3 x       0.207685 -0.086102 -0.210973  0.323357  0.033699  0.037369
     3 y       0.232613  0.041298  0.246100  0.029288 -0.323660  0.038406
     3 z      -0.083526  0.042245  0.111526  0.040911 -0.034607 -0.322828
     4 x       0.097850 -0.285947 -0.183873  0.271355  0.028279  0.031359
     4 y       0.266664  0.286085  0.214485  0.024578 -0.271609  0.032229
     4 z      -0.235697  0.174061  0.097184  0.034331 -0.029041 -0.270912
     5 x      -0.114021 -0.160834  0.044190  0.271351  0.028279  0.031357
     5 y      -0.117047 -0.183463 -0.077742  0.024583 -0.271609  0.032232
     5 z       0.032532  0.019830 -0.187329  0.034337 -0.029041 -0.270909
     6 x       0.336270  0.045302 -0.278007  0.271357  0.028279  0.031360
     6 y       0.258395 -0.133839  0.324293  0.024576 -0.271609  0.032228
     6 z       0.012560 -0.047643  0.146973  0.034331 -0.029041 -0.270912
     7 x       0.125873  0.189675 -0.044600  0.271353  0.028279  0.031358
     7 y       0.108716  0.149143  0.078233  0.024580 -0.271609  0.032231
     7 z      -0.010290 -0.038625  0.187549  0.034330 -0.029041 -0.270913
     8 x       0.121769  0.296306 -0.004307  0.271352  0.028279  0.031358
     8 y      -0.085597 -0.352602  0.005034  0.024581 -0.271609  0.032232
     8 z       0.228514 -0.193097  0.002300  0.034333 -0.029041 -0.270911
     9 x       0.078936 -0.187360 -0.133418  0.271354  0.028279  0.031359
     9 y       0.064843 -0.203193  0.129433  0.024579 -0.271609  0.032230
     9 z      -0.002286  0.025487 -0.093438  0.034335 -0.029041 -0.270910
    10 x      -0.067084  0.216200  0.133009  0.271349  0.028279  0.031356
    10 y      -0.073174  0.168873 -0.128942  0.024584 -0.271609  0.032233
    10 z       0.024528 -0.044282  0.093657  0.034332 -0.029041 -0.270912
    11 x      -0.265063  0.127968  0.275496  0.271347  0.028279  0.031355
    11 y      -0.308449 -0.072351 -0.321348  0.024587 -0.271609  0.032235
    11 z       0.121067 -0.065274 -0.145631  0.034336 -0.029041 -0.270909
    12 x      -0.309842 -0.229902  0.191391  0.271348  0.028279  0.031356
    12 y      -0.117645  0.327772 -0.223246  0.024585 -0.271609  0.032234
    12 z      -0.162131  0.162108 -0.101196  0.034335 -0.029041 -0.270910


  Frequency      25.4520   38.7240   72.3104   94.9904  155.6822  159.8622
  IR Intensity    0.0000    0.0020    0.0046    0.0020    0.0000    0.0055
     in X         0.0000    0.0010    0.0005    0.0008    0.0000    0.0029
     in Y         0.0000    0.0009    0.0001    0.0010    0.0000    0.0025
     in Z         0.0000    0.0000    0.0040    0.0002    0.0000    0.0001
  Raman Intsty    0.0000    0.0007    0.0000    0.0000    0.0000    0.0942

     1 x       0.059331  0.098741  0.094574  0.045892 -0.030107 -0.153584
     1 y      -0.069197  0.036942  0.067221 -0.053524  0.035115 -0.053060
     1 z      -0.031363  0.105285  0.030600 -0.024259  0.015916 -0.173473
     2 x       0.000000 -0.159985 -0.001180 -0.145640 -0.000001  0.091787
     2 y       0.000000 -0.150297  0.000580  0.169857 -0.000001  0.086229
     2 z      -0.000000  0.028953 -0.003510  0.076987  0.000000 -0.016611
     3 x      -0.059331  0.020709 -0.064342  0.045892  0.030108 -0.026060
     3 y       0.069197  0.075275 -0.082072 -0.053523 -0.035114 -0.115706
     3 z       0.031363 -0.126902  0.059359 -0.024259 -0.015917  0.205984
     4 x      -0.269214 -0.077356 -0.149743 -0.084456 -0.209215 -0.007819
     4 y       0.313980  0.141821  0.011564  0.098499  0.244005 -0.112952
     4 z       0.142311 -0.459239 -0.308790  0.044644  0.110593  0.234420
     5 x       0.270215 -0.117599  0.232513 -0.080851 -0.335176 -0.077946
     5 y       0.132786 -0.114691  0.164978  0.081270 -0.179682 -0.048094
     5 z       0.041248  0.028868  0.069798 -0.089858 -0.094572 -0.120308
     6 x       0.208450  0.297853  0.223593  0.344965  0.168471  0.354591
     6 y      -0.243113  0.224071  0.090350 -0.402328 -0.196488  0.113031
     6 z      -0.110189  0.069089  0.223639 -0.182353 -0.089059  0.421409
     7 x       0.134414 -0.123165 -0.158932 -0.093131 -0.173213 -0.027890
     7 y       0.247342 -0.111494 -0.202764  0.069734 -0.297924 -0.051334
     7 z      -0.114475  0.014704  0.140639 -0.087635  0.186577  0.139462
     8 x       0.000000 -0.133077 -0.131443 -0.262673 -0.000000  0.078113
     8 y       0.000000 -0.125019  0.064570  0.306352 -0.000000  0.073383
     8 z      -0.000000  0.024083 -0.391119  0.138853  0.000000 -0.014136
     9 x      -0.205290 -0.122482 -0.161361 -0.003954  0.230512  0.003738
     9 y      -0.164679 -0.112294 -0.199931  0.043495  0.231098 -0.088217
     9 z       0.151941  0.014342  0.141923  0.138956 -0.216866  0.122741
    10 x      -0.199338 -0.118284  0.230084 -0.016234  0.277878 -0.109569
    10 y      -0.215448 -0.113893  0.167811  0.031959  0.246508 -0.011206
    10 z      -0.078714  0.029230  0.071082  0.141178  0.124862 -0.103589
    11 x      -0.208451  0.219924 -0.056256  0.344966 -0.168473  0.046925
    11 y       0.243112  0.262354 -0.172554 -0.402328  0.196486  0.264172
    11 z       0.110190 -0.162793  0.274285 -0.182353  0.089059 -0.494072
    12 x       0.269214  0.222489 -0.063077 -0.084456  0.209216 -0.155449
    12 y      -0.313980 -0.005477  0.092982  0.098499 -0.244004 -0.040430
    12 z      -0.142310  0.432974 -0.324474  0.044644 -0.110593 -0.204873


  Frequency     169.5594  174.5120  204.7036  206.8379  209.3823  209.5172
  IR Intensity    0.0236    0.0002    0.0254    0.0000    0.0006    0.0817
     in X         0.0089    0.0000    0.0096    0.0000    0.0003    0.0081
     in Y         0.0122    0.0000    0.0131    0.0000    0.0003    0.0020
     in Z         0.0025    0.0002    0.0027    0.0000    0.0000    0.0717
  Raman Intsty    0.0000    0.0000    0.0000    0.0000    0.0276    0.0000

     1 x       0.010455  0.132816 -0.037098  0.236849 -0.178153  0.101117
     1 y      -0.012193  0.126311  0.043266 -0.276234 -0.093696  0.151880
     1 z      -0.005527 -0.027429  0.019611 -0.125202 -0.130293 -0.143806
     2 x       0.177766 -0.001952 -0.136413  0.000001  0.277190 -0.078561
     2 y      -0.207326  0.000959  0.159096  0.000001  0.260405  0.038593
     2 z      -0.093969 -0.005808  0.072111 -0.000000 -0.050164 -0.233763
     3 x       0.010455 -0.134966 -0.037097 -0.236849 -0.075169 -0.180639
     3 y      -0.012193 -0.125256  0.043267  0.276233 -0.144287 -0.112815
     3 z      -0.005526  0.021033  0.019611  0.125202  0.176137 -0.092816
     4 x      -0.239134 -0.212983  0.004126  0.190940 -0.222371 -0.072393
     4 y       0.278898 -0.036228 -0.004811 -0.222692 -0.005165 -0.186341
     4 z       0.126409 -0.322980 -0.002183 -0.100935 -0.409271  0.274178
     5 x       0.349746  0.068231  0.151838  0.093098  0.004449 -0.060595
     5 y       0.008641  0.020655  0.304539 -0.170850  0.085030  0.045666
     5 z       0.105051 -0.019280  0.072275 -0.193845 -0.074939 -0.170621
     6 x      -0.007430 -0.117640  0.111145  0.199271 -0.133500  0.340221
     6 y       0.008666 -0.109972 -0.129631 -0.232409 -0.170976  0.187033
     6 z       0.003928  0.020091 -0.058755 -0.105337  0.124684  0.230954
     7 x      -0.004089 -0.026923 -0.291804 -0.126854  0.097772 -0.074361
     7 y      -0.323768 -0.068737 -0.112240  0.139138  0.011001  0.032733
     7 z       0.169085 -0.002060  0.152562  0.199954  0.056440 -0.168130
     8 x      -0.174188  0.234425  0.386450  0.000001  0.257734  0.071672
     8 y       0.203153 -0.115160 -0.450711  0.000001  0.242128 -0.035209
     8 z       0.092078  0.697554 -0.204282 -0.000000 -0.046643  0.213258
     9 x       0.219372 -0.068090  0.108791 -0.172296  0.056021 -0.056432
     9 y       0.072686 -0.020726  0.325686  0.209757  0.059696  0.011827
     9 z      -0.282887  0.019702 -0.055817 -0.041819  0.078512 -0.177608
    10 x      -0.134462  0.027066 -0.334852  0.206053  0.046201 -0.042671
    10 y      -0.259723  0.068668 -0.091093 -0.178044  0.036336  0.024755
    10 z      -0.218852  0.002481  0.024470  0.035710 -0.097011 -0.180098
    11 x      -0.007430  0.116879  0.111149 -0.199273 -0.197190 -0.154875
    11 y       0.008666  0.110346 -0.129628  0.232407 -0.139689 -0.278084
    11 z       0.003928 -0.022350 -0.058756  0.105337 -0.064839  0.320553
    12 x      -0.239134 -0.016079  0.004125 -0.190941  0.062443  0.237812
    12 y       0.278898  0.148753 -0.004813  0.222691 -0.145080  0.105080
    12 z       0.126409 -0.358614 -0.002183  0.100936  0.438214  0.218041


  Frequency     232.7806  262.6578  277.5891  352.6863  391.0511  401.0162
  IR Intensity    0.0514    0.0311    0.0345    0.0000    0.0000    0.0013
     in X         0.0195    0.0031    0.0180    0.0000    0.0000    0.0001
     in Y         0.0265    0.0007    0.0159    0.0000    0.0000    0.0000
     in Z         0.0054    0.0273    0.0006    0.0000    0.0000    0.0011
  Raman Intsty    0.0000    0.0000    0.0482    0.5232    0.0000    0.0000

     1 x      -0.253789 -0.174082  0.129828 -0.018029  0.032918 -0.000761
     1 y       0.295990 -0.082959  0.157575  0.113855 -0.038391 -0.072932
     1 z       0.134156 -0.146285 -0.102059 -0.285306 -0.017400  0.159471
     2 x       0.208655 -0.022813  0.134698 -0.210483  0.000000 -0.080464
     2 y      -0.243352  0.011206  0.126542 -0.197737  0.000000  0.039528
     2 z      -0.110298 -0.067881 -0.024377  0.038092 -0.000000 -0.239429
     3 x      -0.253788  0.061435  0.179606  0.164808 -0.032918  0.101715
     3 y       0.295990  0.138297  0.133122  0.024037  0.038391  0.023339
     3 z       0.134156 -0.188907  0.046060  0.258743  0.017400  0.140926
     4 x       0.154028  0.164606  0.183991  0.098335  0.037257  0.093456
     4 y      -0.179641  0.052262  0.145937  0.130581 -0.043452  0.096118
     4 z      -0.081421  0.196086  0.026081 -0.102079 -0.019694 -0.035272
     5 x      -0.020231  0.297285 -0.285407  0.229484 -0.146186 -0.244554
     5 y      -0.043586  0.216011 -0.172712 -0.093390  0.390584  0.365777
     5 z       0.267403  0.012915 -0.215136 -0.200071 -0.267020  0.067292
     6 x       0.144601 -0.010657 -0.128249 -0.097517  0.033846 -0.051132
     6 y      -0.168646  0.099495 -0.042627 -0.150351 -0.039474 -0.085129
     6 z      -0.076438 -0.239678 -0.148566  0.147244 -0.017892  0.091094
     7 x       0.094184 -0.222608 -0.141392 -0.043659  0.427154 -0.335293
     7 y       0.063901 -0.272401 -0.228243  0.267962 -0.126630  0.280532
     7 z       0.246697  0.107002  0.292375  0.166442  0.216172  0.083714
     8 x      -0.073228  0.080414  0.141654 -0.268663  0.000000  0.024117
     8 y       0.085405 -0.039503  0.133077 -0.252395  0.000000 -0.011847
     8 z       0.038709  0.239279 -0.025636  0.048621 -0.000000  0.071763
     9 x      -0.178096 -0.251799 -0.118853  0.292872 -0.078193  0.200176
     9 y       0.033965 -0.238356 -0.254530 -0.124530 -0.280359 -0.343977
     9 z      -0.202340  0.122433  0.280461 -0.011453 -0.400637 -0.199341
    10 x      -0.063682  0.268094 -0.307946 -0.107048 -0.202776  0.290915
    10 y       0.141451  0.250056 -0.146425  0.299101  0.016404 -0.258732
    10 z      -0.223046  0.028346 -0.203222 -0.022176  0.451485 -0.215763
    11 x       0.144601 -0.142425 -0.019412 -0.179629 -0.033846  0.102986
    11 y      -0.168646 -0.024295 -0.096093 -0.110014  0.039475  0.059656
    11 z      -0.076438 -0.215831  0.175288 -0.097088  0.017892  0.063203
    12 x       0.154029 -0.021491  0.146368  0.151737 -0.037257 -0.105088
    12 y      -0.179641 -0.122566  0.164419  0.104348  0.043452 -0.090404
    12 z      -0.081421  0.229764 -0.085867  0.056822  0.019694  0.000659


  Frequency     469.9254  511.2749  518.6027  541.8451  546.7743  604.8303
  IR Intensity    0.0036    0.0385    0.0027    0.0000    0.0338    0.1291
     in X         0.0019    0.0038    0.0014    0.0000    0.0128    0.0489
     in Y         0.0017    0.0009    0.0013    0.0000    0.0174    0.0665
     in Z         0.0001    0.0338    0.0000    0.0000    0.0036    0.0137
  Raman Intsty    2.3063    0.0000    3.5833    0.0000    0.0000    0.0000

     1 x       0.000703  0.001088 -0.000720  0.288006 -0.247873  0.127197
     1 y       0.003447 -0.067484  0.061293 -0.335897  0.289090 -0.148348
     1 z      -0.006275  0.150949 -0.136594 -0.152243  0.131028 -0.067238
     2 x       0.111844  0.028750 -0.001840  0.000000  0.150794  0.435690
     2 y       0.105072 -0.014123 -0.001729  0.000000 -0.175869 -0.508138
     2 z      -0.020241  0.085549  0.000333  0.000000 -0.079711 -0.230310
     3 x       0.004598  0.094679  0.085909 -0.288006 -0.247872  0.127197
     3 y       0.001533  0.020440  0.018737  0.335897  0.289090 -0.148348
     3 z       0.005315  0.134011  0.121177  0.152243  0.131028 -0.067238
     4 x       0.004280  0.246598  0.263656  0.010321  0.005213 -0.019058
     4 y      -0.000082  0.218612  0.235785 -0.012037 -0.006079  0.022226
     4 z       0.008276 -0.015826 -0.021445 -0.005456 -0.002755  0.010074
     5 x       0.190390  0.112446 -0.129310 -0.181271  0.083671 -0.178127
     5 y      -0.380786 -0.011034  0.064154  0.108906  0.035215  0.265308
     5 z       0.172520 -0.329139  0.299970  0.309060 -0.381259 -0.011331
     6 x       0.005356 -0.068615 -0.076591  0.010496  0.006296 -0.017930
     6 y       0.004602 -0.185541 -0.197726 -0.012241 -0.007343  0.020912
     6 z      -0.000022  0.279562  0.291354 -0.005548 -0.003328  0.009478
     7 x      -0.397730 -0.056347  0.000530  0.040416 -0.110294 -0.254529
     7 y       0.186002 -0.169606 -0.185137 -0.241233 -0.147005  0.193532
     7 z      -0.134997 -0.298592 -0.276664 -0.283569 -0.346156  0.002496
     8 x       0.262148  0.005459 -0.023425  0.000000  0.018086 -0.018619
     8 y       0.246275 -0.002682 -0.022006  0.000000 -0.021093  0.021715
     8 z      -0.047442  0.016243  0.004239 -0.000000 -0.009560  0.009842
     9 x       0.013915 -0.283120 -0.274279  0.316949  0.295271 -0.110339
     9 y      -0.294094  0.094877  0.135369 -0.175557 -0.068732  0.232007
     9 z      -0.352598 -0.178717 -0.131397  0.094661  0.248375  0.190377
    10 x      -0.221255 -0.114327  0.145499 -0.176094  0.101306 -0.186741
    10 y       0.099309  0.253448 -0.256352  0.307883 -0.250952  0.160232
    10 z       0.390121 -0.209264  0.154703 -0.120153  0.283477  0.204204
    11 x       0.004756  0.237877 -0.252411 -0.010496  0.006296 -0.017931
    11 y       0.004897  0.102392 -0.111355  0.012241 -0.007342  0.020912
    11 z      -0.001808  0.224095 -0.231813  0.005548 -0.003328  0.009478
    12 x      -0.001455 -0.228349  0.247012 -0.010321  0.005212 -0.019057
    12 y       0.002735 -0.227576  0.243961  0.012038 -0.006079  0.022227
    12 z      -0.008787  0.070126 -0.070972  0.005456 -0.002755  0.010074


  Frequency     646.3850  728.9016  777.0878  796.9894  810.5862  812.9010
  IR Intensity    0.1498    0.0187    0.0002    0.0004    0.0014    0.0036
     in X         0.0148    0.0097    0.0001    0.0000    0.0001    0.0019
     in Y         0.0036    0.0086    0.0001    0.0000    0.0000    0.0017
     in Z         0.1314    0.0003    0.0000    0.0003    0.0012    0.0001
  Raman Intsty    0.0000    0.2074    0.4516    0.0000    0.0000    0.0268

     1 x      -0.008155  0.006739 -0.074180  0.057371  0.410064  0.408490
     1 y      -0.101938  0.188338 -0.187714  0.239428  0.259713  0.260334
     1 z       0.209481 -0.402786  0.273827 -0.419723  0.202728  0.198380
     2 x       0.201541  0.264915  0.451007  0.180674 -0.019710  0.082431
     2 y      -0.099006  0.248874  0.423698 -0.088755  0.009683  0.077439
     2 z       0.599705 -0.047942 -0.081620  0.537611 -0.058649 -0.014918
     3 x       0.139947  0.261172 -0.239171 -0.316729 -0.234595  0.235957
     3 y       0.037196  0.063350 -0.106663 -0.112020 -0.345911  0.345090
     3 z       0.182678  0.354301 -0.217119 -0.352021  0.319394 -0.315008
     4 x      -0.198849 -0.181858  0.144856  0.164479  0.222076 -0.220459
     4 y      -0.176486 -0.155886  0.125512  0.140625  0.202777 -0.201749
     4 z       0.013212 -0.000095 -0.002890  0.000889 -0.027278  0.028069
     5 x      -0.054738 -0.044997  0.039432 -0.087237 -0.002259 -0.005616
     5 y       0.145107 -0.016734 -0.064518  0.087987 -0.018818 -0.021084
     5 z      -0.178997  0.138045 -0.049309  0.056328 -0.019323 -0.015561
     6 x       0.048627  0.034499 -0.003593 -0.011457  0.077226 -0.076673
     6 y       0.130258  0.115103 -0.027618 -0.057342  0.197392 -0.194498
     6 z      -0.195401 -0.188691  0.054137  0.104841 -0.289416  0.284079
     7 x      -0.173754 -0.044493 -0.052230 -0.071813  0.014909 -0.017991
     7 y       0.033298 -0.067337  0.052495  0.102478 -0.002690 -0.001094
     7 z      -0.157459 -0.121849  0.051625  0.053537 -0.022430  0.019834
     8 x      -0.003586 -0.297749 -0.372296 -0.005493  0.000744 -0.060989
     8 y       0.001762 -0.279720 -0.349753  0.002699 -0.000366 -0.057296
     8 z      -0.010670  0.053885  0.067376 -0.016346  0.002215  0.011037
     9 x      -0.075745 -0.119088  0.054408  0.094596 -0.007748  0.002618
     9 y      -0.081008  0.019662 -0.071875 -0.091603  0.023734 -0.025129
     9 z      -0.209268 -0.082417 -0.004745 -0.034429 -0.010453  0.008940
    10 x       0.043271  0.029598 -0.067206  0.079172 -0.024915 -0.026225
    10 y       0.030801 -0.103733  0.059852 -0.106093  0.007606  0.002951
    10 z      -0.230806  0.098613  0.007062 -0.031637 -0.007347 -0.004667
    11 x      -0.166858  0.150098 -0.037482  0.076571 -0.251745 -0.247874
    11 y      -0.072179  0.058316 -0.010970  0.025356 -0.111660 -0.110397
    11 z      -0.156404  0.155284 -0.046703  0.088911 -0.229881 -0.225345
    12 x       0.184419 -0.160945  0.130077 -0.145056 -0.213895 -0.212964
    12 y       0.183575 -0.166159  0.132772 -0.150167 -0.206796 -0.205430
    12 z      -0.056149  0.062133 -0.046866  0.056906  0.051621  0.050369




--------------------------------------------------------------------------------
  Vibrational properties (for cluster):  Temperature  =       0.000 K
--------------------------------------------------------------------------------
  Zero point energy            =        0.707051 eV
--------------------------------------------------------------------------------

  Phonon density of states : 

--------------------------------------------------------------------------------
 Frequency (cm-1) Density of States                                             
--------------------------------------------------------------------------------
    0.00000 |******************************                                0.062
   12.70158 |                                                              0.000
   25.40316 |***************                                               0.031
   38.10474 |***************                                               0.031
   50.80632 |                                                              0.000
   63.50789 |***************                                               0.031
   76.20947 |                                                              0.000
   88.91105 |***************                                               0.031
  101.61263 |                                                              0.000
  114.31421 |                                                              0.000
  127.01579 |                                                              0.000
  139.71737 |                                                              0.000
  152.41895 |******************************                                0.062
  165.12052 |******************************                                0.062
  177.82210 |                                                              0.000
  190.52368 |                                                              0.000
  203.22526 |************************************************************  0.125
  215.92684 |                                                              0.000
  228.62842 |***************                                               0.031
  241.33000 |                                                              0.000
  254.03158 |***************                                               0.031
  266.73316 |***************                                               0.031
  279.43473 |                                                              0.000
  292.13631 |                                                              0.000
  304.83789 |                                                              0.000
  317.53947 |                                                              0.000
  330.24105 |                                                              0.000
  342.94263 |***************                                               0.031
  355.64421 |                                                              0.000
  368.34579 |                                                              0.000
  381.04736 |***************                                               0.031
  393.74894 |***************                                               0.031
  406.45052 |                                                              0.000
  419.15210 |                                                              0.000
  431.85368 |                                                              0.000
  444.55526 |                                                              0.000
  457.25684 |***************                                               0.031
  469.95842 |                                                              0.000
  482.66000 |                                                              0.000
  495.36157 |                                                              0.000
  508.06315 |******************************                                0.062
  520.76473 |                                                              0.000
  533.46631 |***************                                               0.031
  546.16789 |***************                                               0.031
  558.86947 |                                                              0.000
  571.57105 |                                                              0.000
  584.27263 |                                                              0.000
  596.97421 |***************                                               0.031
  609.67578 |                                                              0.000
  622.37736 |                                                              0.000
  635.07894 |***************                                               0.031
  647.78052 |                                                              0.000
  660.48210 |                                                              0.000
  673.18368 |                                                              0.000
  685.88526 |                                                              0.000
  698.58684 |                                                              0.000
  711.28841 |                                                              0.000
  723.98999 |***************                                               0.031
  736.69157 |                                                              0.000
  749.39315 |                                                              0.000
  762.09473 |                                                              0.000
  774.79631 |***************                                               0.031
  787.49789 |***************                                               0.031
  800.19947 |******************************                                0.062
--------------------------------------------------------------------------------



  Time to end of optimisation =       0.0306 seconds


  Peak dynamic memory used =       0.66 MB 


  Timing analysis for GULP :

--------------------------------------------------------------------------------
  Task / Subroutine                                          Time (Seconds)
--------------------------------------------------------------------------------
  Calculation of real space energy and derivatives                0.0112
  Calculation of phonons                                          0.0016
  Calculation and manipulation of Hessian matrix                  0.0079
  Calculation of matrix inversion                                 0.0001
--------------------------------------------------------------------------------
  Total CPU time                                                  0.0306
--------------------------------------------------------------------------------


  Job Finished at 11:44.59  5th May        2022                               

