------------------------------------------------------------
          Invoking FHI-aims ...

          When using FHI-aims, please cite the following reference:

            Volker Blum, Ralf Gehrke, Felix Hanke, Paula Havu,
            Ville Havu, Xinguo Ren, Karsten Reuter, and Matthias Scheffler,
            'Ab Initio Molecular Simulations with Numeric Atom-Centered Orbitals',
            Computer Physics Communications 180, 2175-2196 (2009)

          In addition, many other developments in FHI-aims are likely important for
          your particular application. A partial list of references is given at the end of
          this file. Thank you for giving credit to the authors of these developments.

          For any questions about FHI-aims, please visit our slack channel at

            https://fhi-aims.slack.com

          and our main development and support site at

            https://aims-git.rz-berlin.mpg.de .

          The latter site, in particular, has a wiki to collect information, as well
          as an issue tracker to log discussions, suggest improvements, and report issues
          or bugs. https://aims-git.rz-berlin.mpg.de is also the main development site
          of the project and all new and updated code versions can be obtained there.
          Please send an email to aims-coordinators@fhi-berlin.mpg.de and we will add
          you to these sites. They are for you and everyone is welcome there.

------------------------------------------------------------



  Date     :  20220517, Time     :  114603.034
  Time zero on CPU 1             :   0.411570000000000E-01  s.
  Internal wall clock time zero  :           422019963.034  s.

  FHI-aims created a unique identifier for this run for later identification
  aims_uuid : DE8896D9-034D-4850-AEDB-081BDDC904C3

  Build configuration of the current instance of FHI-aims
  -------------------------------------------------------
  FHI-aims version      : 210914
  Commit number         : GITDIR-NOTFOUND
  CMake host system     : Linux-3.10.0-693.17.1.el7.x86_64
  CMake version         : 3.21.1
  Fortran compiler      : /shared/ucl/apps/intel/2018.Update3/impi/2018.3.222/intel64/bin/mpiifort (Intel) version 18.0.3.20180410
  Fortran compiler flags: -O3 -ip -fp-model precise
  C compiler            : /shared/ucl/apps/intel/2018.Update3/compilers_and_libraries_2018.3.222/linux/bin/intel64/icc (Intel) version 18.0.3.20180410
  C compiler flags      : -O3 -ip -fp-model precise -std=gnu99
  ELPA2 kernel          : AVX2
  Using MPI
  Using ScaLAPACK
  Using LibXC
  Using i-PI
  Using RLSY
  Linking against: /shared/ucl/apps/intel/2019.Update5/compilers_and_libraries_2019.5.281/linux/mkl/lib/intel64/libmkl_intel_lp64.so
                   /shared/ucl/apps/intel/2019.Update5/compilers_and_libraries_2019.5.281/linux/mkl/lib/intel64/libmkl_sequential.so
                   /shared/ucl/apps/intel/2019.Update5/compilers_and_libraries_2019.5.281/linux/mkl/lib/intel64/libmkl_core.so
                   /shared/ucl/apps/intel/2019.Update5/compilers_and_libraries_2019.5.281/linux/mkl/lib/intel64/libmkl_blacs_intelmpi_lp64.so
                   /shared/ucl/apps/intel/2019.Update5/compilers_and_libraries_2019.5.281/linux/mkl/lib/intel64/libmkl_scalapack_lp64.so

  Using       24 parallel tasks.
  Task        0 on host node-k98i-010 reporting.
  Task        1 on host node-k98i-010 reporting.
  Task        2 on host node-k98i-010 reporting.
  Task        3 on host node-k98i-010 reporting.
  Task        4 on host node-k98i-010 reporting.
  Task        5 on host node-k98i-010 reporting.
  Task        6 on host node-k98i-010 reporting.
  Task        7 on host node-k98i-010 reporting.
  Task        8 on host node-k98i-010 reporting.
  Task        9 on host node-k98i-010 reporting.
  Task       10 on host node-k98i-010 reporting.
  Task       11 on host node-k98i-010 reporting.
  Task       12 on host node-k98i-010 reporting.
  Task       13 on host node-k98i-010 reporting.
  Task       14 on host node-k98i-010 reporting.
  Task       15 on host node-k98i-010 reporting.
  Task       16 on host node-k98i-010 reporting.
  Task       17 on host node-k98i-010 reporting.
  Task       18 on host node-k98i-010 reporting.
  Task       19 on host node-k98i-010 reporting.
  Task       20 on host node-k98i-010 reporting.
  Task       21 on host node-k98i-010 reporting.
  Task       22 on host node-k98i-010 reporting.
  Task       23 on host node-k98i-010 reporting.

  Performing system and environment tests:
  | Environment variable OMP_NUM_THREADS correctly set to 1.
  | Checking for ScaLAPACK...
  | Testing pdtran()...
  | All pdtran() tests passed.

  Obtaining array dimensions for all initial allocations:
  
  -----------------------------------------------------------------------
  Parsing control.in (first pass over file, find array dimensions only).
  The contents of control.in will be repeated verbatim below
  unless switched off by setting 'verbatim_writeout .false.' .
  in the first line of control.in .
  -----------------------------------------------------------------------
  
  #########################################################################################  Physical model
  #########################################################################################
  xc                 pbesol
  spin               none
  relativistic       atomic_zora scalar
  charge             0.0
  #  SCF convergence
  occupation_type    gaussian 0.01
  mixer              pulay
  n_max_pulay        10
  charge_mix_param   0.5
  sc_accuracy_rho    1E-5
  sc_accuracy_eev    1E-3
  sc_accuracy_etot   1E-6
  sc_accuracy_forces 1E-4
  sc_iter_limit      1500
  #  Relaxation
  #relax_geometry   bfgs 1.e-3
  
  ################################################################################
  #
  #  FHI-aims code project
  #  VB, Fritz-Haber Institut, 2009
  #
  #  Suggested "light" defaults for Al atom (to be pasted into control.in file)
  #  Be sure to double-check any results obtained with these settings for post-processing,
  #  e.g., with the "tight" defaults and larger basis sets.
  #
  ################################################################################
    species        Al
  #     global species definitions
      nucleus             13
      mass                26.9815386
  #
      l_hartree           4
  #
      cut_pot             3.5          1.5  1.0
      basis_dep_cutoff    1e-4
  #
      radial_base         41 5.0
      radial_multiplier   1
      angular_grids       specified
        division   0.6594  110
        division   0.8170  194
        division   0.9059  302
  #      division   1.0363  434
  #      division   1.1443  590
  #      division   1.2621  770
  #      division   2.8177  974
  #      outer_grid   974
        outer_grid   302
  ################################################################################
  #
  #  Definition of "minimal" basis
  #
  ################################################################################
  #     valence basis states
      valence      3  s   2.
      valence      3  p   1.
  #     ion occupancy
      ion_occ      3  s   1.
      ion_occ      2  p   6.
  ################################################################################
  #
  #  Suggested additional basis functions. For production calculations,
  #  uncomment them one after another (the most important basis functions are
  #  listed first).
  #
  #  Constructed for dimers: 2.0 A, 2.5 A, 3.0 A, 3.75 A, 4.5 A
  #
  ################################################################################
  #  "First tier" - improvements: -199.47 meV to -10.63 meV
       ionic 3 d auto
       ionic 3 p auto
  #     hydro 4 f 4.7
       ionic 3 s auto
  #  "Second tier" - improvements: -5.35 meV to -1.57 meV
  #     hydro 5 g 7
  #     hydro 3 d 6
  #     hydro 2 s 11.6
  #     hydro 2 p 0.9
  #  "Third tier" - improvements: -0.63 meV to -0.20 meV
  #     hydro 5 f 7.6
  #     hydro 4 p 7.2
  #     hydro 4 s 3.7
  #     hydro 4 d 7.6
  #  "Fourth tier" - improvements: -0.17 meV to -0.08 meV
  #     hydro 4 d 13.6
  #     hydro 5 g 11.2
  #     hydro 4 d 0.9
  #     hydro 1 s 0.4
  #     hydro 4 p 0.1
  #     hydro 5 f 9.8
  #  Further basis functions that fell out of the optimization - noise level...
  #     hydro 4 p 5
  
  ################################################################################
  #
  #  FHI-aims code project
  #  VB, Fritz-Haber Institut, 2009
  #
  #  Suggested "light" defaults for F atom (to be pasted into control.in file)
  #  Be sure to double-check any results obtained with these settings for post-processing,
  #  e.g., with the "tight" defaults and larger basis sets.
  #
  ################################################################################
    species        F
  #     global species definitions
      nucleus             9
      mass                18.9984032
  #
      l_hartree           4
  #
      cut_pot             3.5  1.5  1.0
      basis_dep_cutoff    1e-4
  #
      radial_base         37 5.0
      radial_multiplier   1
      angular_grids specified
        division   0.4014  110
        division   0.5291  194
        division   0.6019  302
  #      division   0.6814  434
  #      division   0.7989  590
  #      division   0.8965  770
  #      division   1.3427  974
  #      outer_grid   974
        outer_grid   302
  ################################################################################
  #
  #  Definition of "minimal" basis
  #
  ################################################################################
  #     valence basis states
      valence      2  s   2.
      valence      2  p   5.
  #     ion occupancy
      ion_occ      2  s   1.
      ion_occ      2  p   4.
  ################################################################################
  #
  #  Suggested additional basis functions. For production calculations,
  #  uncomment them one after another (the most important basis functions are
  #  listed first).
  #
  #  Constructed for dimers: 1.2 A, 1.418 A, 1.75 A, 2.25 A, 3.25 A
  #
  ################################################################################
  #  "First tier" - improvements: -149.44 meV to -45.88 meV
       hydro 2 p 1.7
       hydro 3 d 7.4
       hydro 3 s 6.8
  #  "Second tier" - improvements: -12.96 meV to -1.56 meV
  #     hydro 4 f 11.2
  #     ionic 2 p auto
  #     hydro 1 s 0.75
  #     hydro 4 d 8.8
  #     hydro 5 g 16.8
  #  "Third tier" - improvements: -0.58 meV to -0.05 meV
  #     hydro 3 p 6.2
  #     hydro 3 s 3.2
  #     hydro 4 f 9.6
  #     hydro 3 s 19.6
  #     hydro 4 d 8.6
  #     hydro 5 g 14.4
  # Further basis functions: -0.05 meV and below
  #     hydro 3 p 4.2
  
  -----------------------------------------------------------------------
  Completed first pass over input file control.in .
  -----------------------------------------------------------------------
  
  
  -----------------------------------------------------------------------
  Parsing geometry.in (first pass over file, find array dimensions only).
  The contents of geometry.in will be repeated verbatim below
  unless switched off by setting 'verbatim_writeout .false.' .
  in the first line of geometry.in .
  -----------------------------------------------------------------------
  
  atom 0.183356795 -0.755949478 1.790753717 Al
  atom 2.415148963 -1.632467054 -0.429355090 Al
  atom -0.792580182 -1.831916940 -1.132725736 Al
  atom 3.499193111 -0.265532393 -0.879320803 F
  atom -1.762610451 -0.550565489 -1.970241821 F
  atom 2.880194987 -3.413389677 -0.519282992 F
  atom -1.046383573 -3.626092785 -1.333374669 F
  atom 1.830067996 -1.429729732 1.286238200 F
  atom 0.928770164 -1.386276882 -1.483128865 F
  atom -0.101471449 -1.436856641 3.430722681 F
  atom 0.209895979 1.045026766 1.367147072 F
  atom -1.001371869 -1.583109321 0.699199612 F
  
  -----------------------------------------------------------------------
  Completed first pass over input file geometry.in .
  -----------------------------------------------------------------------
  

  Basic array size parameters:
  | Number of species                 :        2
  | Number of atoms                   :       12
  | Max. basis fn. angular momentum   :        2
  | Max. atomic/ionic basis occupied n:        3
  | Max. number of basis fn. types    :        3
  | Max. radial fns per species/type  :        5
  | Max. logarithmic grid size        :     1340
  | Max. radial integration grid size :       41
  | Max. angular integration grid size:      302
  | Max. angular grid division number :        8
  | Radial grid for Hartree potential :     1340
  | Number of spin channels           :        1

------------------------------------------------------------
          Reading file control.in.
------------------------------------------------------------
  XC: Using PBEsol gradient-corrected functionals.
  Spin treatment: No spin polarisation.
  Scalar relativistic treatment of kinetic energy: on-site free-atom approximation to ZORA.
  Charge =   0.000000E+00: Neutral system requested explicitly.
  Occupation type: Gaussian broadening, width =   0.100000E-01 eV.
  Using pulay charge density mixing.
  Pulay mixing - number of memorized iterations:   10
  Charge density mixing - mixing parameter:     0.5000
  Convergence accuracy of self-consistent charge density:  0.1000E-04
  Convergence accuracy of sum of eigenvalues:  0.1000E-02
  Convergence accuracy of total energy:  0.1000E-05
  Convergence accuracy of forces:  0.1000E-03
  Maximum number of s.-c. iterations  :  1500
 
  Reading configuration options for species Al                  .
  | Found nuclear charge :  13.0000
  | Found atomic mass :    26.9815386000000      amu
  | Found l_max for Hartree potential  :   4
  | Found cutoff potl. onset [A], width [A], scale factor :    3.50000    1.50000    1.00000
  | Threshold for basis-dependent cutoff potential is   0.100000E-03
  | Found data for basic radial integration grid :    41 points, outermost radius =    5.000 A
  | Found multiplier for basic radial grid :   1
  | Found angular grid specification: user-specified.
  | Specified grid contains     4 separate shells.
  | Check grid settings after all constraints further below.
  | Found free-atom valence shell :  3 s   2.000
  | Found free-atom valence shell :  3 p   1.000
  | Found free-ion valence shell :  3 s   1.000
  | Found free-ion valence shell :  2 p   6.000
  | Found ionic basis function :  3 d , default cutoff radius.
  | Found ionic basis function :  3 p , default cutoff radius.
  | Found ionic basis function :  3 s , default cutoff radius.
  Species Al                  : Missing cutoff potential type.
  Defaulting to exp(1/x)/(1-x)^2 type cutoff potential.
  Species Al: No 'logarithmic' tag. Using default grid for free atom:
  | Default logarithmic grid data [bohr] : 0.1000E-03 0.1000E+03 0.1012E+01
  | Will include ionic basis functions of  2.0-fold positive Al                   ion.
  Species Al: On-site basis accuracy parameter (for Gram-Schmidt orthonormalisation) not specified.
  Using default value basis_acc =  0.1000000E-03.
  Species Al                  : Using default innermost maximum threshold i_radial=  2 for radial functions.
  Species Al                  : Default cutoff onset for free atom density etc. : 0.35000000E+01 AA.
  Species Al                  : Basic radial grid will be enhanced according to radial_multiplier =   1, to contain    41 grid points.
 
  Reading configuration options for species F                   .
  | Found nuclear charge :   9.0000
  | Found atomic mass :    18.9984032000000      amu
  | Found l_max for Hartree potential  :   4
  | Found cutoff potl. onset [A], width [A], scale factor :    3.50000    1.50000    1.00000
  | Threshold for basis-dependent cutoff potential is   0.100000E-03
  | Found data for basic radial integration grid :    37 points, outermost radius =    5.000 A
  | Found multiplier for basic radial grid :   1
  | Found angular grid specification: user-specified.
  | Specified grid contains     4 separate shells.
  | Check grid settings after all constraints further below.
  | Found free-atom valence shell :  2 s   2.000
  | Found free-atom valence shell :  2 p   5.000
  | Found free-ion valence shell :  2 s   1.000
  | Found free-ion valence shell :  2 p   4.000
  | Found hydrogenic basis function :  2 p   1.700
  | Found hydrogenic basis function :  3 d   7.400
  | Found hydrogenic basis function :  3 s   6.800
  Species F                   : Missing cutoff potential type.
  Defaulting to exp(1/x)/(1-x)^2 type cutoff potential.
  Species F : No 'logarithmic' tag. Using default grid for free atom:
  | Default logarithmic grid data [bohr] : 0.1000E-03 0.1000E+03 0.1012E+01
  Species F : On-site basis accuracy parameter (for Gram-Schmidt orthonormalisation) not specified.
  Using default value basis_acc =  0.1000000E-03.
  Species F                   : Using default innermost maximum threshold i_radial=  2 for radial functions.
  Species F                   : Default cutoff onset for free atom density etc. : 0.35000000E+01 AA.
  Species F                   : Basic radial grid will be enhanced according to radial_multiplier =   1, to contain    37 grid points.
 
  Finished reading input file 'control.in'.
 
------------------------------------------------------------


------------------------------------------------------------
          Reading geometry description geometry.in.
------------------------------------------------------------
  | The smallest distance between any two atoms is         1.79840482 AA.
  | The first atom of this pair is atom number                      1 .
  | The second atom of this pair is atom number                    10 .
  Input structure read successfully.
  The structure contains       12 atoms,  and a total of        120.000 electrons.

  Input geometry:
  | No unit cell requested.
  | Atomic structure:
  |       Atom                x [A]            y [A]            z [A]
  |    1: Species Al            0.18335680       -0.75594948        1.79075372
  |    2: Species Al            2.41514896       -1.63246705       -0.42935509
  |    3: Species Al           -0.79258018       -1.83191694       -1.13272574
  |    4: Species F             3.49919311       -0.26553239       -0.87932080
  |    5: Species F            -1.76261045       -0.55056549       -1.97024182
  |    6: Species F             2.88019499       -3.41338968       -0.51928299
  |    7: Species F            -1.04638357       -3.62609278       -1.33337467
  |    8: Species F             1.83006800       -1.42972973        1.28623820
  |    9: Species F             0.92877016       -1.38627688       -1.48312887
  |   10: Species F            -0.10147145       -1.43685664        3.43072268
  |   11: Species F             0.20989598        1.04502677        1.36714707
  |   12: Species F            -1.00137187       -1.58310932        0.69919961

 
  Finished reading input file 'control.in'.
 

------------------------------------------------------------
          Reading geometry description geometry.in.
------------------------------------------------------------
 
  Consistency checks for stacksize environment parameter are next.
 
  | Maximum stacksize for task 0: unlimited
  | Maximum stacksize for task 1: unlimited
  | Maximum stacksize for task 2: unlimited
  | Maximum stacksize for task 3: unlimited
  | Maximum stacksize for task 4: unlimited
  | Maximum stacksize for task 5: unlimited
  | Maximum stacksize for task 6: unlimited
  | Maximum stacksize for task 7: unlimited
  | Maximum stacksize for task 8: unlimited
  | Maximum stacksize for task 9: unlimited
  | Maximum stacksize for task 10: unlimited
  | Maximum stacksize for task 11: unlimited
  | Maximum stacksize for task 12: unlimited
  | Maximum stacksize for task 13: unlimited
  | Maximum stacksize for task 14: unlimited
  | Maximum stacksize for task 15: unlimited
  | Maximum stacksize for task 16: unlimited
  | Maximum stacksize for task 17: unlimited
  | Maximum stacksize for task 18: unlimited
  | Maximum stacksize for task 19: unlimited
  | Maximum stacksize for task 20: unlimited
  | Maximum stacksize for task 21: unlimited
  | Maximum stacksize for task 22: unlimited
  | Maximum stacksize for task 23: unlimited
  | Current stacksize for task 0: unlimited
  | Current stacksize for task 1: unlimited
  | Current stacksize for task 2: unlimited
  | Current stacksize for task 3: unlimited
  | Current stacksize for task 4: unlimited
  | Current stacksize for task 5: unlimited
  | Current stacksize for task 6: unlimited
  | Current stacksize for task 7: unlimited
  | Current stacksize for task 8: unlimited
  | Current stacksize for task 9: unlimited
  | Current stacksize for task 10: unlimited
  | Current stacksize for task 11: unlimited
  | Current stacksize for task 12: unlimited
  | Current stacksize for task 13: unlimited
  | Current stacksize for task 14: unlimited
  | Current stacksize for task 15: unlimited
  | Current stacksize for task 16: unlimited
  | Current stacksize for task 17: unlimited
  | Current stacksize for task 18: unlimited
  | Current stacksize for task 19: unlimited
  | Current stacksize for task 20: unlimited
  | Current stacksize for task 21: unlimited
  | Current stacksize for task 22: unlimited
  | Current stacksize for task 23: unlimited
 
  Consistency checks for the contents of control.in are next.
 
  MPI_IN_PLACE appears to work with this MPI implementation.
  | Keeping use_mpi_in_place .true. (see manual).
  Target number of points in a grid batch is not set. Defaulting to  100
  Method for grid partitioning is not set. Defaulting to parallel hash+maxmin partitioning.
  Batch size limit is not set. Defaulting to    200
  By default, will store active basis functions for each batch.
  If in need of memory, prune_basis_once .false. can be used to disable this option.
  communication_type for Hartree potential was not specified.
  Defaulting to calc_hartree .
  Pulay mixer: Number of initial linear mixing iterations not set.
  Defaulting to    0 iterations.
  Work space size for distributed Hartree potential not set.
  Defaulting to   0.200000E+03 MB.
  Algorithm-dependent basis array size parameters:
  | n_max_pulay                         :       10
  Presetting      1001 iterations before the initial mixing cycle
  is restarted anyway using the sc_init_iter criterion / keyword.
  Presetting a factor      1.000 between actual scf density residual
  and density convergence criterion sc_accuracy_rho below which sc_init_iter
  takes no effect.
  Geometry relaxation not requested: no relaxation will be performed.
  Forces evaluation will include force correction term due to incomplete self-consistency (default).
  Handling of forces: Unphysical translation and rotation will be removed from forces.
  No accuracy limit for integral partition fn. given. Defaulting to  0.1000E-14.
  No threshold value for u(r) in integrations given. Defaulting to  0.1000E-05.
  No accuracy for occupation numbers given. Defaulting to  0.1000E-12.
  No threshold value for occupation numbers given. Defaulting to  0.0000E+00.
  No accuracy for fermi level given. Defaulting to  0.1000E-19.
  Maximum # of iterations to find E_F not set. Defaulting to  200.
  Preferred method for the eigenvalue solver ('KS_method') not specified in 'control.in'.
  Calling BLACS routine to test compilation state
  Since ScaLAPACK support is enabled, defaulting to ELPA (via ELSI).
  Will not use alltoall communication since running on < 1024 CPUs.
  Threshold for basis singularities not set.
  Default threshold for basis singularities:  0.1000E-04
  partition_type (choice of integration weights) for integrals was not specified.
  | Using a version of the partition function of Stratmann and coworkers ('stratmann_sparse').
  | At each grid point, the set of atoms used to build the partition table is smoothly restricted to
  | only those atoms whose free-atom density would be non-zero at that grid point.
  Partitioning for Hartree potential was not defined. Using partition_type for integrals.
  | Adjusted default value of keyword multip_moments_threshold to:       0.10000000E-11
  | This value may affect high angular momentum components of the Hartree potential in periodic systems.
  No q(lm)/r^(l+1) cutoff set for long-range Hartree potential.
  | Using default value of  0.100000E-09 .
  | Verify using the multipole_threshold keyword.
  Defaulting to new monopole extrapolation.
  Density update method: automatic selection selected.
  Charge integration errors on the 3D integration grid will be compensated
  by explicit normalization and distribution of residual charges.
  Use the "compensate_multipole_errors" flag to change this behaviour.
  Set 'collect_eigenvectors' to be '.true.' for use_density_matrix .false.
 
  Consistency checks for the contents of geometry.in are next.
 
  Number of empty states per atom not set in control.in - providing a guess from actual geometry.
  | Total number of empty states used during s.c.f. cycle:       36
  If you use a very high smearing, use empty_states (per atom!) in control.in to increase this value.

  Structure-dependent array size parameters: 
  | Maximum number of distinct radial functions  :       14
  | Maximum number of basis functions            :      180
  | Number of Kohn-Sham states (occupied + empty):       96
------------------------------------------------------------

------------------------------------------------------------
          Preparing all fixed parts of the calculation.
------------------------------------------------------------
  Determining machine precision:
    2.225073858507201E-308
  Setting up grids for atomic and cluster calculations.

  Creating wave function, potential, and density for free atoms.

  Species: Al

  List of occupied orbitals and eigenvalues:
    n    l              occ      energy [Ha]    energy [eV]
    1    0           2.0000       -55.621123     -1513.5278
    2    0           2.0000        -3.957030      -107.6763
    3    0           2.0000        -0.272233        -7.4078
    2    1           6.0000        -2.540949       -69.1427
    3    1           1.0000        -0.083300        -2.2667


  Species: F

  List of occupied orbitals and eigenvalues:
    n    l              occ      energy [Ha]    energy [eV]
    1    0           2.0000       -24.399611      -663.9472
    2    0           2.0000        -1.098702       -29.8972
    2    1           5.0000        -0.408210       -11.1080


  Adding cutoff potential to free-atom effective potential.
  Creating fixed part of basis set: Ionic, confined, hydrogenic.
 
  Al                   ion:

  List of free ionic orbitals and eigenvalues:
    n    l      energy [Ha]    energy [eV]
    1    0       -56.418846     -1535.2349
    2    0        -4.732717      -128.7838
    3    0        -0.872690       -23.7471
    2    1        -3.317230       -90.2664


  List of ionic basis orbitals and eigenvalues:
    n    l      energy [Ha]    energy [eV]    outer radius [A]
    3    2        -0.346815        -9.4373       4.594041
    3    1        -0.631870       -17.1940       4.538221
    3    0        -0.872657       -23.7462       4.538221

 
  F                    hydrogenic:
 
  List of hydrogenic basis orbitals: 
    n    l      effective z      eigenvalue [eV]  inner max. [A]     outer max. [A]     outer radius [A]   
    2    1         1.700000        -9.7616           1.243167           1.243167           4.598524
    3    2         7.400000       -82.7828           0.642437           0.642437           3.305741
    3    0         6.800000       -69.9026           0.057798           1.022307           3.781556
 
  Creating atomic-like basis functions for current effective potential.

  Species Al                  :

  List of atomic basis orbitals and eigenvalues:
    n    l      energy [Ha]    energy [eV]    outer radius [A]
    1    0       -55.621123     -1513.5278       0.850197
    2    0        -3.957030      -107.6763       3.144911
    3    0        -0.272233        -7.4078       4.594041
    2    1        -2.540949       -69.1427       3.731966
    3    1        -0.083300        -2.2667       4.594041


  Species F                   :

  List of atomic basis orbitals and eigenvalues:
    n    l      energy [Ha]    energy [eV]    outer radius [A]
    1    0       -24.399611      -663.9472       1.258458
    2    0        -1.098702       -29.8972       4.325857
    2    1        -0.408210       -11.1080       4.487453

  Assembling full basis from fixed parts.
  | Species Al :   atomic orbital   1 s accepted.
  | Species Al :   atomic orbital   2 s accepted.
  | Species Al :    ionic orbital   3 s accepted.
  | Species Al :   atomic orbital   3 s accepted.
  | Species Al :   atomic orbital   2 p accepted.
  | Species Al :    ionic orbital   3 p accepted.
  | Species Al :   atomic orbital   3 p accepted.
  | Species Al :    ionic orbital   3 d accepted.
  | Species F :   atomic orbital   1 s accepted.
  | Species F :    hydro orbital   3 s accepted.
  | Species F :   atomic orbital   2 s accepted.
  | Species F :   atomic orbital   2 p accepted.
  | Species F :    hydro orbital   2 p accepted.
  | Species F :    hydro orbital   3 d accepted.
 
  Basis size parameters after reduction:
  | Total number of radial functions:       14
  | Total number of basis functions :      180
 
  Per-task memory consumption for arrays in subroutine allocate_ext:
  |           4.807768MB.
  Testing on-site integration grid accuracy.
  |  Species  Function  <phi|h_atom|phi> (log., in eV)  <phi|h_atom|phi> (rad., in eV)
           1        1              -1513.5277717935              -1513.5271881332
           1        2               -107.6762691836               -107.6762662489
           1        3                 -6.9467474784                 -6.9471269649
           1        4                  5.5771951849                  5.4862107220 ***
           1        5                -69.1427313144                -69.1427312731
           1        6                 -1.5197375330                 -1.5230432022
           1        7                  6.8210948310                  6.5529872240 ***
           1        8                  4.3216540965                  4.2851170187 ***
           2        9               -663.9471986398               -663.9470363334
           2       10                 16.8514011578                 16.8512525338
           2       11                -28.4490593856                -28.4490661472
           2       12                -11.1080115307                -11.1080620173
           2       13                  7.1940182175                  7.1685154137
           2       14                 44.8544281765                 44.8543763625
 * Note: Onsite integrals marked "***" above are less accurate than
 * onsite_accuracy_threshold =    0.03000 eV. Usually, this is harmless.
 * When in doubt, tighten the "radial" and/or "radial_multiplier" flags to check.

  Preparing densities etc. for the partition functions (integrals / Hartree potential).

  Preparations completed.
  max(cpu_time)          :      0.184 s.
  Wall clock time (cpu1) :      0.184 s.
------------------------------------------------------------

------------------------------------------------------------
          Begin self-consistency loop: Initialization.

          Date     :  20220517, Time     :  114603.262
------------------------------------------------------------

  Initializing index lists of integration centers etc. from given atomic structure:
  | Number of centers in hartree potential         :        12
  | Number of centers in hartree multipole         :        12
  | Number of centers in electron density summation:        12
  | Number of centers in basis integrals           :        12
  | Number of centers in integrals                 :        12
  | Number of centers in hamiltonian               :        12
  * Using 24 tasks for Scalapack Eigenvalue solver.
  Detailed listing of tasks and assigned k-points:
  (for non-periodic systems, the "k-point" denotes an internal label only)
   Task     0 k-point     1 on node-k98i-010
   Task     1 k-point     1 on node-k98i-010
   Task     2 k-point     1 on node-k98i-010
   Task     3 k-point     1 on node-k98i-010
   Task     4 k-point     1 on node-k98i-010
   Task     5 k-point     1 on node-k98i-010
   Task     6 k-point     1 on node-k98i-010
   Task     7 k-point     1 on node-k98i-010
   Task     8 k-point     1 on node-k98i-010
   Task     9 k-point     1 on node-k98i-010
   Task    10 k-point     1 on node-k98i-010
   Task    11 k-point     1 on node-k98i-010
   Task    12 k-point     1 on node-k98i-010
   Task    13 k-point     1 on node-k98i-010
   Task    14 k-point     1 on node-k98i-010
   Task    15 k-point     1 on node-k98i-010
   Task    16 k-point     1 on node-k98i-010
   Task    17 k-point     1 on node-k98i-010
   Task    18 k-point     1 on node-k98i-010
   Task    19 k-point     1 on node-k98i-010
   Task    20 k-point     1 on node-k98i-010
   Task    21 k-point     1 on node-k98i-010
   Task    22 k-point     1 on node-k98i-010
   Task    23 k-point     1 on node-k98i-010
  Tasks:    24 split into      6 X      4 BLACS grid
  Calculating block size based on n_basis =          180  max_nprow =            6  max_npcol =            4
  ScaLAPACK block size set to:           16
  Allocating        0.012 MB for ovlp
  Allocating        0.012 MB for ham
  Allocating        0.012 MB for eigenvec
  Required Scalapack workspace - INTEGER:            1  REAL:             1
  Partitioning the integration grid into batches with parallel hashing+maxmin method.
  | Number of batches:     1036
  | Maximal batch size:     200
  | Minimal batch size:      17
  | Average batch size:      88.726
  | Standard deviation of batch sizes:      23.031

  Integration load balanced across    24 MPI tasks.
  Work distribution over tasks is as follows:
  Task     0 has       3822 integration points.
  Task     1 has       3793 integration points.
  Task     2 has       3871 integration points.
  Task     3 has       3839 integration points.
  Task     4 has       3788 integration points.
  Task     5 has       3845 integration points.
  Task     6 has       3845 integration points.
  Task     7 has       3780 integration points.
  Task     8 has       3844 integration points.
  Task     9 has       3798 integration points.
  Task    10 has       3780 integration points.
  Task    11 has       3896 integration points.
  Task    12 has       3794 integration points.
  Task    13 has       3818 integration points.
  Task    14 has       3841 integration points.
  Task    15 has       3795 integration points.
  Task    16 has       3827 integration points.
  Task    17 has       3847 integration points.
  Task    18 has       3848 integration points.
  Task    19 has       3847 integration points.
  Task    20 has       3876 integration points.
  Task    21 has       3790 integration points.
  Task    22 has       3852 integration points.
  Task    23 has       3884 integration points.
  Initializing partition tables, free-atom densities, potentials, etc. across the integration grid (initialize_grid_storage).
  | initialize_grid_storage: Actual outermost partition radius vs. multipole_radius_free
  | (-- VB: in principle, multipole_radius_free should be larger, hence this output)
  | Species        1: Confinement radius =              4.999999999999999 AA, multipole_radius_free =              5.004487022111096 AA.
  | Species        1: outer_partition_radius set to              5.004487022111096 AA .
  | Species        2: Confinement radius =              4.999999999999999 AA, multipole_radius_free =              5.009370088163274 AA.
  | Species        2: outer_partition_radius set to              5.009370088163274 AA .
  | The sparse table of interatomic distances needs          1.64 kbyte instead of         1.15 kbyte of memory.
  | Using the partition_type stratmann_smoother will reduce your memory usage.
  | Net number of integration points:    91920
  | of which are non-zero points    :    85814
  Renormalizing the initial density to the exact electron count on the 3D integration grid.
  | Initial density: Formal number of electrons (from input files) :     120.0000000000
  | Integrated number of electrons on 3D grid     :     120.0000479257
  | Charge integration error                      :       0.0000479257
  | Normalization factor for density and gradient :       0.9999996006
  Renormalizing the free-atom superposition density to the exact electron count on the 3D integration grid.
  | Formal number of electrons (from input files) :     120.0000000000
  | Integrated number of electrons on 3D grid     :     120.0000479257
  | Charge integration error                      :       0.0000479257
  | Normalization factor for density and gradient :       0.9999996006
  Obtaining max. number of non-zero basis functions in each batch (get_n_compute_maxes).
  | Maximal number of non-zero basis functions:      169 in task     0
  | Maximal number of non-zero basis functions:      169 in task     1
  | Maximal number of non-zero basis functions:      171 in task     2
  | Maximal number of non-zero basis functions:      165 in task     3
  | Maximal number of non-zero basis functions:      161 in task     4
  | Maximal number of non-zero basis functions:      166 in task     5
  | Maximal number of non-zero basis functions:      171 in task     6
  | Maximal number of non-zero basis functions:      166 in task     7
  | Maximal number of non-zero basis functions:      163 in task     8
  | Maximal number of non-zero basis functions:      171 in task     9
  | Maximal number of non-zero basis functions:      164 in task    10
  | Maximal number of non-zero basis functions:      171 in task    11
  | Maximal number of non-zero basis functions:      164 in task    12
  | Maximal number of non-zero basis functions:      167 in task    13
  | Maximal number of non-zero basis functions:      164 in task    14
  | Maximal number of non-zero basis functions:      166 in task    15
  | Maximal number of non-zero basis functions:      157 in task    16
  | Maximal number of non-zero basis functions:      166 in task    17
  | Maximal number of non-zero basis functions:      166 in task    18
  | Maximal number of non-zero basis functions:      165 in task    19
  | Maximal number of non-zero basis functions:      170 in task    20
  | Maximal number of non-zero basis functions:      163 in task    21
  | Maximal number of non-zero basis functions:      171 in task    22
  | Maximal number of non-zero basis functions:      171 in task    23
  Selecting the method for density update.
  Loop over occupied states selected for charge density update.
  Allocating        0.132 MB for KS_eigenvector
  Integrating Hamiltonian matrix: batch-based integration.
  Time summed over all CPUs for integration: real work        0.720 s, elapsed        0.783 s
  Integrating overlap matrix.
  Time summed over all CPUs for integration: real work        0.277 s, elapsed        0.293 s
  Deallocating overlap matrix.

  Updating Kohn-Sham eigenvalues and eigenvectors using ELSI and the ELPA eigensolver.
  Overlap matrix is not singular
  | Lowest and highest eigenvalues :  0.4109E-02,  0.5130E+01
  Finished singularity check of overlap matrix
  | Time :     0.004 s
  Starting ELPA eigensolver
  Finished Cholesky decomposition
  | Time :     0.002 s
  Finished transformation to standard eigenproblem
  | Time :     0.000 s
  Finished solving standard eigenproblem
  | Time :     0.004 s
  Finished back-transformation of eigenvectors
  | Time :     0.000 s

  Obtaining occupation numbers and chemical potential using ELSI.
  | Chemical potential (Fermi level):    -7.74778504 eV
  Writing Kohn-Sham eigenvalues.

  State    Occupation    Eigenvalue [Ha]    Eigenvalue [eV]
      1       2.00000         -55.483389        -1509.77982
      2       2.00000         -55.483365        -1509.77918
      3       2.00000         -55.483362        -1509.77911
      4       2.00000         -24.377522         -663.34613
      5       2.00000         -24.375312         -663.28598
      6       2.00000         -24.374956         -663.27629
      7       2.00000         -24.342688         -662.39825
      8       2.00000         -24.342281         -662.38717
      9       2.00000         -24.341015         -662.35273
     10       2.00000         -24.339749         -662.31826
     11       2.00000         -24.337553         -662.25851
     12       2.00000         -24.336750         -662.23666
     13       2.00000          -3.948612         -107.44719
     14       2.00000          -3.948577         -107.44625
     15       2.00000          -3.948573         -107.44614
     16       2.00000          -2.540976          -69.14349
     17       2.00000          -2.540939          -69.14246
     18       2.00000          -2.540924          -69.14205
     19       2.00000          -2.540504          -69.13063
     20       2.00000          -2.540477          -69.12990
     21       2.00000          -2.540299          -69.12506
     22       2.00000          -2.540224          -69.12303
     23       2.00000          -2.540123          -69.12026
     24       2.00000          -2.540051          -69.11830
     25       2.00000          -1.204710          -32.78182
     26       2.00000          -1.198401          -32.61016
     27       2.00000          -1.196595          -32.56101
     28       2.00000          -1.152015          -31.34793
     29       2.00000          -1.151502          -31.33395
     30       2.00000          -1.150040          -31.29419
     31       2.00000          -1.147277          -31.21900
     32       2.00000          -1.144519          -31.14395
     33       2.00000          -1.143468          -31.11535
     34       2.00000          -0.578351          -15.73774
     35       2.00000          -0.575633          -15.66376
     36       2.00000          -0.552853          -15.04390
     37       2.00000          -0.536603          -14.60170
     38       2.00000          -0.512824          -13.95464
     39       2.00000          -0.503578          -13.70304
     40       2.00000          -0.502313          -13.66865
     41       2.00000          -0.499005          -13.57862
     42       2.00000          -0.495433          -13.48141
     43       2.00000          -0.494899          -13.46688
     44       2.00000          -0.493036          -13.41619
     45       2.00000          -0.491840          -13.38363
     46       2.00000          -0.480975          -13.08800
     47       2.00000          -0.480126          -13.06488
     48       2.00000          -0.476108          -12.95555
     49       2.00000          -0.455982          -12.40791
     50       2.00000          -0.455534          -12.39572
     51       2.00000          -0.455504          -12.39488
     52       2.00000          -0.453448          -12.33894
     53       2.00000          -0.453236          -12.33317
     54       2.00000          -0.451610          -12.28893
     55       2.00000          -0.449292          -12.22586
     56       2.00000          -0.447593          -12.17963
     57       2.00000          -0.447316          -12.17208
     58       2.00000          -0.446434          -12.14810
     59       2.00000          -0.445755          -12.12960
     60       2.00000          -0.445313          -12.11758
     61       0.00000          -0.138077           -3.75726
     62       0.00000          -0.081558           -2.21931
     63       0.00000          -0.080892           -2.20119
     64       0.00000          -0.024319           -0.66175
     65       0.00000          -0.011148           -0.30335
     66       0.00000          -0.002564           -0.06976
     67       0.00000          -0.000748           -0.02037
     68       0.00000           0.038777            1.05517
     69       0.00000           0.050523            1.37481
     70       0.00000           0.052215            1.42084
     71       0.00000           0.080503            2.19060
     72       0.00000           0.081371            2.21422
     73       0.00000           0.139032            3.78326
     74       0.00000           0.161649            4.39869
     75       0.00000           0.162994            4.43530
     76       0.00000           0.183906            5.00435
     77       0.00000           0.184676            5.02529
     78       0.00000           0.192093            5.22711
     79       0.00000           0.193387            5.26232
     80       0.00000           0.200544            5.45707
     81       0.00000           0.203836            5.54666
     82       0.00000           0.212991            5.79577
     83       0.00000           0.213704            5.81518
     84       0.00000           0.227273            6.18442
     85       0.00000           0.237726            6.46885
     86       0.00000           0.251867            6.85364
     87       0.00000           0.273179            7.43357
     88       0.00000           0.294915            8.02505
     89       0.00000           0.299338            8.14540
     90       0.00000           0.301623            8.20758
     91       0.00000           0.303882            8.26904
     92       0.00000           0.317889            8.65020
     93       0.00000           0.349504            9.51050
     94       0.00000           0.350853            9.54718
     95       0.00000           0.355771            9.68101
     96       0.00000           0.369804           10.06287

  Highest occupied state (VBM) at    -12.11757710 eV
  | Occupation number:      2.00000000

  Lowest unoccupied state (CBM) at    -3.75726265 eV
  | Occupation number:      0.00000000

  Overall HOMO-LUMO gap:      8.36031445 eV.
  Calculating total energy contributions from superposition of free atom densities.

  Total energy components:
  | Sum of eigenvalues            :        -887.79467995 Ha      -24158.12239324 eV
  | XC energy correction          :        -144.32135986 Ha       -3927.18401460 eV
  | XC potential correction       :         187.91438252 Ha        5113.41051577 eV
  | Free-atom electrostatic energy:        -781.18417316 Ha      -21257.10290123 eV
  | Hartree energy correction     :           0.00000000 Ha           0.00000000 eV
  | Entropy correction            :           0.00000000 Ha           0.00000000 eV
  | ---------------------------
  | Total energy                  :       -1625.38583045 Ha      -44228.99879331 eV
  | Total energy, T -> 0          :       -1625.38583045 Ha      -44228.99879331 eV  <-- do not rely on this value for anything but (periodic) metals
  | Electronic free energy        :       -1625.38583045 Ha      -44228.99879331 eV

  Derived energy quantities:
  | Kinetic energy                :        1627.56252801 Ha       44288.22974748 eV
  | Electrostatic energy          :       -3108.62699861 Ha      -84590.04452619 eV
  | Energy correction for multipole
  | error in Hartree potential    :           0.00000000 Ha           0.00000000 eV
  | Sum of eigenvalues per atom                           :       -2013.17686610 eV
  | Total energy (T->0) per atom                          :       -3685.74989944 eV  <-- do not rely on this value for anything but (periodic) metals
  | Electronic free energy per atom                       :       -3685.74989944 eV
  Initialize hartree_potential_storage
  Max. number of atoms included in rho_multipole:           12

  End scf initialization - timings             :  max(cpu_time)    wall_clock(cpu1)
  | Time for scf. initialization                :        0.116 s           0.117 s
  | Boundary condition initialization           :        0.000 s           0.001 s
  | Integration                                 :        0.047 s           0.046 s
  | Solution of K.-S. eqns.                     :        0.011 s           0.011 s
  | Grid partitioning                           :        0.035 s           0.035 s
  | Preloading free-atom quantities on grid     :        0.016 s           0.017 s
  | Free-atom superposition energy              :        0.005 s           0.005 s
  | Total energy evaluation                     :        0.000 s           0.000 s

  Partial memory accounting:
  | Current value for overall tracked memory usage:
  |   Minimum:        0.273 MB (on task 23)
  |   Maximum:        0.292 MB (on task  0)
  |   Average:        0.287 MB
  | Peak value for overall tracked memory usage:
  |   Minimum:        1.326 MB (on task 16 after allocating wave)
  |   Maximum:        1.426 MB (on task  2 after allocating wave)
  |   Average:        1.390 MB
  | Largest tracked array allocation so far:
  |   Minimum:        0.240 MB (H_times_psi on task 16)
  |   Maximum:        0.469 MB (all_coords on task  9)
  |   Average:        0.279 MB
  Note:  These values currently only include a subset of arrays which are explicitly tracked.
  The "true" memory usage will be greater.
------------------------------------------------------------
  Evaluating new KS density.
  Integration grid: deviation in total charge (<rho> - N_e) =   1.421085E-14

  Time for density update prior                :  max(cpu_time)    wall_clock(cpu1)
  | self-consistency iterative process          :        0.029 s           0.029 s

------------------------------------------------------------
          Begin self-consistency iteration #    1

  Date     :  20220517, Time     :  114603.409
------------------------------------------------------------
  Pulay mixing of updated and previous charge densities.
  Renormalizing the density to the exact electron count on the 3D integration grid.
  | Formal number of electrons (from input files) :     120.0000000000
  | Integrated number of electrons on 3D grid     :     120.0000000000
  | Charge integration error                      :       0.0000000000
  | Normalization factor for density and gradient :       1.0000000000

  Evaluating partitioned Hartree potential by multipole expansion.
  | Original multipole sum: apparent total charge =  -0.249049E-13
  | Sum of charges compensated after spline to logarithmic grids =   0.107428E-03
  | Analytical far-field extrapolation by fixed multipoles:
  | Hartree multipole sum: apparent total charge =  -0.253929E-13
  Summing up the Hartree potential.
  Time summed over all CPUs for potential: real work        0.381 s, elapsed        0.391 s
  | RMS charge density error from multipole expansion :   0.104669E-01

  Integrating Hamiltonian matrix: batch-based integration.
  Time summed over all CPUs for integration: real work        0.673 s, elapsed        0.726 s

  Updating Kohn-Sham eigenvalues and eigenvectors using ELSI and the ELPA eigensolver.
  Starting ELPA eigensolver
  Finished transformation to standard eigenproblem
  | Time :     0.001 s
  Finished solving standard eigenproblem
  | Time :     0.003 s
  Finished back-transformation of eigenvectors
  | Time :     0.000 s

  Obtaining occupation numbers and chemical potential using ELSI.
  | Chemical potential (Fermi level):    -7.74024399 eV
  Writing Kohn-Sham eigenvalues.

  State    Occupation    Eigenvalue [Ha]    Eigenvalue [eV]
      1       2.00000         -55.648585        -1514.27504
      2       2.00000         -55.647392        -1514.24259
      3       2.00000         -55.647129        -1514.23542
      4       2.00000         -24.280761         -660.71313
      5       2.00000         -24.273778         -660.52310
      6       2.00000         -24.273411         -660.51312
      7       2.00000         -24.075288         -655.12192
      8       2.00000         -24.075130         -655.11763
      9       2.00000         -24.074593         -655.10302
     10       2.00000         -24.073238         -655.06615
     11       2.00000         -24.072481         -655.04555
     12       2.00000         -24.068247         -654.93032
     13       2.00000          -4.088865         -111.26367
     14       2.00000          -4.087700         -111.23197
     15       2.00000          -4.087448         -111.22512
     16       2.00000          -2.682321          -72.98967
     17       2.00000          -2.682295          -72.98895
     18       2.00000          -2.681206          -72.95932
     19       2.00000          -2.681145          -72.95765
     20       2.00000          -2.680980          -72.95318
     21       2.00000          -2.680859          -72.94990
     22       2.00000          -2.679879          -72.92322
     23       2.00000          -2.678630          -72.88923
     24       2.00000          -2.678380          -72.88244
     25       2.00000          -1.203332          -32.74432
     26       2.00000          -1.194092          -32.49289
     27       2.00000          -1.190688          -32.40027
     28       2.00000          -1.024142          -27.86832
     29       2.00000          -1.023858          -27.86060
     30       2.00000          -1.022237          -27.81649
     31       2.00000          -1.019193          -27.73366
     32       2.00000          -1.018269          -27.70850
     33       2.00000          -1.014197          -27.59771
     34       2.00000          -0.589299          -16.03563
     35       2.00000          -0.583904          -15.88883
     36       2.00000          -0.557472          -15.16960
     37       2.00000          -0.544989          -14.82991
     38       2.00000          -0.505201          -13.74722
     39       2.00000          -0.493736          -13.43524
     40       2.00000          -0.492372          -13.39812
     41       2.00000          -0.487857          -13.27526
     42       2.00000          -0.480783          -13.08278
     43       2.00000          -0.407969          -11.10140
     44       2.00000          -0.397125          -10.80632
     45       2.00000          -0.396233          -10.78204
     46       2.00000          -0.371719          -10.11500
     47       2.00000          -0.370043          -10.06939
     48       2.00000          -0.367087           -9.98894
     49       2.00000          -0.340365           -9.26179
     50       2.00000          -0.338366           -9.20740
     51       2.00000          -0.338153           -9.20160
     52       2.00000          -0.334149           -9.09266
     53       2.00000          -0.333542           -9.07614
     54       2.00000          -0.331452           -9.01926
     55       2.00000          -0.327395           -8.90886
     56       2.00000          -0.325788           -8.86513
     57       2.00000          -0.324882           -8.84049
     58       2.00000          -0.323148           -8.79331
     59       2.00000          -0.322703           -8.78120
     60       2.00000          -0.320451           -8.71993
     61       0.00000          -0.156086           -4.24732
     62       0.00000          -0.084965           -2.31201
     63       0.00000          -0.083645           -2.27610
     64       0.00000          -0.044652           -1.21504
     65       0.00000          -0.030731           -0.83623
     66       0.00000          -0.016230           -0.44163
     67       0.00000          -0.014228           -0.38717
     68       0.00000           0.023428            0.63752
     69       0.00000           0.032460            0.88327
     70       0.00000           0.033173            0.90270
     71       0.00000           0.052771            1.43596
     72       0.00000           0.055197            1.50199
     73       0.00000           0.134168            3.65090
     74       0.00000           0.150460            4.09422
     75       0.00000           0.162345            4.41763
     76       0.00000           0.178839            4.86646
     77       0.00000           0.180119            4.90130
     78       0.00000           0.185216            5.03999
     79       0.00000           0.190406            5.18122
     80       0.00000           0.194104            5.28184
     81       0.00000           0.195943            5.33189
     82       0.00000           0.202324            5.50551
     83       0.00000           0.212944            5.79451
     84       0.00000           0.216560            5.89289
     85       0.00000           0.225369            6.13262
     86       0.00000           0.244591            6.65567
     87       0.00000           0.263578            7.17232
     88       0.00000           0.278237            7.57123
     89       0.00000           0.287423            7.82119
     90       0.00000           0.288125            7.84029
     91       0.00000           0.294651            8.01786
     92       0.00000           0.299963            8.16240
     93       0.00000           0.322558            8.77726
     94       0.00000           0.335047            9.11709
     95       0.00000           0.365007            9.93235
     96       0.00000           0.372043           10.12380

  Highest occupied state (VBM) at     -8.71992877 eV
  | Occupation number:      2.00000000

  Lowest unoccupied state (CBM) at    -4.24731609 eV
  | Occupation number:      0.00000000

  Overall HOMO-LUMO gap:      4.47261269 eV.

  Total energy components:
  | Sum of eigenvalues            :        -882.63186369 Ha      -24017.63501491 eV
  | XC energy correction          :        -145.70101423 Ha       -3964.72632018 eV
  | XC potential correction       :         189.72777996 Ha        5162.75557091 eV
  | Free-atom electrostatic energy:        -781.18417316 Ha      -21257.10290123 eV
  | Hartree energy correction     :          -5.37000717 Ha        -146.12532991 eV
  | Entropy correction            :           0.00000000 Ha           0.00000000 eV
  | ---------------------------
  | Total energy                  :       -1625.15927829 Ha      -44222.83399532 eV
  | Total energy, T -> 0          :       -1625.15927829 Ha      -44222.83399532 eV  <-- do not rely on this value for anything but (periodic) metals
  | Electronic free energy        :       -1625.15927829 Ha      -44222.83399532 eV

  Derived energy quantities:
  | Kinetic energy                :        1634.24779991 Ha       44470.14525156 eV
  | Electrostatic energy          :       -3113.70606397 Ha      -84728.25292670 eV
  | Energy correction for multipole
  | error in Hartree potential    :           0.04475141 Ha           1.21774776 eV
  | Sum of eigenvalues per atom                           :       -2001.46958458 eV
  | Total energy (T->0) per atom                          :       -3685.23616628 eV  <-- do not rely on this value for anything but (periodic) metals
  | Electronic free energy per atom                       :       -3685.23616628 eV
  Evaluating new KS density.
  Integration grid: deviation in total charge (<rho> - N_e) =   0.000000E+00

  Self-consistency convergence accuracy:
  | Change of charge density      :  0.6132E+00
  | Change of sum of eigenvalues  :  0.1405E+03 eV
  | Change of total energy        :  0.6165E+01 eV


------------------------------------------------------------
  End self-consistency iteration #     1       :  max(cpu_time)    wall_clock(cpu1)
  | Time for this iteration                     :        0.083 s           0.082 s
  | Charge density update                       :        0.028 s           0.028 s
  | Density mixing                              :        0.000 s           0.000 s
  | Hartree multipole update                    :        0.001 s           0.002 s
  | Hartree multipole summation                 :        0.017 s           0.016 s
  | Integration                                 :        0.031 s           0.031 s
  | Solution of K.-S. eqns.                     :        0.005 s           0.005 s
  | Total energy evaluation                     :        0.000 s           0.000 s

  Partial memory accounting:
  | Current value for overall tracked memory usage:
  |   Minimum:        0.273 MB (on task 23)
  |   Maximum:        0.292 MB (on task  0)
  |   Average:        0.287 MB
  | Peak value for overall tracked memory usage:
  |   Minimum:        1.326 MB (on task 16 after allocating wave)
  |   Maximum:        1.426 MB (on task  2 after allocating wave)
  |   Average:        1.390 MB
  | Largest tracked array allocation so far:
  |   Minimum:        0.719 MB (gradient_basis_wave on task 16)
  |   Maximum:        0.783 MB (gradient_basis_wave on task  2)
  |   Average:        0.762 MB
  Note:  These values currently only include a subset of arrays which are explicitly tracked.
  The "true" memory usage will be greater.
------------------------------------------------------------

------------------------------------------------------------
          Begin self-consistency iteration #    2

  Date     :  20220517, Time     :  114603.495
------------------------------------------------------------
  Pulay mixing of updated and previous charge densities.
  Renormalizing the density to the exact electron count on the 3D integration grid.
  | Formal number of electrons (from input files) :     120.0000000000
  | Integrated number of electrons on 3D grid     :     120.0000000000
  | Charge integration error                      :      -0.0000000000
  | Normalization factor for density and gradient :       1.0000000000

  Evaluating partitioned Hartree potential by multipole expansion.
  | Original multipole sum: apparent total charge =  -0.464117E-13
  | Sum of charges compensated after spline to logarithmic grids =   0.671352E-04
  | Analytical far-field extrapolation by fixed multipoles:
  | Hartree multipole sum: apparent total charge =  -0.475605E-13
  Summing up the Hartree potential.
  Time summed over all CPUs for potential: real work        0.380 s, elapsed        0.390 s
  | RMS charge density error from multipole expansion :   0.124306E-01

  Integrating Hamiltonian matrix: batch-based integration.
  Time summed over all CPUs for integration: real work        0.672 s, elapsed        0.730 s

  Updating Kohn-Sham eigenvalues and eigenvectors using ELSI and the ELPA eigensolver.
  Starting ELPA eigensolver
  Finished transformation to standard eigenproblem
  | Time :     0.000 s
  Finished solving standard eigenproblem
  | Time :     0.004 s
  Finished back-transformation of eigenvectors
  | Time :     0.000 s

  Obtaining occupation numbers and chemical potential using ELSI.
  | Chemical potential (Fermi level):    -7.90287648 eV
  Highest occupied state (VBM) at     -9.92433431 eV
  | Occupation number:      2.00000000

  Lowest unoccupied state (CBM) at    -4.43836935 eV
  | Occupation number:      0.00000000

  Overall HOMO-LUMO gap:      5.48596496 eV.

  Checking to see if s.c.f. parameters should be adjusted.

  Total energy components:
  | Sum of eigenvalues            :        -885.84750507 Ha      -24105.13706877 eV
  | XC energy correction          :        -145.19398846 Ha       -3950.92944712 eV
  | XC potential correction       :         189.06063675 Ha        5144.60168044 eV
  | Free-atom electrostatic energy:        -781.18417316 Ha      -21257.10290123 eV
  | Hartree energy correction     :          -1.92414169 Ha         -52.35855927 eV
  | Entropy correction            :           0.00000000 Ha           0.00000000 eV
  | ---------------------------
  | Total energy                  :       -1625.08917163 Ha      -44220.92629594 eV
  | Total energy, T -> 0          :       -1625.08917163 Ha      -44220.92629594 eV  <-- do not rely on this value for anything but (periodic) metals
  | Electronic free energy        :       -1625.08917163 Ha      -44220.92629594 eV

  Derived energy quantities:
  | Kinetic energy                :        1630.30090102 Ha       44362.74466822 eV
  | Electrostatic energy          :       -3110.19608418 Ha      -84632.74151705 eV
  | Energy correction for multipole
  | error in Hartree potential    :           0.04880169 Ha           1.32796156 eV
  | Sum of eigenvalues per atom                           :       -2008.76142240 eV
  | Total energy (T->0) per atom                          :       -3685.07719133 eV  <-- do not rely on this value for anything but (periodic) metals
  | Electronic free energy per atom                       :       -3685.07719133 eV
  Evaluating new KS density.
  Integration grid: deviation in total charge (<rho> - N_e) =   2.842171E-14

  Self-consistency convergence accuracy:
  | Change of charge density      :  0.4985E+00
  | Change of sum of eigenvalues  : -0.8750E+02 eV
  | Change of total energy        :  0.1908E+01 eV


------------------------------------------------------------
  End self-consistency iteration #     2       :  max(cpu_time)    wall_clock(cpu1)
  | Time for this iteration                     :        0.085 s           0.084 s
  | Charge density update                       :        0.028 s           0.027 s
  | Density mixing                              :        0.003 s           0.003 s
  | Hartree multipole update                    :        0.001 s           0.002 s
  | Hartree multipole summation                 :        0.016 s           0.016 s
  | Integration                                 :        0.031 s           0.031 s
  | Solution of K.-S. eqns.                     :        0.004 s           0.004 s
  | Total energy evaluation                     :        0.000 s           0.001 s

  Partial memory accounting:
  | Current value for overall tracked memory usage:
  |   Minimum:        0.274 MB (on task 23)
  |   Maximum:        0.293 MB (on task  0)
  |   Average:        0.288 MB
  | Peak value for overall tracked memory usage:
  |   Minimum:        1.326 MB (on task 16 after allocating wave)
  |   Maximum:        1.426 MB (on task  2 after allocating wave)
  |   Average:        1.390 MB
  | Largest tracked array allocation so far:
  |   Minimum:        0.719 MB (gradient_basis_wave on task 16)
  |   Maximum:        0.783 MB (gradient_basis_wave on task  2)
  |   Average:        0.762 MB
  Note:  These values currently only include a subset of arrays which are explicitly tracked.
  The "true" memory usage will be greater.
------------------------------------------------------------

------------------------------------------------------------
          Begin self-consistency iteration #    3

  Date     :  20220517, Time     :  114603.584
------------------------------------------------------------
  Pulay mixing of updated and previous charge densities.
  Renormalizing the density to the exact electron count on the 3D integration grid.
  | Formal number of electrons (from input files) :     120.0000000000
  | Integrated number of electrons on 3D grid     :     120.0000000000
  | Charge integration error                      :       0.0000000000
  | Normalization factor for density and gradient :       1.0000000000

  Evaluating partitioned Hartree potential by multipole expansion.
  | Original multipole sum: apparent total charge =  -0.471662E-14
  | Sum of charges compensated after spline to logarithmic grids =   0.855133E-04
  | Analytical far-field extrapolation by fixed multipoles:
  | Hartree multipole sum: apparent total charge =  -0.544840E-14
  Summing up the Hartree potential.
  Time summed over all CPUs for potential: real work        0.380 s, elapsed        0.390 s
  | RMS charge density error from multipole expansion :   0.170613E-01

  Integrating Hamiltonian matrix: batch-based integration.
  Time summed over all CPUs for integration: real work        0.673 s, elapsed        0.726 s

  Updating Kohn-Sham eigenvalues and eigenvectors using ELSI and the ELPA eigensolver.
  Starting ELPA eigensolver
  Finished transformation to standard eigenproblem
  | Time :     0.001 s
  Finished solving standard eigenproblem
  | Time :     0.003 s
  Finished back-transformation of eigenvectors
  | Time :     0.000 s

  Obtaining occupation numbers and chemical potential using ELSI.
  | Chemical potential (Fermi level):    -7.97336428 eV
  Highest occupied state (VBM) at     -9.69676096 eV
  | Occupation number:      2.00000000

  Lowest unoccupied state (CBM) at    -4.69210810 eV
  | Occupation number:      0.00000000

  Overall HOMO-LUMO gap:      5.00465285 eV.

  Total energy components:
  | Sum of eigenvalues            :        -886.97157495 Ha      -24135.72456649 eV
  | XC energy correction          :        -145.16290454 Ha       -3950.08361063 eV
  | XC potential correction       :         189.01839172 Ha        5143.45213469 eV
  | Free-atom electrostatic energy:        -781.18417316 Ha      -21257.10290123 eV
  | Hartree energy correction     :          -0.78788071 Ha         -21.43932503 eV
  | Entropy correction            :           0.00000000 Ha           0.00000000 eV
  | ---------------------------
  | Total energy                  :       -1625.08814165 Ha      -44220.89826869 eV
  | Total energy, T -> 0          :       -1625.08814165 Ha      -44220.89826869 eV  <-- do not rely on this value for anything but (periodic) metals
  | Electronic free energy        :       -1625.08814165 Ha      -44220.89826869 eV

  Derived energy quantities:
  | Kinetic energy                :        1628.64159022 Ha       44317.59252415 eV
  | Electrostatic energy          :       -3108.56682732 Ha      -84588.40718221 eV
  | Energy correction for multipole
  | error in Hartree potential    :           0.06415944 Ha           1.74586707 eV
  | Sum of eigenvalues per atom                           :       -2011.31038054 eV
  | Total energy (T->0) per atom                          :       -3685.07485572 eV  <-- do not rely on this value for anything but (periodic) metals
  | Electronic free energy per atom                       :       -3685.07485572 eV
  Evaluating new KS density.
  Integration grid: deviation in total charge (<rho> - N_e) =   2.842171E-14

  Self-consistency convergence accuracy:
  | Change of charge density      :  0.1267E+00
  | Change of sum of eigenvalues  : -0.3059E+02 eV
  | Change of total energy        :  0.2803E-01 eV


------------------------------------------------------------
  End self-consistency iteration #     3       :  max(cpu_time)    wall_clock(cpu1)
  | Time for this iteration                     :        0.084 s           0.083 s
  | Charge density update                       :        0.028 s           0.027 s
  | Density mixing                              :        0.003 s           0.003 s
  | Hartree multipole update                    :        0.001 s           0.001 s
  | Hartree multipole summation                 :        0.017 s           0.016 s
  | Integration                                 :        0.031 s           0.030 s
  | Solution of K.-S. eqns.                     :        0.004 s           0.004 s
  | Total energy evaluation                     :        0.000 s           0.000 s

  Partial memory accounting:
  | Current value for overall tracked memory usage:
  |   Minimum:        0.274 MB (on task 23)
  |   Maximum:        0.293 MB (on task  0)
  |   Average:        0.288 MB
  | Peak value for overall tracked memory usage:
  |   Minimum:        1.326 MB (on task 16 after allocating wave)
  |   Maximum:        1.426 MB (on task  2 after allocating wave)
  |   Average:        1.390 MB
  | Largest tracked array allocation so far:
  |   Minimum:        0.719 MB (gradient_basis_wave on task 16)
  |   Maximum:        0.783 MB (gradient_basis_wave on task  2)
  |   Average:        0.762 MB
  Note:  These values currently only include a subset of arrays which are explicitly tracked.
  The "true" memory usage will be greater.
------------------------------------------------------------

------------------------------------------------------------
          Begin self-consistency iteration #    4

  Date     :  20220517, Time     :  114603.674
------------------------------------------------------------
  Pulay mixing of updated and previous charge densities.
  Renormalizing the density to the exact electron count on the 3D integration grid.
  | Formal number of electrons (from input files) :     120.0000000000
  | Integrated number of electrons on 3D grid     :     120.0000000000
  | Charge integration error                      :       0.0000000000
  | Normalization factor for density and gradient :       1.0000000000

  Evaluating partitioned Hartree potential by multipole expansion.
  | Original multipole sum: apparent total charge =  -0.196167E-13
  | Sum of charges compensated after spline to logarithmic grids =   0.944652E-04
  | Analytical far-field extrapolation by fixed multipoles:
  | Hartree multipole sum: apparent total charge =  -0.206682E-13
  Summing up the Hartree potential.
  Time summed over all CPUs for potential: real work        0.380 s, elapsed        0.390 s
  | RMS charge density error from multipole expansion :   0.193987E-01

  Integrating Hamiltonian matrix: batch-based integration.
  Time summed over all CPUs for integration: real work        0.673 s, elapsed        0.732 s

  Updating Kohn-Sham eigenvalues and eigenvectors using ELSI and the ELPA eigensolver.
  Starting ELPA eigensolver
  Finished transformation to standard eigenproblem
  | Time :     0.001 s
  Finished solving standard eigenproblem
  | Time :     0.003 s
  Finished back-transformation of eigenvectors
  | Time :     0.000 s

  Obtaining occupation numbers and chemical potential using ELSI.
  | Chemical potential (Fermi level):    -7.96943558 eV
  Highest occupied state (VBM) at     -9.80921852 eV
  | Occupation number:      2.00000000

  Lowest unoccupied state (CBM) at    -4.65263295 eV
  | Occupation number:      0.00000000

  Overall HOMO-LUMO gap:      5.15658557 eV.

  Total energy components:
  | Sum of eigenvalues            :        -887.16505730 Ha      -24140.98948926 eV
  | XC energy correction          :        -145.14375020 Ha       -3949.56239434 eV
  | XC potential correction       :         188.99236440 Ha        5142.74389535 eV
  | Free-atom electrostatic energy:        -781.18417316 Ha      -21257.10290123 eV
  | Hartree energy correction     :          -0.58530750 Ha         -15.92702735 eV
  | Entropy correction            :           0.00000000 Ha           0.00000000 eV
  | ---------------------------
  | Total energy                  :       -1625.08592376 Ha      -44220.83791684 eV
  | Total energy, T -> 0          :       -1625.08592376 Ha      -44220.83791684 eV  <-- do not rely on this value for anything but (periodic) metals
  | Electronic free energy        :       -1625.08592376 Ha      -44220.83791684 eV

  Derived energy quantities:
  | Kinetic energy                :        1627.87874578 Ha       44296.83447069 eV
  | Electrostatic energy          :       -3107.82091934 Ha      -84568.10999318 eV
  | Energy correction for multipole
  | error in Hartree potential    :           0.07156708 Ha           1.94743931 eV
  | Sum of eigenvalues per atom                           :       -2011.74912411 eV
  | Total energy (T->0) per atom                          :       -3685.06982640 eV  <-- do not rely on this value for anything but (periodic) metals
  | Electronic free energy per atom                       :       -3685.06982640 eV
  Evaluating new KS density.
  Integration grid: deviation in total charge (<rho> - N_e) =   2.842171E-14

  Self-consistency convergence accuracy:
  | Change of charge density      :  0.8666E-01
  | Change of sum of eigenvalues  : -0.5265E+01 eV
  | Change of total energy        :  0.6035E-01 eV


------------------------------------------------------------
  End self-consistency iteration #     4       :  max(cpu_time)    wall_clock(cpu1)
  | Time for this iteration                     :        0.086 s           0.083 s
  | Charge density update                       :        0.028 s           0.028 s
  | Density mixing                              :        0.005 s           0.002 s
  | Hartree multipole update                    :        0.001 s           0.001 s
  | Hartree multipole summation                 :        0.017 s           0.016 s
  | Integration                                 :        0.031 s           0.031 s
  | Solution of K.-S. eqns.                     :        0.004 s           0.005 s
  | Total energy evaluation                     :        0.000 s           0.000 s

  Partial memory accounting:
  | Current value for overall tracked memory usage:
  |   Minimum:        0.274 MB (on task 23)
  |   Maximum:        0.293 MB (on task  0)
  |   Average:        0.288 MB
  | Peak value for overall tracked memory usage:
  |   Minimum:        1.326 MB (on task 16 after allocating wave)
  |   Maximum:        1.426 MB (on task  2 after allocating wave)
  |   Average:        1.390 MB
  | Largest tracked array allocation so far:
  |   Minimum:        0.719 MB (gradient_basis_wave on task 16)
  |   Maximum:        0.783 MB (gradient_basis_wave on task  2)
  |   Average:        0.762 MB
  Note:  These values currently only include a subset of arrays which are explicitly tracked.
  The "true" memory usage will be greater.
------------------------------------------------------------

------------------------------------------------------------
          Begin self-consistency iteration #    5

  Date     :  20220517, Time     :  114603.762
------------------------------------------------------------
  Pulay mixing of updated and previous charge densities.
  Renormalizing the density to the exact electron count on the 3D integration grid.
  | Formal number of electrons (from input files) :     120.0000000000
  | Integrated number of electrons on 3D grid     :     120.0000000000
  | Charge integration error                      :       0.0000000000
  | Normalization factor for density and gradient :       1.0000000000

  Evaluating partitioned Hartree potential by multipole expansion.
  | Original multipole sum: apparent total charge =  -0.331701E-13
  | Sum of charges compensated after spline to logarithmic grids =   0.949156E-04
  | Analytical far-field extrapolation by fixed multipoles:
  | Hartree multipole sum: apparent total charge =  -0.317096E-13
  Summing up the Hartree potential.
  Time summed over all CPUs for potential: real work        0.380 s, elapsed        0.390 s
  | RMS charge density error from multipole expansion :   0.191789E-01

  Integrating Hamiltonian matrix: batch-based integration.
  Time summed over all CPUs for integration: real work        0.673 s, elapsed        0.725 s

  Updating Kohn-Sham eigenvalues and eigenvectors using ELSI and the ELPA eigensolver.
  Starting ELPA eigensolver
  Finished transformation to standard eigenproblem
  | Time :     0.001 s
  Finished solving standard eigenproblem
  | Time :     0.003 s
  Finished back-transformation of eigenvectors
  | Time :     0.000 s

  Obtaining occupation numbers and chemical potential using ELSI.
  | Chemical potential (Fermi level):    -7.94299399 eV
  Highest occupied state (VBM) at     -9.83569542 eV
  | Occupation number:      2.00000000

  Lowest unoccupied state (CBM) at    -4.58780554 eV
  | Occupation number:      0.00000000

  Overall HOMO-LUMO gap:      5.24788988 eV.

  Total energy components:
  | Sum of eigenvalues            :        -886.95430399 Ha      -24135.25459986 eV
  | XC energy correction          :        -145.13879344 Ha       -3949.42751407 eV
  | XC potential correction       :         188.98605833 Ha        5142.57229829 eV
  | Free-atom electrostatic energy:        -781.18417316 Ha      -21257.10290123 eV
  | Hartree energy correction     :          -0.79455829 Ha         -21.62103118 eV
  | Entropy correction            :           0.00000000 Ha           0.00000000 eV
[...]
   Total forces(   7)            :  0.605049E+00  0.329603E+01  0.409177E+00
  atom #    8
   Hellmann-Feynman              : -0.816268E-01 -0.626001E+00  0.353505E+00
   Ionic forces                  :  0.000000E+00  0.000000E+00  0.000000E+00
   Multipole                     :  0.162640E+00 -0.568699E-01  0.284607E+00
   Hartree pot. SCF incomplete   :  0.625461E-06 -0.819450E-07 -0.919527E-06
   Pulay + GGA                   : -0.907941E+00  0.914429E+00 -0.131115E+01
   ----------------------------------------------------------------
   Total forces(   8)            : -0.826927E+00  0.231558E+00 -0.673035E+00
  atom #    9
   Hellmann-Feynman              :  0.163932E+00  0.844411E+00 -0.175537E+00
   Ionic forces                  :  0.000000E+00  0.000000E+00  0.000000E+00
   Multipole                     :  0.123088E+00  0.125843E+00 -0.273019E+00
   Hartree pot. SCF incomplete   : -0.794535E-06  0.216282E-05  0.206544E-05
   Pulay + GGA                   : -0.323768E+00 -0.118040E+01  0.138641E+01
   ----------------------------------------------------------------
   Total forces(   9)            : -0.367494E-01 -0.210142E+00  0.937853E+00
  atom #   10
   Hellmann-Feynman              : -0.520405E+00 -0.128227E+01  0.304278E+01
   Ionic forces                  :  0.000000E+00  0.000000E+00  0.000000E+00
   Multipole                     : -0.101112E+00 -0.332854E+00  0.637903E+00
   Hartree pot. SCF incomplete   : -0.377890E-06 -0.144917E-05  0.269390E-05
   Pulay + GGA                   :  0.110602E+01  0.278100E+01 -0.648953E+01
   ----------------------------------------------------------------
   Total forces(  10)            :  0.484499E+00  0.116588E+01 -0.280884E+01
  atom #   11
   Hellmann-Feynman              :  0.107054E+00  0.261103E+01 -0.859161E+00
   Ionic forces                  :  0.000000E+00  0.000000E+00  0.000000E+00
   Multipole                     :  0.266010E-01  0.675565E+00 -0.212623E+00
   Hartree pot. SCF incomplete   :  0.187491E-05 -0.138198E-05 -0.760421E-05
   Pulay + GGA                   : -0.140582E+00 -0.685725E+01  0.166366E+01
   ----------------------------------------------------------------
   Total forces(  11)            : -0.692494E-02 -0.357066E+01  0.591870E+00
  atom #   12
   Hellmann-Feynman              : -0.178220E+00 -0.795589E+00 -0.109048E+00
   Ionic forces                  :  0.000000E+00  0.000000E+00  0.000000E+00
   Multipole                     : -0.309570E+00 -0.134060E+00  0.552278E-01
   Hartree pot. SCF incomplete   : -0.982942E-07  0.592901E-07 -0.683435E-06
   Pulay + GGA                   :  0.135694E+01  0.110407E+01 -0.593305E+00
   ----------------------------------------------------------------
   Total forces(  12)            :  0.869146E+00  0.174424E+00 -0.647126E+00


  Self-consistency convergence accuracy:
  | Change of charge density      :  0.1720E-05
  | Change of sum of eigenvalues  : -0.9670E-04 eV
  | Change of total energy        :  0.1051E-06 eV
  | Change of forces              :  0.1405E-05 eV/A

  Writing Kohn-Sham eigenvalues.

  State    Occupation    Eigenvalue [Ha]    Eigenvalue [eV]
      1       2.00000         -55.632401        -1513.83467
      2       2.00000         -55.630922        -1513.79442
      3       2.00000         -55.630527        -1513.78366
      4       2.00000         -24.340687         -662.34379
      5       2.00000         -24.336712         -662.23562
      6       2.00000         -24.336202         -662.22175
      7       2.00000         -24.219856         -659.05581
      8       2.00000         -24.215977         -658.95025
      9       2.00000         -24.215935         -658.94911
     10       2.00000         -24.215899         -658.94815
     11       2.00000         -24.214133         -658.90008
     12       2.00000         -24.212599         -658.85833
     13       2.00000          -4.086612         -111.20236
     14       2.00000          -4.085143         -111.16239
     15       2.00000          -4.084729         -111.15113
     16       2.00000          -2.680233          -72.93284
     17       2.00000          -2.679142          -72.90317
     18       2.00000          -2.678835          -72.89481
     19       2.00000          -2.678440          -72.88407
     20       2.00000          -2.677731          -72.86478
     21       2.00000          -2.677284          -72.85261
     22       2.00000          -2.674965          -72.78951
     23       2.00000          -2.673317          -72.74465
     24       2.00000          -2.672929          -72.73410
     25       2.00000          -1.223274          -33.28698
     26       2.00000          -1.214754          -33.05513
     27       2.00000          -1.211652          -32.97074
     28       2.00000          -1.066902          -29.03188
     29       2.00000          -1.065795          -29.00177
     30       2.00000          -1.064413          -28.96414
     31       2.00000          -1.063030          -28.92652
     32       2.00000          -1.060989          -28.87097
     33       2.00000          -1.057163          -28.76687
     34       2.00000          -0.607948          -16.54309
     35       2.00000          -0.603149          -16.41253
     36       2.00000          -0.578018          -15.72868
     37       2.00000          -0.563799          -15.34175
     38       2.00000          -0.523036          -14.23252
     39       2.00000          -0.514864          -14.01017
     40       2.00000          -0.512678          -13.95067
     41       2.00000          -0.507738          -13.81625
     42       2.00000          -0.501093          -13.63545
     43       2.00000          -0.442210          -12.03314
     44       2.00000          -0.433556          -11.79766
     45       2.00000          -0.432238          -11.76179
     46       2.00000          -0.413459          -11.25079
     47       2.00000          -0.411147          -11.18788
     48       2.00000          -0.408304          -11.11051
     49       2.00000          -0.377919          -10.28369
     50       2.00000          -0.375805          -10.22618
     51       2.00000          -0.375521          -10.21843
     52       2.00000          -0.372414          -10.13390
     53       2.00000          -0.372247          -10.12936
     54       2.00000          -0.370197          -10.07356
     55       2.00000          -0.368167          -10.01834
     56       2.00000          -0.366169           -9.96397
     57       2.00000          -0.365616           -9.94891
     58       2.00000          -0.363026           -9.87843
     59       2.00000          -0.362971           -9.87693
     60       2.00000          -0.360908           -9.82081
     61       0.00000          -0.168603           -4.58791
     62       0.00000          -0.097257           -2.64649
     63       0.00000          -0.095744           -2.60534
     64       0.00000          -0.051720           -1.40738
     65       0.00000          -0.036618           -0.99642
     66       0.00000          -0.021408           -0.58254
     67       0.00000          -0.019428           -0.52866
     68       0.00000           0.019975            0.54355
     69       0.00000           0.026328            0.71643
     70       0.00000           0.027895            0.75905
     71       0.00000           0.046283            1.25942
     72       0.00000           0.048530            1.32057
     73       0.00000           0.125568            3.41688
     74       0.00000           0.145367            3.95563
     75       0.00000           0.156271            4.25234
     76       0.00000           0.173347            4.71700
     77       0.00000           0.173732            4.72749
     78       0.00000           0.178426            4.85523
     79       0.00000           0.182335            4.96159
     80       0.00000           0.186821            5.08366
     81       0.00000           0.189318            5.15160
     82       0.00000           0.196069            5.33531
     83       0.00000           0.205523            5.59257
     84       0.00000           0.207957            5.65879
     85       0.00000           0.217953            5.93079
     86       0.00000           0.236890            6.44611
     87       0.00000           0.256800            6.98788
     88       0.00000           0.272793            7.42308
     89       0.00000           0.281700            7.66545
     90       0.00000           0.282513            7.68758
     91       0.00000           0.289373            7.87425
     92       0.00000           0.295355            8.03702
     93       0.00000           0.318034            8.65415
     94       0.00000           0.328768            8.94623
     95       0.00000           0.356666            9.70539
     96       0.00000           0.364440            9.91693

  Highest occupied state (VBM) at     -9.82080778 eV
  | Occupation number:      2.00000000

  Lowest unoccupied state (CBM) at    -4.58790750 eV
  | Occupation number:      0.00000000

  Overall HOMO-LUMO gap:      5.23290029 eV.
  | Chemical Potential                          :    -7.93953801 eV

  Self-consistency cycle converged.


------------------------------------------------------------
  End self-consistency iteration #    13       :  max(cpu_time)    wall_clock(cpu1)
  | Time for this iteration                     :        0.270 s           0.267 s
  | Charge density & force component update     :        0.147 s           0.148 s
  | Density mixing                              :        0.005 s           0.002 s
  | Hartree multipole update                    :        0.001 s           0.001 s
  | Hartree multipole summation                 :        0.049 s           0.049 s
  | Hartree pot. SCF incomplete forces          :        0.032 s           0.032 s
  | Integration                                 :        0.031 s           0.031 s
  | Solution of K.-S. eqns.                     :        0.004 s           0.004 s
  | Total energy evaluation                     :        0.000 s           0.000 s

  Partial memory accounting:
  | Current value for overall tracked memory usage:
  |   Minimum:        0.274 MB (on task 23)
  |   Maximum:        0.293 MB (on task  0)
  |   Average:        0.289 MB
  | Peak value for overall tracked memory usage:
  |   Minimum:        2.963 MB (on task 16 after allocating hessian_basis_wave)
  |   Maximum:        3.177 MB (on task  2 after allocating hessian_basis_wave)
  |   Average:        3.104 MB
  | Largest tracked array allocation so far:
  |   Minimum:        1.437 MB (hessian_basis_wave on task 16)
  |   Maximum:        1.566 MB (hessian_basis_wave on task  2)
  |   Average:        1.525 MB
  Note:  These values currently only include a subset of arrays which are explicitly tracked.
  The "true" memory usage will be greater.
------------------------------------------------------------
  Removing unitary transformations (pure translations, rotations) from forces on atoms.
  Atomic forces before filtering:
  | Net force on center of mass :  -0.246746E-02 -0.680353E-02 -0.547642E-02 eV/A
  | Net torque on center of mass:  -0.182789E-01  0.126261E-01 -0.109874E-01 eV
  Atomic forces after filtering:
  | Net force on center of mass :  -0.535218E-15  0.133805E-15 -0.178406E-15 eV/A
  | Net torque on center of mass:  -0.188817E-15 -0.283225E-14  0.708063E-16 eV

  Energy and forces in a compact form:
  | Total energy uncorrected      :         -0.442208334819449E+05 eV
  | Total energy corrected        :         -0.442208334819449E+05 eV  <-- do not rely on this value for anything but (periodic) metals
  | Electronic free energy        :         -0.442208334819449E+05 eV
  Total atomic forces (unitary forces cleaned) [eV/Ang]:
  |    1         -0.346844896969133E+00          0.211600828478709E+01          0.265286404887733E+01
  |    2          0.323732953748503E+01         -0.100668656574862E+01         -0.108202175767557E+01
  |    3         -0.278471788420796E+01         -0.994549235792983E+00         -0.193960655460522E+01
  |    4         -0.192593579371252E+01         -0.233550726908950E+01          0.841691460082329E+00
  |    5          0.174671820429396E+01         -0.225678046665464E+01          0.155148517557735E+01
  |    6         -0.101520424070427E+01          0.338897346957166E+01          0.163468153145718E+00
  |    7          0.605960797178972E+00          0.329682142658884E+01          0.408453113545940E+00
  |    8         -0.826945342515043E+00          0.231892554263013E+00         -0.672357082053714E+00
  |    9         -0.362554672926164E-01         -0.208902356459930E+00          0.938377660065786E+00
  |   10          0.484078257793251E+00          0.116498847565392E+01         -0.280852468484103E+01
  |   11         -0.745135513863654E-02         -0.357068333305098E+01          0.593211466746615E+00
  |   12          0.869268183788968E+00          0.174425015932127E+00         -0.647040998865529E+00

  ------------------------------------ 
  Start decomposition of the XC Energy 
  ------------------------------------ 
  X and C from original XC functional choice 
  Hartree-Fock Energy :          0.000000000 Ha              0.000000000 eV
  X Energy            :       -140.207894291 Ha          -3815.250921486 eV
  C Energy            :         -4.935324294 Ha           -134.297007000 eV
  Total XC Energy     :       -145.143218585 Ha          -3949.547928486 eV
  ------------------------------------ 
  LDA X and C from self-consistent density 
  X Energy LDA        :       -132.775064608 Ha          -3612.993335052 eV
  C Energy LDA        :         -8.823198903 Ha           -240.091457876 eV
  ------------------------------------ 
  End decomposition of the XC Energy 
  ------------------------------------ 

------------------------------------------------------------

------------------------------------------------------------------------------
  Final output of selected total energy values:

  The following output summarizes some interesting total energy values
  at the end of a run (AFTER all relaxation, molecular dynamics, etc.).

  | Total energy of the DFT / Hartree-Fock s.c.f. calculation      :         -44220.833481945 eV
  | Final zero-broadening corrected energy (caution - metals only) :         -44220.833481945 eV
  | For reference only, the value of 1 Hartree used in FHI-aims is :             27.211384500 eV

  Before relying on these values, please be sure to understand exactly which
  total energy value is referred to by a given number. Different objects may
  all carry the same name 'total energy'. Definitions:

  Total energy of the DFT / Hartree-Fock s.c.f. calculation:
  | Note that this energy does not include ANY quantities calculated after the
  | s.c.f. cycle, in particular not ANY RPA, MP2, etc. many-body perturbation terms.

  Final zero-broadening corrected energy:
  | For metallic systems only, a broadening of the occupation numbers at the Fermi
  | level can be extrapolated back to zero broadening by an electron-gas inspired
  | formula. For all systems that are not real metals, this value can be
  | meaningless and should be avoided.

------------------------------------------------------------------------------
  Methods described in the following list of references were used in this FHI-aims run.
  If you publish the results, please make sure to cite these reference if they apply.
  FHI-aims is an academic code, and for our developers (often, Ph.D. students
  and postdocs), scientific credit in the community is essential.
  Thank you for helping us!

  For any use of FHI-aims, please cite:

    Volker Blum, Ralf Gehrke, Felix Hanke, Paula Havu, Ville Havu,
    Xinguo Ren, Karsten Reuter, and Matthias Scheffler
    'Ab initio molecular simulations with numeric atom-centered orbitals'
    Computer Physics Communications 180, 2175-2196 (2009)
    http://dx.doi.org/10.1016/j.cpc.2009.06.022


  The ELSI infrastructure was used in your run to solve the Kohn-Sham electronic structure.
  Please check out http://elsi-interchange.org to learn more.
  If scalability is important for your project, please acknowledge ELSI by citing:

    V. W-z. Yu, F. Corsetti, A. Garcia, W. P. Huhn, M. Jacquelin, W. Jia,
    B. Lange, L. Lin, J. Lu, W. Mi, A. Seifitokaldani, A. Vazquez-Mayagoitia,
    C. Yang, H. Yang, and V. Blum
    'ELSI: A unified software interface for Kohn-Sham electronic structure solvers'
    Computer Physics Communications 222, 267-285 (2018).
    http://dx.doi.org/10.1016/j.cpc.2017.09.007


  For the real-space grid partitioning and parallelization used in this calculation, please cite:

    Ville Havu, Volker Blum, Paula Havu, and Matthias Scheffler,
    'Efficient O(N) integration for all-electron electronic structure calculation'
    'using numerically tabulated basis functions'
    Journal of Computational Physics 228, 8367-8379 (2009).
    http://dx.doi.org/10.1016/j.jcp.2009.08.008

  Of course, there are many other important community references, e.g., those cited in the
  above references. Our list is limited to references that describe implementations in the
  FHI-aims code. The reason is purely practical (length of this list) - please credit others as well.

------------------------------------------------------------
          Leaving FHI-aims.
          Date     :  20220517, Time     :  114604.947

          Computational steps:
          | Number of self-consistency cycles          :           13
          | Number of SCF (re)initializations          :            1

          Detailed time accounting                     :  max(cpu_time)    wall_clock(cpu1)
          | Total time                                  :        1.852 s           1.913 s
          | Preparation time                            :        0.184 s           0.184 s
          | Boundary condition initalization            :        0.000 s           0.001 s
          | Grid partitioning                           :        0.035 s           0.035 s
          | Preloading free-atom quantities on grid     :        0.016 s           0.017 s
          | Free-atom superposition energy              :        0.005 s           0.005 s
          | Total time for integrations                 :        0.446 s           0.446 s
          | Total time for solution of K.-S. equations  :        0.065 s           0.064 s
          | Total time for density & force components   :        0.632 s           0.630 s
          | Total time for mixing                       :        0.052 s           0.030 s
          | Total time for Hartree multipole update     :        0.017 s           0.019 s
          | Total time for Hartree multipole sum        :        0.281 s           0.277 s
          | Total time for total energy evaluation      :        0.002 s           0.003 s
          | Total time NSC force correction             :        0.063 s           0.064 s
          | Total time for scaled ZORA corrections      :        0.000 s           0.000 s

          Partial memory accounting:
          | Residual value for overall tracked memory usage across tasks:     0.000000 MB (should be 0.000000 MB)
          | Peak values for overall tracked memory usage:
          |   Minimum:        2.963 MB (on task 16 after allocating hessian_basis_wave)
          |   Maximum:        3.177 MB (on task  2 after allocating hessian_basis_wave)
          |   Average:        3.104 MB
          | Largest tracked array allocation:
          |   Minimum:        1.437 MB (hessian_basis_wave on task 16)
          |   Maximum:        1.566 MB (hessian_basis_wave on task  2)
          |   Average:        1.525 MB
          Note:  These values currently only include a subset of arrays which are explicitly tracked.
          The "true" memory usage will be greater.

          Have a nice day.
------------------------------------------------------------
