********************************************************************************
*                       GENERAL UTILITY LATTICE PROGRAM                        *
*                                 Julian Gale                                  *
*                       Curtin Institute for Computation                       *
*                           Department of Chemistry                            *
*                    Curtin University, Western Australia                      *
********************************************************************************
* Version = 5.1.1 * Last modified =  24th November 2018                        *
********************************************************************************
*  optimise     - perform optimisation run                                     *
*  conp         - constant pressure calculation                                *
*  shell        - only shells and radii to be optimised                        *
*  phonon       - calculate phonons for final geometry                         *
*  eigenvectors - output phonon eigenvectors                                   *
********************************************************************************

  Job Started  at 14:40.11 25th May        2022                               

  Number of CPUs =     1

  Host name      = login03                                 


  Total number of configurations input =      1

********************************************************************************
*  Input for Configuration =   1                                               *
********************************************************************************

  Formula = Al3F9                                                       

  Number of irreducible atoms/shells =      21


  Total number atoms/shells =      21

  Dimensionality = 0               :  Cluster


  Charge on cluster =  -0.000000


  Initial cluster dipoles : x =     -1.636077 e.Angs
                            y =     -1.037028 e.Angs
                            z =      1.864799 e.Angs

  Temperature of configuration =  0.000     K 

  Symmetry number =      1

  Cartesian coordinates of cluster :

--------------------------------------------------------------------------------
   No.  Atomic       x           y          z         Charge      Occupancy
        Label      (Angs)      (Angs)     (Angs)        (e)         (Frac)  
--------------------------------------------------------------------------------
      1 Al    c     -2.0520      2.4879     -0.8447     3.00000    1.000000    
      2 Al    c     -0.5535     -0.1005     -2.3226     3.00000    1.000000    
      3 Al    c     -2.2412     -0.2509     -0.4718     3.00000    1.000000    
      4 F     c     -0.7443      3.6884     -0.1762     0.59000    1.000000    
      5 F     c     -3.0043      3.1789     -2.3298     0.59000    1.000000    
      6 F     c     -1.3527     -1.6700     -1.7477     0.59000    1.000000    
      7 F     c     -2.3828      1.5954     -0.1683     0.59000    1.000000    
      8 F     c     -3.2465     -1.3180      0.6013     0.59000    1.000000    
      9 F     c      0.6196     -0.5013     -3.6406     0.59000    1.000000    
     10 F     c     -0.1080      1.8250     -2.5355     0.59000    1.000000    
     11 F     c     -2.4203      0.4814     -2.3421     0.59000    1.000000    
     12 F     c     -0.2645      0.1666     -0.4431     0.59000    1.000000    
     13 F     s     -0.7443 *    3.6884 *   -0.1762 *  -1.59000    1.000000    
     14 F     s     -3.0043 *    3.1789 *   -2.3298 *  -1.59000    1.000000    
     15 F     s     -1.3527 *   -1.6700 *   -1.7477 *  -1.59000    1.000000    
     16 F     s     -2.3828 *    1.5954 *   -0.1683 *  -1.59000    1.000000    
     17 F     s     -3.2465 *   -1.3180 *    0.6013 *  -1.59000    1.000000    
     18 F     s      0.6196 *   -0.5013 *   -3.6406 *  -1.59000    1.000000    
     19 F     s     -0.1080 *    1.8250 *   -2.5355 *  -1.59000    1.000000    
     20 F     s     -2.4203 *    0.4814 *   -2.3421 *  -1.59000    1.000000    
     21 F     s     -0.2645 *    0.1666 *   -0.4431 *  -1.59000    1.000000    
--------------------------------------------------------------------------------


  Brillouin zone sampling points :

--------------------------------------------------------------------------------
  Point number          x          y          z            Weight
--------------------------------------------------------------------------------
        1           0.000000   0.000000   0.000000     1.00000000
--------------------------------------------------------------------------------


********************************************************************************
*  General input information                                                   *
********************************************************************************

  Species output for all configurations : 

--------------------------------------------------------------------------------
  Species    Type    Atomic    Atomic    Charge       Radii (Angs)     Library
                     Number     Mass       (e)     Cova   Ionic  VDW   Symbol
--------------------------------------------------------------------------------
    Al       Core       13      26.98   3.000000   1.350  0.000  2.050          
    F        Core        9      19.00   0.590000   0.710  0.000  1.300          
    F        Shell       9       0.00  -1.590000   0.710  0.000  1.300          
--------------------------------------------------------------------------------


  Accuracy factor for short range sums = 12.000

  Time limit = Infinity

  Maximum range for interatomic potentials =    100000.000000 Angstroms

  General interatomic potentials :

--------------------------------------------------------------------------------
Atom  Types   Potential      Parameter       Value         Units   Cutoffs(Ang)
  1     2                                                            Min /  Max 
--------------------------------------------------------------------------------
Al   c F    s Buckingham    Buckingham A     3760.0008    eV        0.000 10.000
                            Buckingham rho  0.22200000    Ang       
                            Buckingham C     0.0000000    eV*Ang^6  
--------------------------------------------------------------------------------
F    s F    s Buck 4 range  Buck4 A          1127.7000    eV        0.000 12.000
                            Buck4 rho       0.27530000    Ang       
                            Buck4 C          15.830000    eV*Ang^6  
                            Buck4 minimum    2.7900000    Ang       
--------------------------------------------------------------------------------
F    c F    s Spring (c-s)  Spring k 2       20.770000    eV*Ang^-2 0.000  0.800
                            Spring k 4       0.0000000    eV*Ang^-4 
--------------------------------------------------------------------------------

********************************************************************************
*  Output for configuration   1                                                *
********************************************************************************


  Components of energy : 

--------------------------------------------------------------------------------
  Interatomic potentials     =          27.62671974 eV    
  Monopole - monopole (real) =        -181.89132254 eV    
--------------------------------------------------------------------------------
  Total lattice energy       =        -154.26460281 eV    
--------------------------------------------------------------------------------
  Total lattice energy       =          -14884.1760 kJ/mol
--------------------------------------------------------------------------------


  Number of variables =       27

  Maximum number of calculations  =          2000
  Maximum Hessian update interval =            10
  Maximum step size               =   1.000000000
  Maximum parameter tolerance     =   0.000001000
  Maximum function  tolerance     =   0.000010000
  Maximum gradient  tolerance     =   0.000000010
  Maximum gradient  component     =   0.010000000

  Symmetry not applied to optimisation

  Newton-Raphson optimiser to be used

  BFGS hessian update to be used

  Lower half triangular hessian to be used

  Minimiser to switch to RFO
  When gradient norm is less than     0.010000

  Shell only optimisation

  Start of cluster optimisation :

  Cycle:      0 Energy:      -154.264603  Gnorm:      2.381596  CPU:    0.004
  ** Hessian calculated **
  Cycle:      1 Energy:      -173.340893  Gnorm:      0.838932  CPU:    0.005
  ** Hessian calculated **
  Cycle:      2 Energy:      -178.082409  Gnorm:      0.297687  CPU:    0.007
  Cycle:      3 Energy:      -178.525702  Gnorm:      0.101294  CPU:    0.008
  Cycle:      4 Energy:      -178.594255  Gnorm:      0.029327  CPU:    0.010
  Cycle:      5 Energy:      -178.597742  Gnorm:      0.006575  CPU:    0.011
  ** Hessian has required structure
  Cycle:      6 Energy:      -178.598082  Gnorm:      0.003491  CPU:    0.013
  ** Hessian has required structure
  Cycle:      7 Energy:      -178.598125  Gnorm:      0.002525  CPU:    0.014
  ** Hessian has required structure
  Cycle:      8 Energy:      -178.598139  Gnorm:      0.002531  CPU:    0.015
  ** Hessian has required structure
  Cycle:      9 Energy:      -178.598144  Gnorm:      0.002228  CPU:    0.017
  ** Hessian has required structure
  Cycle:     10 Energy:      -178.598145  Gnorm:      0.002242  CPU:    0.018
  ** Hessian has required structure
  Cycle:     11 Energy:      -178.598145  Gnorm:      0.002227  CPU:    0.019
  ** Hessian has required structure
  Cycle:     12 Energy:      -178.598169  Gnorm:      0.000001  CPU:    0.021
  ** Hessian has required structure

  XYZ File written as 005/5/sp_mod_70/sp_mod_70_eig.xyz



  **** Optimisation achieved ****


  Final energy =    -178.59816918 eV
  Final Gnorm  =       0.00000000

  Components of energy : 

--------------------------------------------------------------------------------
  Interatomic potentials     =          42.85879200 eV    
  Monopole - monopole (real) =        -221.45696119 eV    
--------------------------------------------------------------------------------
  Total lattice energy       =        -178.59816918 eV    
--------------------------------------------------------------------------------
  Total lattice energy       =          -17231.9932 kJ/mol
--------------------------------------------------------------------------------

  Final cartesian coordinates of atoms :

--------------------------------------------------------------------------------
   No.  Atomic        x           y          z          Radius
        Label       (Angs)      (Angs)     (Angs)       (Angs) 
--------------------------------------------------------------------------------
     1  Al    c    -2.051998    2.487873   -0.844669    0.000000
     2  Al    c    -0.553488   -0.100521   -2.322596    0.000000
     3  Al    c    -2.241151   -0.250868   -0.471810    0.000000
     4  F     c    -0.744315    3.688392   -0.176195    0.000000
     5  F     c    -3.004256    3.178927   -2.329847    0.000000
     6  F     c    -1.352700   -1.669998   -1.747650    0.000000
     7  F     c    -2.382838    1.595375   -0.168344    0.000000
     8  F     c    -3.246479   -1.317961    0.601287    0.000000
     9  F     c     0.619644   -0.501256   -3.640577    0.000000
    10  F     c    -0.108041    1.825040   -2.535461    0.000000
    11  F     c    -2.420320    0.481406   -2.342122    0.000000
    12  F     c    -0.264531    0.166552   -0.443118    0.000000
    13  F     s    -0.993770    3.458350   -0.246127    0.000000
    14  F     s    -2.881561    3.042072   -2.039500    0.000000
    15  F     s    -1.365306   -1.416843   -1.694487    0.000000
    16  F     s    -2.452250    1.328665   -0.087413    0.000000
    17  F     s    -3.091651   -1.144439    0.430320    0.000000
    18  F     s     0.433726   -0.503436   -3.441302    0.000000
    19  F     s    -0.282879    1.589401   -2.405082    0.000000
    20  F     s    -2.275358    0.421063   -2.076348    0.000000
    21  F     s    -0.532702    0.124336   -0.571659    0.000000
--------------------------------------------------------------------------------


  Final Cartesian derivatives :

--------------------------------------------------------------------------------
   No.  Atomic          x             y             z           Radius
        Label       (eV/Angs)     (eV/Angs)    (eV/Angs)      (eV/Angs)
--------------------------------------------------------------------------------
      1 Al    c       0.000000      0.000000      0.000000      0.000000
      2 Al    c       0.000000      0.000000      0.000000      0.000000
      3 Al    c       0.000000      0.000000      0.000000      0.000000
      4 F     c       0.000000      0.000000      0.000000      0.000000
      5 F     c       0.000000      0.000000      0.000000      0.000000
      6 F     c       0.000000      0.000000      0.000000      0.000000
      7 F     c       0.000000      0.000000      0.000000      0.000000
      8 F     c       0.000000      0.000000      0.000000      0.000000
      9 F     c       0.000000      0.000000      0.000000      0.000000
     10 F     c       0.000000      0.000000      0.000000      0.000000
     11 F     c       0.000000      0.000000      0.000000      0.000000
     12 F     c       0.000000      0.000000      0.000000      0.000000
     13 F     s      -0.000000      0.000000     -0.000000      0.000000
     14 F     s       0.000000     -0.000000      0.000000      0.000000
     15 F     s       0.000000      0.000000     -0.000000      0.000000
     16 F     s      -0.000000      0.000000     -0.000000      0.000000
     17 F     s      -0.000000     -0.000000      0.000000      0.000000
     18 F     s       0.000000     -0.000000     -0.000000      0.000000
     19 F     s      -0.000000     -0.000000      0.000000      0.000000
     20 F     s      -0.000000      0.000000     -0.000000      0.000000
     21 F     s      -0.000000      0.000000      0.000000      0.000000
--------------------------------------------------------------------------------
  Maximum abs         0.000000      0.000000      0.000000      0.000000
--------------------------------------------------------------------------------


  Born effective charge tensors : 

-------------------------------------------------------------------------------
  Atom             x           y             z
-------------------------------------------------------------------------------
    1 Al    x       1.2932     -0.6630     -0.5028
            y      -0.5684      1.4312      0.7769
            z      -0.4805      0.8294      1.1064
-------------------------------------------------------------------------------
    2 Al    x       0.9367     -0.0129      0.2996
            y      -0.0591      0.7893     -0.1180
            z       0.2858     -0.1098      0.7841
-------------------------------------------------------------------------------
    3 Al    x       1.1200     -0.0444     -0.0372
            y      -0.1244      1.0586      0.0921
            z      -0.0411     -0.0073      1.2076
-------------------------------------------------------------------------------
    4 F     x      -0.2703      0.2082      0.1394
            y       0.2565     -0.3498      0.0885
            z       0.1661      0.0787     -0.4118
-------------------------------------------------------------------------------
    5 F     x      -0.3517     -0.0302      0.2375
            y      -0.0613     -0.5185     -0.1950
            z       0.1991     -0.1393     -0.2073
-------------------------------------------------------------------------------
    6 F     x      -0.3496      0.1241      0.0662
            y       0.2130     -0.3749     -0.1728
            z       0.0973     -0.1452     -0.4210
-------------------------------------------------------------------------------
    7 F     x      -0.3350      0.1295     -0.0658
            y       0.1315      0.1144     -0.2340
            z      -0.0675     -0.2032     -0.1782
-------------------------------------------------------------------------------
    8 F     x      -0.3517      0.2087     -0.1894
            y       0.1989     -0.2961     -0.1985
            z      -0.1911     -0.2319     -0.3415
-------------------------------------------------------------------------------
    9 F     x      -0.3061     -0.0518     -0.2603
            y      -0.0871     -0.4844      0.1105
            z      -0.2619      0.0816     -0.2494
-------------------------------------------------------------------------------
   10 F     x      -0.6115      0.0545      0.1885
            y       0.0552     -0.4525     -0.0321
            z       0.1862     -0.0319     -0.5611
-------------------------------------------------------------------------------
   11 F     x      -0.4110      0.0020      0.0535
            y       0.0341     -0.5052     -0.1244
            z       0.0819     -0.1269     -0.3582
-------------------------------------------------------------------------------
   12 F     x      -0.3629      0.0754      0.0706
            y       0.0112     -0.4121      0.0068
            z       0.0257      0.0058     -0.3696
-------------------------------------------------------------------------------




  Moment of inertia tensor (10^-46 x kgm^2): 

-------------------------------------------------------------------------------
                x           y           z           Principal axis system
-------------------------------------------------------------------------------
       x        170.98        6.34       29.18          114.168068
       y          6.34      116.52       -4.73          142.537489
       z         29.18       -4.73      167.87          198.662899
-------------------------------------------------------------------------------
  Centre of mass (Ang) =    -1.492162     0.790368    -1.353659
-------------------------------------------------------------------------------


  Vibrational Frequency Calculation : 

--------------------------------------------------------------------------------

  Frequencies (cm-1) and Eigenvectors : 

  Frequency    -531.7262 -501.1272 -169.8629  -54.5559  -15.1287   -0.0000
  IR Intensity    0.1149    0.0453    0.0194    0.0001    0.0033    0.0000
     in X         0.0566    0.0015    0.0089    0.0000    0.0009    0.0000
     in Y         0.0351    0.0205    0.0025    0.0000    0.0004    0.0000
     in Z         0.0233    0.0232    0.0080    0.0000    0.0020    0.0000
  Raman Intsty    0.0047    0.0050    0.0050    0.0011    0.0000    0.0000

     1 x      -0.561778 -0.123826 -0.293696  0.216655  0.187257  0.155292
     1 y       0.326138 -0.294795 -0.031153  0.026731  0.049887 -0.095855
     1 z       0.232079 -0.476760  0.153204  0.133839  0.105982  0.271635
     2 x       0.020551  0.019225  0.158209  0.017965 -0.210389  0.155292
     2 y       0.023534 -0.015847  0.016424 -0.071234 -0.068156 -0.095855
     2 z      -0.008867  0.020982 -0.056104  0.029705 -0.152466  0.271635
     3 x       0.084594  0.019187  0.059407 -0.232259  0.070230  0.155292
     3 y      -0.090982  0.090973  0.055297  0.034570  0.040980 -0.095855
     3 z      -0.051929  0.112319  0.008013 -0.171360  0.108897  0.271635
     4 x      -0.066799 -0.115944 -0.076508  0.226157  0.190927  0.130318
     4 y       0.015585 -0.104159 -0.115972 -0.029001  0.023664 -0.080439
     4 z      -0.005586 -0.113558  0.000273  0.113009  0.056013  0.227951
     5 x      -0.087922 -0.085193 -0.090306  0.167243  0.162831  0.130318
     5 y       0.032495  0.012446  0.037058  0.142872  0.020764 -0.080439
     5 z      -0.038378 -0.118785  0.053073  0.171409  0.076721  0.227951
     6 x      -0.006121 -0.031990 -0.044580 -0.372171 -0.002194  0.130318
     6 y      -0.000718  0.019480  0.115722  0.033726 -0.037987 -0.080439
     6 z      -0.011813 -0.018542  0.021662 -0.268298  0.184369  0.227951
     7 x       0.634121  0.379726 -0.344007  0.193638  0.164475  0.130318
     7 y      -0.272657  0.275929  0.045206  0.026493  0.046773 -0.080439
     7 z      -0.057295  0.596164  0.198121  0.129180  0.098508  0.227951
     8 x      -0.005442 -0.008645  0.056576 -0.348532  0.086599  0.130318
     8 y       0.013497  0.003195 -0.012834  0.072417  0.112916 -0.080439
     8 z      -0.006506 -0.007068 -0.031265 -0.245746  0.197365  0.227951
     9 x      -0.003609  0.001412 -0.000218 -0.037341 -0.582253  0.130318
     9 y      -0.024342  0.007964 -0.369631 -0.104332 -0.141173 -0.080439
     9 z      -0.003618 -0.002545 -0.029735 -0.006316 -0.458635  0.227951
    10 x       0.038111 -0.037204  0.450429  0.192538 -0.006343  0.130318
    10 y      -0.022409  0.004397 -0.173943 -0.087525 -0.088306 -0.080439
    10 z      -0.048678  0.000749 -0.390786  0.113884 -0.138878  0.227951
    11 x      -0.007904 -0.020057  0.145942  0.058416 -0.124239  0.130318
    11 y      -0.008217  0.055979  0.241629  0.265446 -0.065745 -0.080439
    11 z      -0.011259  0.078718  0.072489 -0.028319  0.056264  0.227951
    12 x       0.049706  0.019678 -0.006668 -0.082761  0.054071  0.130318
    12 y      -0.041499 -0.013464  0.184423 -0.308259  0.102031 -0.080439
    12 z      -0.020975 -0.005854 -0.019091  0.030510 -0.146100  0.227951


  Frequency       0.0000    0.0000   35.2170   71.3788   85.4440  134.4957
  IR Intensity    0.0000    0.0000    0.0027    0.0010    0.0120    0.0071
     in X         0.0000    0.0000    0.0005    0.0000    0.0061    0.0041
     in Y         0.0000    0.0000    0.0022    0.0004    0.0000    0.0028
     in Z         0.0000    0.0000    0.0000    0.0005    0.0059    0.0002
  Raman Intsty    0.0000    0.0000    0.0127    0.0014    0.0003    0.0401

     1 x      -0.068319 -0.279832 -0.082501 -0.090468  0.067886  0.015614
     1 y      -0.312045  0.022990 -0.165726  0.052268  0.002720 -0.068987
     1 z      -0.071057  0.168091  0.167967 -0.203749  0.061403 -0.081958
     2 x      -0.068319 -0.279832  0.031992  0.053043 -0.198647  0.025881
     2 y      -0.312045  0.022990  0.206913 -0.071175  0.006966  0.098324
     2 z      -0.071057  0.168091 -0.109057  0.112441 -0.184446  0.093213
     3 x      -0.068319 -0.279832  0.102718  0.071035 -0.026453  0.072333
     3 y      -0.312045  0.022990 -0.118505  0.015522  0.007073 -0.074568
     3 z      -0.071057  0.168091 -0.045654  0.102629 -0.018727  0.072863
     4 x      -0.057332 -0.234830 -0.057954 -0.115569  0.206919  0.438683
     4 y      -0.261863  0.019293 -0.179445  0.091816 -0.130354 -0.282312
     4 z      -0.059630  0.141059  0.189804 -0.179513  0.004170 -0.502110
     5 x      -0.057332 -0.234830 -0.118435 -0.071527 -0.023803 -0.435939
     5 y      -0.261863  0.019293 -0.013990  0.074826  0.146281  0.077911
     5 z      -0.059630  0.141059  0.230132 -0.167203  0.176249  0.288286
     6 x      -0.057332 -0.234830  0.073866 -0.301395 -0.261279  0.020042
     6 y      -0.261863  0.019293  0.076039  0.019872  0.037797  0.074039
     6 z      -0.059630  0.141059 -0.313799 -0.157818 -0.204441  0.152705
     7 x      -0.057332 -0.234830 -0.106668 -0.105141  0.055158  0.014820
     7 y      -0.261863  0.019293 -0.117680  0.011976 -0.003861 -0.100984
     7 z      -0.059630  0.141059  0.170800 -0.248874  0.042508 -0.146324
     8 x      -0.057332 -0.234830  0.224344  0.312850  0.382661 -0.190420
     8 y      -0.261863  0.019293 -0.324692  0.072110 -0.037765  0.062258
     8 z      -0.059630  0.141059 -0.134787  0.382895  0.320861 -0.040997
     9 x      -0.057332 -0.234830 -0.139065 -0.181874  0.293556 -0.098099
     9 y      -0.261863  0.019293  0.407062 -0.018722 -0.092336  0.002280
     9 z      -0.059630  0.141059 -0.319637 -0.116919  0.286302  0.007727
    10 x      -0.057332 -0.234830 -0.011536  0.175147 -0.286363 -0.034020
    10 y      -0.261863  0.019293  0.186932 -0.059965  0.015200  0.093533
    10 z      -0.059630  0.141059  0.128162  0.262205 -0.297650  0.025896
    11 x      -0.057332 -0.234830  0.014372  0.136537 -0.186526  0.059751
    11 y      -0.261863  0.019293  0.142841  0.186887  0.088552  0.072005
    11 z      -0.059630  0.141059  0.079015  0.086843  0.047444  0.047784
    12 x      -0.057332 -0.234830  0.058862  0.110921  0.007019  0.089541
    12 y      -0.261863  0.019293 -0.084932 -0.374767 -0.043485  0.055171
    12 z      -0.059630  0.141059 -0.045487  0.124894 -0.206503  0.066795


  Frequency     151.4317  175.0368  187.2108  189.4598  209.1163  255.3020
  IR Intensity    0.0168    0.0106    0.0061    0.0365    0.0636    0.0803
     in X         0.0006    0.0077    0.0051    0.0084    0.0209    0.0003
     in Y         0.0110    0.0016    0.0007    0.0177    0.0091    0.0798
     in Z         0.0052    0.0013    0.0003    0.0103    0.0336    0.0002
  Raman Intsty    0.1360    0.0006    0.0527    0.0564    0.0099    0.0127

     1 x       0.052703 -0.050581  0.177411  0.161220  0.116593  0.098082
     1 y       0.177405 -0.010868 -0.034607 -0.215057 -0.046964 -0.230165
     1 z       0.170208 -0.031738 -0.000994  0.052704 -0.218619 -0.033999
     2 x       0.029903 -0.098101 -0.120703  0.013456  0.095094  0.057565
     2 y      -0.248283 -0.025529  0.121770  0.170510 -0.075800 -0.064152
     2 z      -0.109068 -0.144128  0.031058 -0.069250  0.011266  0.062812
     3 x       0.038103  0.390073  0.081450  0.010825  0.034180 -0.135317
     3 y       0.179570 -0.023527 -0.054313 -0.181188 -0.021570 -0.239481
     3 z       0.020090  0.294243  0.087628 -0.144797 -0.158886  0.024096
     4 x      -0.027908 -0.120456 -0.147259 -0.178532 -0.262557 -0.252357
     4 y       0.452186 -0.033276  0.413401  0.143025  0.005232  0.262491
     4 z      -0.216662  0.164805 -0.178830  0.063184  0.424483 -0.219775
     5 x      -0.388935  0.067391  0.017603 -0.162062 -0.360773  0.176997
     5 y      -0.142751  0.106226 -0.151917 -0.553727  0.400923  0.373172
     5 z       0.297429 -0.045766  0.030217  0.080595  0.313575  0.194924
     6 x       0.119953 -0.018190 -0.175571 -0.100259  0.026700  0.006876
     6 y      -0.195646 -0.021930  0.135698  0.123097 -0.027061 -0.049853
     6 z      -0.140991 -0.027645  0.116386 -0.049238  0.150041  0.103478
     7 x      -0.046410 -0.137517  0.121980  0.090120  0.094371  0.089988
     7 y       0.199156 -0.016553 -0.058321 -0.169675  0.011126 -0.211553
     7 z       0.187774 -0.092403 -0.066054  0.053694 -0.133834 -0.041893
     8 x       0.054132 -0.364380  0.106005 -0.155009  0.085814 -0.142215
     8 y       0.049121  0.217299 -0.474884  0.403910  0.042159 -0.081074
     8 z      -0.086628 -0.166552 -0.315055  0.299022 -0.035966  0.199920
     9 x       0.140184  0.082693 -0.132670  0.031670 -0.041309  0.055278
     9 y       0.081966  0.023417 -0.313289 -0.017052 -0.271767  0.355561
     9 z      -0.106881  0.006450  0.158490  0.019711 -0.033015 -0.074907
    10 x       0.011334 -0.209481 -0.082734  0.080768 -0.079259  0.078066
    10 y      -0.203339  0.001161  0.126790  0.167987  0.037485 -0.127491
    10 z      -0.019309 -0.179330  0.008675 -0.039102  0.075121 -0.361824
    11 x      -0.017255  0.016054 -0.011655  0.082532  0.136600  0.077101
    11 y      -0.168590  0.069214  0.212906  0.116027 -0.043250  0.075388
    11 z       0.040421  0.309087  0.123603 -0.107489 -0.262171  0.086318
    12 x       0.011064  0.396234  0.139666  0.089722  0.107430 -0.113960
    12 y      -0.201628 -0.274150  0.070471  0.055401  0.017148  0.039452
    12 z      -0.051950 -0.109710 -0.017677 -0.128115 -0.061809  0.050710


  Frequency     259.7660  264.2685  296.8434  307.2713  317.2744  388.6142
  IR Intensity    0.0014    0.0108    0.0093    0.0319    0.0110    0.0386
     in X         0.0000    0.0013    0.0013    0.0208    0.0025    0.0174
     in Y         0.0010    0.0060    0.0058    0.0067    0.0015    0.0031
     in Z         0.0004    0.0035    0.0023    0.0044    0.0069    0.0181
  Raman Intsty    0.0160    0.0034    0.2751    0.0060    0.0098    0.0244

     1 x      -0.096589 -0.020597 -0.168349  0.019292  0.005221 -0.037510
     1 y      -0.117860  0.055134 -0.056995  0.027135 -0.006930  0.048536
     1 z       0.115616  0.068489  0.190637 -0.046148 -0.028827  0.034693
     2 x       0.021796  0.263298 -0.013921 -0.258620 -0.135735 -0.328249
     2 y       0.191041  0.055304 -0.149770  0.220566 -0.154917  0.036137
     2 z      -0.094577  0.222581 -0.055076 -0.150542 -0.171317  0.070329
     3 x       0.064501 -0.149264  0.068225 -0.101586 -0.063308  0.124882
     3 y      -0.139775  0.045436 -0.016653 -0.011920  0.024482 -0.046292
     3 z      -0.074436 -0.151904 -0.241073 -0.040868  0.007659  0.138560
     4 x      -0.100434  0.048646 -0.017887  0.015034 -0.003612  0.036548
     4 y       0.127169  0.021471 -0.012068 -0.015246 -0.033379  0.013368
     4 z      -0.304870  0.003404 -0.214645  0.034693  0.022636 -0.023526
     5 x       0.240975  0.048431  0.206697 -0.053740 -0.031767  0.020954
     5 y       0.309876 -0.110261  0.040945  0.005778 -0.044810  0.036625
     5 z       0.097037 -0.051039  0.006692 -0.022117 -0.040450 -0.007276
     6 x       0.297287  0.204539 -0.223599  0.325149  0.392506 -0.008274
     6 y      -0.000287  0.014282  0.005660  0.063460 -0.260490 -0.431385
     6 z      -0.280889 -0.027032  0.475026  0.368955  0.016092 -0.213712
     7 x      -0.117214 -0.027193 -0.172026 -0.001001  0.061589 -0.034492
     7 y      -0.074864  0.050007 -0.030087  0.066086 -0.058056  0.075913
     7 z       0.176263  0.073773  0.247265  0.017200 -0.096205  0.097531
     8 x      -0.066551  0.062773  0.123507  0.029254 -0.011998 -0.035222
     8 y       0.157064  0.032864  0.097730 -0.074888  0.029165 -0.046492
     8 z       0.100268  0.027038 -0.093519  0.030204  0.061707  0.021432
     9 x      -0.035522 -0.161552  0.088613 -0.011183  0.083244 -0.275519
     9 y      -0.409133 -0.150912  0.140630  0.050289 -0.095477  0.107575
     9 z       0.036240 -0.092948 -0.044903  0.154640 -0.030023  0.335666
    10 x      -0.040546 -0.503524 -0.229881  0.338892 -0.147824  0.089744
    10 y       0.195334  0.142987 -0.066785  0.112317 -0.119101  0.155174
    10 z       0.291285 -0.391298  0.220830 -0.123311  0.236369 -0.117100
    11 x      -0.144032  0.237603  0.146360 -0.194226  0.151440  0.471212
    11 y      -0.166968  0.117263  0.154784  0.097279  0.634983 -0.025789
    11 z      -0.015870 -0.020148 -0.304329 -0.143911  0.195400 -0.334101
    12 x      -0.021700 -0.021065  0.214116 -0.041932 -0.262613  0.022088
    12 y      -0.058834 -0.303446 -0.064577 -0.586042  0.110854  0.069276
    12 z      -0.035834  0.312415 -0.166684 -0.033270 -0.136155 -0.049175


  Frequency     403.5193  418.2346  462.8170  495.4979  542.3180  556.6932
  IR Intensity    0.0048    0.0164    0.0151    0.0036    0.0336    0.0775
     in X         0.0021    0.0103    0.0058    0.0000    0.0001    0.0514
     in Y         0.0007    0.0003    0.0035    0.0026    0.0057    0.0051
     in Z         0.0020    0.0058    0.0059    0.0010    0.0278    0.0211
  Raman Intsty    0.0524    0.2880    0.1728    5.3854    0.1522    0.0034

     1 x       0.038179 -0.042981  0.013453  0.025359  0.011641 -0.009331
     1 y      -0.078829  0.081604 -0.052753 -0.054740 -0.012087 -0.034465
     1 z      -0.028586  0.004314 -0.012399 -0.019502 -0.006730 -0.000163
     2 x      -0.055305  0.213725  0.038993 -0.038946 -0.116902  0.332749
     2 y      -0.001424 -0.046511 -0.068637  0.112818  0.136370 -0.003504
     2 z       0.239257  0.275963  0.019213  0.073725 -0.150693  0.291749
     3 x       0.086644 -0.383251  0.118240 -0.019391  0.052423  0.378992
     3 y      -0.006645 -0.005775  0.021639  0.071491 -0.387488 -0.170795
     3 z      -0.253197 -0.163464 -0.167006 -0.102584 -0.337854  0.182967
     4 x      -0.060870  0.047983 -0.063249 -0.093781  0.330380  0.202812
     4 y      -0.021741  0.006243 -0.046819 -0.065940  0.289863  0.192919
     4 z      -0.011934  0.011659 -0.032198 -0.039307  0.179026  0.108885
     5 x       0.009708 -0.037210  0.027159  0.040285 -0.266032 -0.087505
     5 y      -0.012925  0.026826  0.002587 -0.013058  0.188869  0.045159
     5 z       0.035849 -0.086562  0.043234  0.076244 -0.381070 -0.137786
     6 x       0.140580  0.073415 -0.219164  0.094515 -0.050941 -0.039253
     6 y      -0.179080 -0.205590 -0.408809  0.339105 -0.021749  0.002096
     6 z      -0.144117  0.010593  0.177764 -0.012445  0.061756  0.003408
     7 x      -0.006081 -0.054357  0.010830  0.032467 -0.082274 -0.065368
     7 y      -0.062407  0.079862 -0.066413 -0.060388  0.003537 -0.036096
     7 z      -0.012470  0.010819 -0.024889 -0.048240  0.186444  0.060253
     8 x       0.173101 -0.098238  0.248750  0.197722 -0.014410 -0.036889
     8 y       0.226328 -0.146149  0.278338  0.212087 -0.007020 -0.003652
     8 z      -0.171197  0.131865 -0.262430 -0.200824  0.036663 -0.007283
     9 x      -0.225387 -0.090181  0.015922 -0.261407  0.002571 -0.090691
     9 y       0.115903  0.022731 -0.007604  0.095230  0.018831  0.032390
     9 z       0.241892  0.064996 -0.023116  0.294223  0.025020  0.049959
    10 x       0.039574  0.078866  0.138326 -0.061750 -0.018469 -0.066554
    10 y      -0.311657  0.178869  0.475202 -0.334343 -0.135617 -0.030945
    10 z      -0.064516  0.004250 -0.085668  0.034891  0.043737 -0.037091
    11 x      -0.465018 -0.055444 -0.067318  0.314436  0.133347 -0.258571
    11 y       0.230461 -0.013671 -0.068650 -0.219949 -0.083701  0.149950
    11 z      -0.060904  0.262512  0.353982  0.286426  0.261959 -0.241801
    12 x       0.311554  0.388398 -0.294651 -0.223189  0.028793 -0.395000
    12 y       0.118668  0.015942 -0.038965 -0.107144  0.060634 -0.103051
    12 z       0.238073 -0.549330  0.044212 -0.333339  0.176655 -0.364039


  Frequency     651.0257  692.3061  719.9889  804.4218  913.9277 1136.6821
  IR Intensity    0.0235    0.0331    0.0128    0.0282    0.0042    0.0013
     in X         0.0056    0.0010    0.0079    0.0088    0.0009    0.0000
     in Y         0.0134    0.0268    0.0014    0.0061    0.0007    0.0011
     in Z         0.0045    0.0053    0.0035    0.0133    0.0026    0.0003
  Raman Intsty    0.0369    0.0373    0.0003    0.0190    1.4338    0.0809

     1 x       0.013086 -0.056163  0.457300 -0.005313 -0.006614  0.176319
     1 y      -0.265962  0.160930  0.155893 -0.110623  0.032683  0.590539
     1 z       0.119109 -0.071208  0.400166 -0.013236  0.058346 -0.392764
     2 x      -0.101377  0.000323  0.042503  0.377284  0.381964  0.037059
     2 y      -0.422618 -0.592705 -0.021606  0.061633  0.011760  0.000257
     2 z       0.001438 -0.101876  0.011192 -0.438914 -0.430659 -0.035258
     3 x      -0.204924  0.209292  0.108067  0.145550 -0.352364 -0.051441
     3 y       0.243886 -0.255403 -0.021354  0.475353 -0.393359 -0.092404
     3 z       0.209284 -0.249729 -0.026185 -0.167853  0.390054  0.069927
     4 x       0.143252 -0.025037 -0.389097  0.026918 -0.008854 -0.054811
     4 y       0.151522 -0.044572 -0.343982  0.035751 -0.010376 -0.064851
     4 z       0.058864 -0.012456 -0.210651  0.021636 -0.006653 -0.015252
     5 x      -0.161949  0.086287 -0.261145 -0.009103 -0.007609  0.039749
     5 y       0.144994 -0.067050  0.163686  0.007704 -0.001037 -0.046441
     5 z      -0.274776  0.134187 -0.382353 -0.010748 -0.012562  0.081594
     6 x       0.125292  0.105153 -0.016525 -0.080994 -0.042285 -0.002551
     6 y       0.246923  0.341727  0.018593 -0.147779 -0.067282  0.000302
     6 z      -0.084139 -0.050528 -0.006378  0.070273  0.030344  0.000308
     7 x      -0.015177 -0.020646  0.094602 -0.001614  0.032419 -0.183607
     7 y      -0.426054  0.252117  0.059171 -0.205789  0.186766 -0.509891
     7 z       0.086813 -0.017565  0.110231  0.000842 -0.051963  0.366316
     8 x       0.122332 -0.102024 -0.046789 -0.191028  0.174485  0.018365
     8 y       0.137046 -0.095029 -0.047626 -0.200477  0.185082  0.010955
     8 z      -0.125557  0.108864  0.042797  0.206428 -0.187188 -0.021920
     9 x      -0.041567 -0.183963 -0.020264 -0.260755 -0.167657 -0.008549
     9 y       0.022323  0.087632  0.004835  0.081314  0.058862  0.000541
     9 z       0.050571  0.210968  0.018288  0.293341  0.189253  0.008699
    10 x       0.065791  0.050124 -0.015417 -0.037261 -0.035717 -0.000162
    10 y       0.244974  0.257774 -0.001125 -0.030079 -0.009018 -0.008057
    10 z      -0.035544 -0.016395 -0.016083  0.039358  0.034966  0.001395
    11 x       0.011820 -0.041582 -0.027675 -0.040900 -0.040633 -0.004465
    11 y       0.000372  0.044615  0.019618 -0.030061  0.044891  0.014386
    11 z      -0.087506  0.075131 -0.002910  0.037506 -0.070480  0.002689
    12 x       0.099612 -0.051172 -0.042050 -0.021960  0.068459  0.003062
    12 y       0.007813  0.041652 -0.007746 -0.018656  0.027893  0.009153
    12 z       0.018236  0.071635 -0.011927  0.080181  0.053142  0.002889




--------------------------------------------------------------------------------
  Vibrational properties (for cluster):  Temperature  =       0.000 K
--------------------------------------------------------------------------------
  Zero point energy            =        0.689702 eV
--------------------------------------------------------------------------------

  Phonon density of states : 

--------------------------------------------------------------------------------
 Frequency (cm-1) Density of States                                             
--------------------------------------------------------------------------------
    0.00000 |****************************************                      0.067
   17.76066 |********************                                          0.033
   35.52132 |                                                              0.000
   53.28198 |                                                              0.000
   71.04264 |****************************************                      0.067
   88.80330 |                                                              0.000
  106.56396 |                                                              0.000
  124.32462 |********************                                          0.033
  142.08528 |********************                                          0.033
  159.84593 |********************                                          0.033
  177.60659 |****************************************                      0.067
  195.36725 |********************                                          0.033
  213.12791 |                                                              0.000
  230.88857 |                                                              0.000
  248.64923 |************************************************************  0.100
  266.40989 |                                                              0.000
  284.17055 |********************                                          0.033
  301.93121 |****************************************                      0.067
  319.69187 |                                                              0.000
  337.45253 |                                                              0.000
  355.21319 |                                                              0.000
  372.97385 |********************                                          0.033
  390.73451 |********************                                          0.033
  408.49517 |********************                                          0.033
  426.25583 |                                                              0.000
  444.01649 |                                                              0.000
  461.77714 |********************                                          0.033
  479.53780 |********************                                          0.033
  497.29846 |                                                              0.000
  515.05912 |                                                              0.000
  532.81978 |********************                                          0.033
  550.58044 |********************                                          0.033
  568.34110 |                                                              0.000
  586.10176 |                                                              0.000
  603.86242 |                                                              0.000
  621.62308 |                                                              0.000
  639.38374 |********************                                          0.033
  657.14440 |                                                              0.000
  674.90506 |********************                                          0.033
  692.66572 |                                                              0.000
  710.42638 |********************                                          0.033
  728.18704 |                                                              0.000
  745.94769 |                                                              0.000
  763.70835 |                                                              0.000
  781.46901 |                                                              0.000
  799.22967 |********************                                          0.033
  816.99033 |                                                              0.000
  834.75099 |                                                              0.000
  852.51165 |                                                              0.000
  870.27231 |                                                              0.000
  888.03297 |                                                              0.000
  905.79363 |********************                                          0.033
  923.55429 |                                                              0.000
  941.31495 |                                                              0.000
  959.07561 |                                                              0.000
  976.83627 |                                                              0.000
  994.59693 |                                                              0.000
 1012.35759 |                                                              0.000
 1030.11825 |                                                              0.000
 1047.87890 |                                                              0.000
 1065.63956 |                                                              0.000
 1083.40022 |                                                              0.000
 1101.16088 |                                                              0.000
 1118.92154 |********************                                          0.033
--------------------------------------------------------------------------------



  Time to end of optimisation =       0.0308 seconds


  Peak dynamic memory used =       0.65 MB 


  Timing analysis for GULP :

--------------------------------------------------------------------------------
  Task / Subroutine                                          Time (Seconds)
--------------------------------------------------------------------------------
  Calculation of real space energy and derivatives                0.0020
  Calculation of phonons                                          0.0016
  Calculation and manipulation of Hessian matrix                  0.0012
--------------------------------------------------------------------------------
  Total CPU time                                                  0.0308
--------------------------------------------------------------------------------


  Job Finished at 14:40.11 25th May        2022                               

