12
Properties=species:S:1:pos:R:3:forces:R:3 energy=-187.20932606 pbc="F F F"
Al    0.30334049300000004    -0.567685158    1.773405439    -0.108417    -0.066348    0.282011
Al    2.397773565    -1.787297472    -0.5348224970000001    -0.063213    -0.031945    -0.116756
Al    -0.896981281    -1.8552784580000001    -1.0280518429999999    0.208534    0.085159    -0.128468
F    3.453342407    -0.6218145930000001    -1.49262438    0.211875    0.205677    -0.159308
F    -1.5610151540000001    -0.320291388    -1.8263992969999998    -0.154999    0.255017    -0.135876
F    2.878890995    -3.517876794    -0.00011834300000002074    0.036883    -0.30417    0.024819
F    -1.6093825659999998    -3.557330302    -1.20719372    -0.086296    -0.358763    -0.080832
F    1.9902961970000002    -0.870760993    1.028265802    0.268233    -0.011331    0.163382
F    0.868068664    -1.9439312819999999    -1.5943518650000001    -0.070126    -0.002412    -0.010019
F    0.342992452    -1.4464455630000002    3.400107489    0.000919    -0.039729    0.102155
F    -0.06794212899999999    1.242913999    1.5071862360000001    -0.061988    0.436246    -0.124353
F    -0.856859068    -1.623035583    0.804705614    -0.181405    -0.1674    0.183246
