------------------------------------------------------------
          Invoking FHI-aims ...

          When using FHI-aims, please cite the following reference:

            Volker Blum, Ralf Gehrke, Felix Hanke, Paula Havu,
            Ville Havu, Xinguo Ren, Karsten Reuter, and Matthias Scheffler,
            'Ab Initio Molecular Simulations with Numeric Atom-Centered Orbitals',
            Computer Physics Communications 180, 2175-2196 (2009)

          In addition, many other developments in FHI-aims are likely important for
          your particular application. A partial list of references is given at the end of
          this file. Thank you for giving credit to the authors of these developments.

          For any questions about FHI-aims, please visit our slack channel at

            https://fhi-aims.slack.com

          and our main development and support site at

            https://aims-git.rz-berlin.mpg.de .

          The latter site, in particular, has a wiki to collect information, as well
          as an issue tracker to log discussions, suggest improvements, and report issues
          or bugs. https://aims-git.rz-berlin.mpg.de is also the main development site
          of the project and all new and updated code versions can be obtained there.
          Please send an email to aims-coordinators@fhi-berlin.mpg.de and we will add
          you to these sites. They are for you and everyone is welcome there.

------------------------------------------------------------



  Date     :  20220517, Time     :  115004.191
  Time zero on CPU 1             :   0.397750000000000E-01  s.
  Internal wall clock time zero  :           422020204.191  s.

  FHI-aims created a unique identifier for this run for later identification
  aims_uuid : 4A5ED922-7397-4737-A008-8FFE995AEF41

  Build configuration of the current instance of FHI-aims
  -------------------------------------------------------
  FHI-aims version      : 210914
  Commit number         : GITDIR-NOTFOUND
  CMake host system     : Linux-3.10.0-693.17.1.el7.x86_64
  CMake version         : 3.21.1
  Fortran compiler      : /shared/ucl/apps/intel/2018.Update3/impi/2018.3.222/intel64/bin/mpiifort (Intel) version 18.0.3.20180410
  Fortran compiler flags: -O3 -ip -fp-model precise
  C compiler            : /shared/ucl/apps/intel/2018.Update3/compilers_and_libraries_2018.3.222/linux/bin/intel64/icc (Intel) version 18.0.3.20180410
  C compiler flags      : -O3 -ip -fp-model precise -std=gnu99
  ELPA2 kernel          : AVX2
  Using MPI
  Using ScaLAPACK
  Using LibXC
  Using i-PI
  Using RLSY
  Linking against: /shared/ucl/apps/intel/2019.Update5/compilers_and_libraries_2019.5.281/linux/mkl/lib/intel64/libmkl_intel_lp64.so
                   /shared/ucl/apps/intel/2019.Update5/compilers_and_libraries_2019.5.281/linux/mkl/lib/intel64/libmkl_sequential.so
                   /shared/ucl/apps/intel/2019.Update5/compilers_and_libraries_2019.5.281/linux/mkl/lib/intel64/libmkl_core.so
                   /shared/ucl/apps/intel/2019.Update5/compilers_and_libraries_2019.5.281/linux/mkl/lib/intel64/libmkl_blacs_intelmpi_lp64.so
                   /shared/ucl/apps/intel/2019.Update5/compilers_and_libraries_2019.5.281/linux/mkl/lib/intel64/libmkl_scalapack_lp64.so

  Using       24 parallel tasks.
  Task        0 on host node-k98a-019 reporting.
  Task        1 on host node-k98a-019 reporting.
  Task        2 on host node-k98a-019 reporting.
  Task        3 on host node-k98a-019 reporting.
  Task        4 on host node-k98a-019 reporting.
  Task        5 on host node-k98a-019 reporting.
  Task        6 on host node-k98a-019 reporting.
  Task        7 on host node-k98a-019 reporting.
  Task        8 on host node-k98a-019 reporting.
  Task        9 on host node-k98a-019 reporting.
  Task       10 on host node-k98a-019 reporting.
  Task       11 on host node-k98a-019 reporting.
  Task       12 on host node-k98a-019 reporting.
  Task       13 on host node-k98a-019 reporting.
  Task       14 on host node-k98a-019 reporting.
  Task       15 on host node-k98a-019 reporting.
  Task       16 on host node-k98a-019 reporting.
  Task       17 on host node-k98a-019 reporting.
  Task       18 on host node-k98a-019 reporting.
  Task       19 on host node-k98a-019 reporting.
  Task       20 on host node-k98a-019 reporting.
  Task       21 on host node-k98a-019 reporting.
  Task       22 on host node-k98a-019 reporting.
  Task       23 on host node-k98a-019 reporting.

  Performing system and environment tests:
  | Environment variable OMP_NUM_THREADS correctly set to 1.
  | Checking for ScaLAPACK...
  | Testing pdtran()...
  | All pdtran() tests passed.

  Obtaining array dimensions for all initial allocations:
  
  -----------------------------------------------------------------------
  Parsing control.in (first pass over file, find array dimensions only).
  The contents of control.in will be repeated verbatim below
  unless switched off by setting 'verbatim_writeout .false.' .
  in the first line of control.in .
  -----------------------------------------------------------------------
  
  #########################################################################################  Physical model
  #########################################################################################
  xc                 pbesol
  spin               none
  relativistic       atomic_zora scalar
  charge             0.0
  #  SCF convergence
  occupation_type    gaussian 0.01
  mixer              pulay
  n_max_pulay        10
  charge_mix_param   0.5
  sc_accuracy_rho    1E-5
  sc_accuracy_eev    1E-3
  sc_accuracy_etot   1E-6
  sc_accuracy_forces 1E-4
  sc_iter_limit      1500
  #  Relaxation
  #relax_geometry   bfgs 1.e-3
  
  ################################################################################
  #
  #  FHI-aims code project
  #  VB, Fritz-Haber Institut, 2009
  #
  #  Suggested "light" defaults for Al atom (to be pasted into control.in file)
  #  Be sure to double-check any results obtained with these settings for post-processing,
  #  e.g., with the "tight" defaults and larger basis sets.
  #
  ################################################################################
    species        Al
  #     global species definitions
      nucleus             13
      mass                26.9815386
  #
      l_hartree           4
  #
      cut_pot             3.5          1.5  1.0
      basis_dep_cutoff    1e-4
  #
      radial_base         41 5.0
      radial_multiplier   1
      angular_grids       specified
        division   0.6594  110
        division   0.8170  194
        division   0.9059  302
  #      division   1.0363  434
  #      division   1.1443  590
  #      division   1.2621  770
  #      division   2.8177  974
  #      outer_grid   974
        outer_grid   302
  ################################################################################
  #
  #  Definition of "minimal" basis
  #
  ################################################################################
  #     valence basis states
      valence      3  s   2.
      valence      3  p   1.
  #     ion occupancy
      ion_occ      3  s   1.
      ion_occ      2  p   6.
  ################################################################################
  #
  #  Suggested additional basis functions. For production calculations,
  #  uncomment them one after another (the most important basis functions are
  #  listed first).
  #
  #  Constructed for dimers: 2.0 A, 2.5 A, 3.0 A, 3.75 A, 4.5 A
  #
  ################################################################################
  #  "First tier" - improvements: -199.47 meV to -10.63 meV
       ionic 3 d auto
       ionic 3 p auto
  #     hydro 4 f 4.7
       ionic 3 s auto
  #  "Second tier" - improvements: -5.35 meV to -1.57 meV
  #     hydro 5 g 7
  #     hydro 3 d 6
  #     hydro 2 s 11.6
  #     hydro 2 p 0.9
  #  "Third tier" - improvements: -0.63 meV to -0.20 meV
  #     hydro 5 f 7.6
  #     hydro 4 p 7.2
  #     hydro 4 s 3.7
  #     hydro 4 d 7.6
  #  "Fourth tier" - improvements: -0.17 meV to -0.08 meV
  #     hydro 4 d 13.6
  #     hydro 5 g 11.2
  #     hydro 4 d 0.9
  #     hydro 1 s 0.4
  #     hydro 4 p 0.1
  #     hydro 5 f 9.8
  #  Further basis functions that fell out of the optimization - noise level...
  #     hydro 4 p 5
  
  ################################################################################
  #
  #  FHI-aims code project
  #  VB, Fritz-Haber Institut, 2009
  #
  #  Suggested "light" defaults for F atom (to be pasted into control.in file)
  #  Be sure to double-check any results obtained with these settings for post-processing,
  #  e.g., with the "tight" defaults and larger basis sets.
  #
  ################################################################################
    species        F
  #     global species definitions
      nucleus             9
      mass                18.9984032
  #
      l_hartree           4
  #
      cut_pot             3.5  1.5  1.0
      basis_dep_cutoff    1e-4
  #
      radial_base         37 5.0
      radial_multiplier   1
      angular_grids specified
        division   0.4014  110
        division   0.5291  194
        division   0.6019  302
  #      division   0.6814  434
  #      division   0.7989  590
  #      division   0.8965  770
  #      division   1.3427  974
  #      outer_grid   974
        outer_grid   302
  ################################################################################
  #
  #  Definition of "minimal" basis
  #
  ################################################################################
  #     valence basis states
      valence      2  s   2.
      valence      2  p   5.
  #     ion occupancy
      ion_occ      2  s   1.
      ion_occ      2  p   4.
  ################################################################################
  #
  #  Suggested additional basis functions. For production calculations,
  #  uncomment them one after another (the most important basis functions are
  #  listed first).
  #
  #  Constructed for dimers: 1.2 A, 1.418 A, 1.75 A, 2.25 A, 3.25 A
  #
  ################################################################################
  #  "First tier" - improvements: -149.44 meV to -45.88 meV
       hydro 2 p 1.7
       hydro 3 d 7.4
       hydro 3 s 6.8
  #  "Second tier" - improvements: -12.96 meV to -1.56 meV
  #     hydro 4 f 11.2
  #     ionic 2 p auto
  #     hydro 1 s 0.75
  #     hydro 4 d 8.8
  #     hydro 5 g 16.8
  #  "Third tier" - improvements: -0.58 meV to -0.05 meV
  #     hydro 3 p 6.2
  #     hydro 3 s 3.2
  #     hydro 4 f 9.6
  #     hydro 3 s 19.6
  #     hydro 4 d 8.6
  #     hydro 5 g 14.4
  # Further basis functions: -0.05 meV and below
  #     hydro 3 p 4.2
  
  -----------------------------------------------------------------------
  Completed first pass over input file control.in .
  -----------------------------------------------------------------------
  
  
  -----------------------------------------------------------------------
  Parsing geometry.in (first pass over file, find array dimensions only).
  The contents of geometry.in will be repeated verbatim below
  unless switched off by setting 'verbatim_writeout .false.' .
  in the first line of geometry.in .
  -----------------------------------------------------------------------
  
  atom -0.360165238 1.035280360 -1.758981536 Al
  atom -0.338850981 1.094913691 1.126235001 Al
  atom -3.062361303 0.449172078 -1.869799209 Al
  atom -3.549391455 0.310029336 -3.646501761 F
  atom -1.264780958 -0.457625304 -1.836678138 F
  atom -1.799744293 2.017697789 -1.883888761 F
  atom -1.998316577 0.724010655 0.483261709 F
  atom 0.418744416 1.232636897 -0.237414775 F
  atom -0.315850981 2.664209204 1.968532171 F
  atom 0.323279208 -0.293108871 2.024933358 F
  atom -4.315949367 0.203662926 -0.537267713 F
  atom 0.661344219 1.229398503 -3.156231644 F
  
  -----------------------------------------------------------------------
  Completed first pass over input file geometry.in .
  -----------------------------------------------------------------------
  

  Basic array size parameters:
  | Number of species                 :        2
  | Number of atoms                   :       12
  | Max. basis fn. angular momentum   :        2
  | Max. atomic/ionic basis occupied n:        3
  | Max. number of basis fn. types    :        3
  | Max. radial fns per species/type  :        5
  | Max. logarithmic grid size        :     1340
  | Max. radial integration grid size :       41
  | Max. angular integration grid size:      302
  | Max. angular grid division number :        8
  | Radial grid for Hartree potential :     1340
  | Number of spin channels           :        1

------------------------------------------------------------
          Reading file control.in.
------------------------------------------------------------
  XC: Using PBEsol gradient-corrected functionals.
  Spin treatment: No spin polarisation.
  Scalar relativistic treatment of kinetic energy: on-site free-atom approximation to ZORA.
  Charge =   0.000000E+00: Neutral system requested explicitly.
  Occupation type: Gaussian broadening, width =   0.100000E-01 eV.
  Using pulay charge density mixing.
  Pulay mixing - number of memorized iterations:   10
  Charge density mixing - mixing parameter:     0.5000
  Convergence accuracy of self-consistent charge density:  0.1000E-04
  Convergence accuracy of sum of eigenvalues:  0.1000E-02
  Convergence accuracy of total energy:  0.1000E-05
  Convergence accuracy of forces:  0.1000E-03
  Maximum number of s.-c. iterations  :  1500
 
  Reading configuration options for species Al                  .
  | Found nuclear charge :  13.0000
  | Found atomic mass :    26.9815386000000      amu
  | Found l_max for Hartree potential  :   4
  | Found cutoff potl. onset [A], width [A], scale factor :    3.50000    1.50000    1.00000
  | Threshold for basis-dependent cutoff potential is   0.100000E-03
  | Found data for basic radial integration grid :    41 points, outermost radius =    5.000 A
  | Found multiplier for basic radial grid :   1
  | Found angular grid specification: user-specified.
  | Specified grid contains     4 separate shells.
  | Check grid settings after all constraints further below.
  | Found free-atom valence shell :  3 s   2.000
  | Found free-atom valence shell :  3 p   1.000
  | Found free-ion valence shell :  3 s   1.000
  | Found free-ion valence shell :  2 p   6.000
  | Found ionic basis function :  3 d , default cutoff radius.
  | Found ionic basis function :  3 p , default cutoff radius.
  | Found ionic basis function :  3 s , default cutoff radius.
  Species Al                  : Missing cutoff potential type.
  Defaulting to exp(1/x)/(1-x)^2 type cutoff potential.
  Species Al: No 'logarithmic' tag. Using default grid for free atom:
  | Default logarithmic grid data [bohr] : 0.1000E-03 0.1000E+03 0.1012E+01
  | Will include ionic basis functions of  2.0-fold positive Al                   ion.
  Species Al: On-site basis accuracy parameter (for Gram-Schmidt orthonormalisation) not specified.
  Using default value basis_acc =  0.1000000E-03.
  Species Al                  : Using default innermost maximum threshold i_radial=  2 for radial functions.
  Species Al                  : Default cutoff onset for free atom density etc. : 0.35000000E+01 AA.
  Species Al                  : Basic radial grid will be enhanced according to radial_multiplier =   1, to contain    41 grid points.
 
  Reading configuration options for species F                   .
  | Found nuclear charge :   9.0000
  | Found atomic mass :    18.9984032000000      amu
  | Found l_max for Hartree potential  :   4
  | Found cutoff potl. onset [A], width [A], scale factor :    3.50000    1.50000    1.00000
  | Threshold for basis-dependent cutoff potential is   0.100000E-03
  | Found data for basic radial integration grid :    37 points, outermost radius =    5.000 A
  | Found multiplier for basic radial grid :   1
  | Found angular grid specification: user-specified.
  | Specified grid contains     4 separate shells.
  | Check grid settings after all constraints further below.
  | Found free-atom valence shell :  2 s   2.000
  | Found free-atom valence shell :  2 p   5.000
  | Found free-ion valence shell :  2 s   1.000
  | Found free-ion valence shell :  2 p   4.000
  | Found hydrogenic basis function :  2 p   1.700
  | Found hydrogenic basis function :  3 d   7.400
  | Found hydrogenic basis function :  3 s   6.800
  Species F                   : Missing cutoff potential type.
  Defaulting to exp(1/x)/(1-x)^2 type cutoff potential.
  Species F : No 'logarithmic' tag. Using default grid for free atom:
  | Default logarithmic grid data [bohr] : 0.1000E-03 0.1000E+03 0.1012E+01
  Species F : On-site basis accuracy parameter (for Gram-Schmidt orthonormalisation) not specified.
  Using default value basis_acc =  0.1000000E-03.
  Species F                   : Using default innermost maximum threshold i_radial=  2 for radial functions.
  Species F                   : Default cutoff onset for free atom density etc. : 0.35000000E+01 AA.
  Species F                   : Basic radial grid will be enhanced according to radial_multiplier =   1, to contain    37 grid points.
 
  Finished reading input file 'control.in'.
 
------------------------------------------------------------


------------------------------------------------------------
          Reading geometry description geometry.in.
------------------------------------------------------------
  | The smallest distance between any two atoms is         1.56603294 AA.
  | The first atom of this pair is atom number                      2 .
  | The second atom of this pair is atom number                     8 .
  Input structure read successfully.
  The structure contains       12 atoms,  and a total of        120.000 electrons.

  Input geometry:
  | No unit cell requested.
  | Atomic structure:
  |       Atom                x [A]            y [A]            z [A]
  |    1: Species Al           -0.36016524        1.03528036       -1.75898154
  |    2: Species Al           -0.33885098        1.09491369        1.12623500
  |    3: Species Al           -3.06236130        0.44917208       -1.86979921
  |    4: Species F            -3.54939145        0.31002934       -3.64650176
  |    5: Species F            -1.26478096       -0.45762530       -1.83667814
  |    6: Species F            -1.79974429        2.01769779       -1.88388876
  |    7: Species F            -1.99831658        0.72401066        0.48326171
  |    8: Species F             0.41874442        1.23263690       -0.23741477
  |    9: Species F            -0.31585098        2.66420920        1.96853217
  |   10: Species F             0.32327921       -0.29310887        2.02493336
  |   11: Species F            -4.31594937        0.20366293       -0.53726771
  |   12: Species F             0.66134422        1.22939850       -3.15623164

 
  Finished reading input file 'control.in'.
 

------------------------------------------------------------
          Reading geometry description geometry.in.
------------------------------------------------------------
 
  Consistency checks for stacksize environment parameter are next.
 
  | Maximum stacksize for task 0: unlimited
  | Maximum stacksize for task 1: unlimited
  | Maximum stacksize for task 2: unlimited
  | Maximum stacksize for task 3: unlimited
  | Maximum stacksize for task 4: unlimited
  | Maximum stacksize for task 5: unlimited
  | Maximum stacksize for task 6: unlimited
  | Maximum stacksize for task 7: unlimited
  | Maximum stacksize for task 8: unlimited
  | Maximum stacksize for task 9: unlimited
  | Maximum stacksize for task 10: unlimited
  | Maximum stacksize for task 11: unlimited
  | Maximum stacksize for task 12: unlimited
  | Maximum stacksize for task 13: unlimited
  | Maximum stacksize for task 14: unlimited
  | Maximum stacksize for task 15: unlimited
  | Maximum stacksize for task 16: unlimited
  | Maximum stacksize for task 17: unlimited
  | Maximum stacksize for task 18: unlimited
  | Maximum stacksize for task 19: unlimited
  | Maximum stacksize for task 20: unlimited
  | Maximum stacksize for task 21: unlimited
  | Maximum stacksize for task 22: unlimited
  | Maximum stacksize for task 23: unlimited
  | Current stacksize for task 0: unlimited
  | Current stacksize for task 1: unlimited
  | Current stacksize for task 2: unlimited
  | Current stacksize for task 3: unlimited
  | Current stacksize for task 4: unlimited
  | Current stacksize for task 5: unlimited
  | Current stacksize for task 6: unlimited
  | Current stacksize for task 7: unlimited
  | Current stacksize for task 8: unlimited
  | Current stacksize for task 9: unlimited
  | Current stacksize for task 10: unlimited
  | Current stacksize for task 11: unlimited
  | Current stacksize for task 12: unlimited
  | Current stacksize for task 13: unlimited
  | Current stacksize for task 14: unlimited
  | Current stacksize for task 15: unlimited
  | Current stacksize for task 16: unlimited
  | Current stacksize for task 17: unlimited
  | Current stacksize for task 18: unlimited
  | Current stacksize for task 19: unlimited
  | Current stacksize for task 20: unlimited
  | Current stacksize for task 21: unlimited
  | Current stacksize for task 22: unlimited
  | Current stacksize for task 23: unlimited
 
  Consistency checks for the contents of control.in are next.
 
  MPI_IN_PLACE appears to work with this MPI implementation.
  | Keeping use_mpi_in_place .true. (see manual).
  Target number of points in a grid batch is not set. Defaulting to  100
  Method for grid partitioning is not set. Defaulting to parallel hash+maxmin partitioning.
  Batch size limit is not set. Defaulting to    200
  By default, will store active basis functions for each batch.
  If in need of memory, prune_basis_once .false. can be used to disable this option.
  communication_type for Hartree potential was not specified.
  Defaulting to calc_hartree .
  Pulay mixer: Number of initial linear mixing iterations not set.
  Defaulting to    0 iterations.
  Work space size for distributed Hartree potential not set.
  Defaulting to   0.200000E+03 MB.
  Algorithm-dependent basis array size parameters:
  | n_max_pulay                         :       10
  Presetting      1001 iterations before the initial mixing cycle
  is restarted anyway using the sc_init_iter criterion / keyword.
  Presetting a factor      1.000 between actual scf density residual
  and density convergence criterion sc_accuracy_rho below which sc_init_iter
  takes no effect.
  Geometry relaxation not requested: no relaxation will be performed.
  Forces evaluation will include force correction term due to incomplete self-consistency (default).
  Handling of forces: Unphysical translation and rotation will be removed from forces.
  No accuracy limit for integral partition fn. given. Defaulting to  0.1000E-14.
  No threshold value for u(r) in integrations given. Defaulting to  0.1000E-05.
  No accuracy for occupation numbers given. Defaulting to  0.1000E-12.
  No threshold value for occupation numbers given. Defaulting to  0.0000E+00.
  No accuracy for fermi level given. Defaulting to  0.1000E-19.
  Maximum # of iterations to find E_F not set. Defaulting to  200.
  Preferred method for the eigenvalue solver ('KS_method') not specified in 'control.in'.
  Calling BLACS routine to test compilation state
  Since ScaLAPACK support is enabled, defaulting to ELPA (via ELSI).
  Will not use alltoall communication since running on < 1024 CPUs.
  Threshold for basis singularities not set.
  Default threshold for basis singularities:  0.1000E-04
  partition_type (choice of integration weights) for integrals was not specified.
  | Using a version of the partition function of Stratmann and coworkers ('stratmann_sparse').
  | At each grid point, the set of atoms used to build the partition table is smoothly restricted to
  | only those atoms whose free-atom density would be non-zero at that grid point.
  Partitioning for Hartree potential was not defined. Using partition_type for integrals.
  | Adjusted default value of keyword multip_moments_threshold to:       0.10000000E-11
  | This value may affect high angular momentum components of the Hartree potential in periodic systems.
  No q(lm)/r^(l+1) cutoff set for long-range Hartree potential.
  | Using default value of  0.100000E-09 .
  | Verify using the multipole_threshold keyword.
  Defaulting to new monopole extrapolation.
  Density update method: automatic selection selected.
  Charge integration errors on the 3D integration grid will be compensated
  by explicit normalization and distribution of residual charges.
  Use the "compensate_multipole_errors" flag to change this behaviour.
  Set 'collect_eigenvectors' to be '.true.' for use_density_matrix .false.
 
  Consistency checks for the contents of geometry.in are next.
 
  Number of empty states per atom not set in control.in - providing a guess from actual geometry.
  | Total number of empty states used during s.c.f. cycle:       36
  If you use a very high smearing, use empty_states (per atom!) in control.in to increase this value.

  Structure-dependent array size parameters: 
  | Maximum number of distinct radial functions  :       14
  | Maximum number of basis functions            :      180
  | Number of Kohn-Sham states (occupied + empty):       96
------------------------------------------------------------

------------------------------------------------------------
          Preparing all fixed parts of the calculation.
------------------------------------------------------------
  Determining machine precision:
    2.225073858507201E-308
  Setting up grids for atomic and cluster calculations.

  Creating wave function, potential, and density for free atoms.

  Species: Al

  List of occupied orbitals and eigenvalues:
    n    l              occ      energy [Ha]    energy [eV]
    1    0           2.0000       -55.621123     -1513.5278
    2    0           2.0000        -3.957030      -107.6763
    3    0           2.0000        -0.272233        -7.4078
    2    1           6.0000        -2.540949       -69.1427
    3    1           1.0000        -0.083300        -2.2667


  Species: F

  List of occupied orbitals and eigenvalues:
    n    l              occ      energy [Ha]    energy [eV]
    1    0           2.0000       -24.399611      -663.9472
    2    0           2.0000        -1.098702       -29.8972
    2    1           5.0000        -0.408210       -11.1080


  Adding cutoff potential to free-atom effective potential.
  Creating fixed part of basis set: Ionic, confined, hydrogenic.
 
  Al                   ion:

  List of free ionic orbitals and eigenvalues:
    n    l      energy [Ha]    energy [eV]
    1    0       -56.418846     -1535.2349
    2    0        -4.732717      -128.7838
    3    0        -0.872690       -23.7471
    2    1        -3.317230       -90.2664


  List of ionic basis orbitals and eigenvalues:
    n    l      energy [Ha]    energy [eV]    outer radius [A]
    3    2        -0.346815        -9.4373       4.594041
    3    1        -0.631870       -17.1940       4.538221
    3    0        -0.872657       -23.7462       4.538221

 
  F                    hydrogenic:
 
  List of hydrogenic basis orbitals: 
    n    l      effective z      eigenvalue [eV]  inner max. [A]     outer max. [A]     outer radius [A]   
    2    1         1.700000        -9.7616           1.243167           1.243167           4.598524
    3    2         7.400000       -82.7828           0.642437           0.642437           3.305741
    3    0         6.800000       -69.9026           0.057798           1.022307           3.781556
 
  Creating atomic-like basis functions for current effective potential.

  Species Al                  :

  List of atomic basis orbitals and eigenvalues:
    n    l      energy [Ha]    energy [eV]    outer radius [A]
    1    0       -55.621123     -1513.5278       0.850197
    2    0        -3.957030      -107.6763       3.144911
    3    0        -0.272233        -7.4078       4.594041
    2    1        -2.540949       -69.1427       3.731966
    3    1        -0.083300        -2.2667       4.594041


  Species F                   :

  List of atomic basis orbitals and eigenvalues:
    n    l      energy [Ha]    energy [eV]    outer radius [A]
    1    0       -24.399611      -663.9472       1.258458
    2    0        -1.098702       -29.8972       4.325857
    2    1        -0.408210       -11.1080       4.487453

  Assembling full basis from fixed parts.
  | Species Al :   atomic orbital   1 s accepted.
  | Species Al :   atomic orbital   2 s accepted.
  | Species Al :    ionic orbital   3 s accepted.
  | Species Al :   atomic orbital   3 s accepted.
  | Species Al :   atomic orbital   2 p accepted.
  | Species Al :    ionic orbital   3 p accepted.
  | Species Al :   atomic orbital   3 p accepted.
  | Species Al :    ionic orbital   3 d accepted.
  | Species F :   atomic orbital   1 s accepted.
  | Species F :    hydro orbital   3 s accepted.
  | Species F :   atomic orbital   2 s accepted.
  | Species F :   atomic orbital   2 p accepted.
  | Species F :    hydro orbital   2 p accepted.
  | Species F :    hydro orbital   3 d accepted.
 
  Basis size parameters after reduction:
  | Total number of radial functions:       14
  | Total number of basis functions :      180
 
  Per-task memory consumption for arrays in subroutine allocate_ext:
  |           4.807768MB.
  Testing on-site integration grid accuracy.
  |  Species  Function  <phi|h_atom|phi> (log., in eV)  <phi|h_atom|phi> (rad., in eV)
           1        1              -1513.5277717935              -1513.5271881332
           1        2               -107.6762691836               -107.6762662489
           1        3                 -6.9467474784                 -6.9471269649
           1        4                  5.5771951849                  5.4862107220 ***
           1        5                -69.1427313144                -69.1427312731
           1        6                 -1.5197375330                 -1.5230432022
           1        7                  6.8210948310                  6.5529872240 ***
           1        8                  4.3216540965                  4.2851170187 ***
           2        9               -663.9471986398               -663.9470363334
           2       10                 16.8514011578                 16.8512525338
           2       11                -28.4490593856                -28.4490661472
           2       12                -11.1080115307                -11.1080620173
           2       13                  7.1940182175                  7.1685154137
           2       14                 44.8544281765                 44.8543763625
 * Note: Onsite integrals marked "***" above are less accurate than
 * onsite_accuracy_threshold =    0.03000 eV. Usually, this is harmless.
 * When in doubt, tighten the "radial" and/or "radial_multiplier" flags to check.

  Preparing densities etc. for the partition functions (integrals / Hartree potential).

  Preparations completed.
  max(cpu_time)          :      0.184 s.
  Wall clock time (cpu1) :      0.184 s.
------------------------------------------------------------

------------------------------------------------------------
          Begin self-consistency loop: Initialization.

          Date     :  20220517, Time     :  115004.419
------------------------------------------------------------

  Initializing index lists of integration centers etc. from given atomic structure:
  | Number of centers in hartree potential         :        12
  | Number of centers in hartree multipole         :        12
  | Number of centers in electron density summation:        12
  | Number of centers in basis integrals           :        12
  | Number of centers in integrals                 :        12
  | Number of centers in hamiltonian               :        12
  * Using 24 tasks for Scalapack Eigenvalue solver.
  Detailed listing of tasks and assigned k-points:
  (for non-periodic systems, the "k-point" denotes an internal label only)
   Task     0 k-point     1 on node-k98a-019
   Task     1 k-point     1 on node-k98a-019
   Task     2 k-point     1 on node-k98a-019
   Task     3 k-point     1 on node-k98a-019
   Task     4 k-point     1 on node-k98a-019
   Task     5 k-point     1 on node-k98a-019
   Task     6 k-point     1 on node-k98a-019
   Task     7 k-point     1 on node-k98a-019
   Task     8 k-point     1 on node-k98a-019
   Task     9 k-point     1 on node-k98a-019
   Task    10 k-point     1 on node-k98a-019
   Task    11 k-point     1 on node-k98a-019
   Task    12 k-point     1 on node-k98a-019
   Task    13 k-point     1 on node-k98a-019
   Task    14 k-point     1 on node-k98a-019
   Task    15 k-point     1 on node-k98a-019
   Task    16 k-point     1 on node-k98a-019
   Task    17 k-point     1 on node-k98a-019
   Task    18 k-point     1 on node-k98a-019
   Task    19 k-point     1 on node-k98a-019
   Task    20 k-point     1 on node-k98a-019
   Task    21 k-point     1 on node-k98a-019
   Task    22 k-point     1 on node-k98a-019
   Task    23 k-point     1 on node-k98a-019
  Tasks:    24 split into      6 X      4 BLACS grid
  Calculating block size based on n_basis =          180  max_nprow =            6  max_npcol =            4
  ScaLAPACK block size set to:           16
  Allocating        0.012 MB for ovlp
  Allocating        0.012 MB for ham
  Allocating        0.012 MB for eigenvec
  Required Scalapack workspace - INTEGER:            1  REAL:             1
  Partitioning the integration grid into batches with parallel hashing+maxmin method.
  | Number of batches:     1023
  | Maximal batch size:     193
  | Minimal batch size:      20
  | Average batch size:      89.853
  | Standard deviation of batch sizes:      25.000

  Integration load balanced across    24 MPI tasks.
  Work distribution over tasks is as follows:
  Task     0 has       3774 integration points.
  Task     1 has       3815 integration points.
  Task     2 has       3821 integration points.
  Task     3 has       3831 integration points.
  Task     4 has       3819 integration points.
  Task     5 has       3870 integration points.
  Task     6 has       3744 integration points.
  Task     7 has       3782 integration points.
  Task     8 has       3895 integration points.
  Task     9 has       3885 integration points.
  Task    10 has       3873 integration points.
  Task    11 has       3830 integration points.
  Task    12 has       3833 integration points.
  Task    13 has       3859 integration points.
  Task    14 has       3778 integration points.
  Task    15 has       3904 integration points.
  Task    16 has       3847 integration points.
  Task    17 has       3840 integration points.
  Task    18 has       3885 integration points.
  Task    19 has       3840 integration points.
  Task    20 has       3775 integration points.
  Task    21 has       3748 integration points.
  Task    22 has       3778 integration points.
  Task    23 has       3894 integration points.
  Initializing partition tables, free-atom densities, potentials, etc. across the integration grid (initialize_grid_storage).
  | initialize_grid_storage: Actual outermost partition radius vs. multipole_radius_free
  | (-- VB: in principle, multipole_radius_free should be larger, hence this output)
  | Species        1: Confinement radius =              4.999999999999999 AA, multipole_radius_free =              5.004487022111096 AA.
  | Species        1: outer_partition_radius set to              5.004487022111096 AA .
  | Species        2: Confinement radius =              4.999999999999999 AA, multipole_radius_free =              5.009370088163274 AA.
  | Species        2: outer_partition_radius set to              5.009370088163274 AA .
  | The sparse table of interatomic distances needs          1.64 kbyte instead of         1.15 kbyte of memory.
  | Using the partition_type stratmann_smoother will reduce your memory usage.
  | Net number of integration points:    91920
  | of which are non-zero points    :    85382
  Renormalizing the initial density to the exact electron count on the 3D integration grid.
  | Initial density: Formal number of electrons (from input files) :     120.0000000000
  | Integrated number of electrons on 3D grid     :     119.9999341304
  | Charge integration error                      :      -0.0000658696
  | Normalization factor for density and gradient :       1.0000005489
  Renormalizing the free-atom superposition density to the exact electron count on the 3D integration grid.
  | Formal number of electrons (from input files) :     120.0000000000
  | Integrated number of electrons on 3D grid     :     119.9999341304
  | Charge integration error                      :      -0.0000658696
  | Normalization factor for density and gradient :       1.0000005489
  Obtaining max. number of non-zero basis functions in each batch (get_n_compute_maxes).
  | Maximal number of non-zero basis functions:      165 in task     0
  | Maximal number of non-zero basis functions:      163 in task     1
  | Maximal number of non-zero basis functions:      171 in task     2
  | Maximal number of non-zero basis functions:      160 in task     3
  | Maximal number of non-zero basis functions:      166 in task     4
  | Maximal number of non-zero basis functions:      164 in task     5
  | Maximal number of non-zero basis functions:      165 in task     6
  | Maximal number of non-zero basis functions:      171 in task     7
  | Maximal number of non-zero basis functions:      166 in task     8
  | Maximal number of non-zero basis functions:      171 in task     9
  | Maximal number of non-zero basis functions:      159 in task    10
  | Maximal number of non-zero basis functions:      165 in task    11
  | Maximal number of non-zero basis functions:      170 in task    12
  | Maximal number of non-zero basis functions:      159 in task    13
  | Maximal number of non-zero basis functions:      157 in task    14
  | Maximal number of non-zero basis functions:      160 in task    15
  | Maximal number of non-zero basis functions:      164 in task    16
  | Maximal number of non-zero basis functions:      163 in task    17
  | Maximal number of non-zero basis functions:      173 in task    18
  | Maximal number of non-zero basis functions:      164 in task    19
  | Maximal number of non-zero basis functions:      167 in task    20
  | Maximal number of non-zero basis functions:      165 in task    21
  | Maximal number of non-zero basis functions:      165 in task    22
  | Maximal number of non-zero basis functions:      159 in task    23
  Selecting the method for density update.
  Loop over occupied states selected for charge density update.
  Allocating        0.132 MB for KS_eigenvector
  Integrating Hamiltonian matrix: batch-based integration.
  Time summed over all CPUs for integration: real work        0.712 s, elapsed        0.756 s
  Integrating overlap matrix.
  Time summed over all CPUs for integration: real work        0.277 s, elapsed        0.297 s
  Deallocating overlap matrix.

  Updating Kohn-Sham eigenvalues and eigenvectors using ELSI and the ELPA eigensolver.
  Overlap matrix is not singular
  | Lowest and highest eigenvalues :  0.2542E-02,  0.5367E+01
  Finished singularity check of overlap matrix
  | Time :     0.004 s
  Starting ELPA eigensolver
  Finished Cholesky decomposition
  | Time :     0.001 s
  Finished transformation to standard eigenproblem
  | Time :     0.001 s
  Finished solving standard eigenproblem
  | Time :     0.004 s
  Finished back-transformation of eigenvectors
  | Time :     0.000 s

  Obtaining occupation numbers and chemical potential using ELSI.
  | Chemical potential (Fermi level):    -7.72337770 eV
  Writing Kohn-Sham eigenvalues.

  State    Occupation    Eigenvalue [Ha]    Eigenvalue [eV]
      1       2.00000         -55.488302        -1509.91352
      2       2.00000         -55.487736        -1509.89811
      3       2.00000         -55.482990        -1509.76898
      4       2.00000         -24.435387         -664.92071
      5       2.00000         -24.370986         -663.16827
      6       2.00000         -24.370986         -663.16827
      7       2.00000         -24.350286         -662.60499
      8       2.00000         -24.345152         -662.46529
      9       2.00000         -24.344873         -662.45770
     10       2.00000         -24.344873         -662.45770
     11       2.00000         -24.337251         -662.25030
     12       2.00000         -24.337050         -662.24483
     13       2.00000          -3.955830         -107.64360
     14       2.00000          -3.955519         -107.63515
     15       2.00000          -3.947437         -107.41521
     16       2.00000          -2.550888          -69.41319
     17       2.00000          -2.548899          -69.35907
     18       2.00000          -2.548464          -69.34724
     19       2.00000          -2.546752          -69.30064
     20       2.00000          -2.546594          -69.29635
     21       2.00000          -2.546084          -69.28247
     22       2.00000          -2.540108          -69.11985
     23       2.00000          -2.539463          -69.10231
     24       2.00000          -2.537996          -69.06238
     25       2.00000          -1.274361          -34.67714
     26       2.00000          -1.203276          -32.74280
     27       2.00000          -1.188176          -32.33192
     28       2.00000          -1.162492          -31.63302
     29       2.00000          -1.160032          -31.56608
     30       2.00000          -1.154935          -31.42737
     31       2.00000          -1.153394          -31.38545
     32       2.00000          -1.145021          -31.15759
     33       2.00000          -1.142721          -31.09503
     34       2.00000          -0.638018          -17.36135
     35       2.00000          -0.585043          -15.91982
     36       2.00000          -0.562348          -15.30227
     37       2.00000          -0.555112          -15.10536
     38       2.00000          -0.547092          -14.88713
     39       2.00000          -0.527161          -14.34478
     40       2.00000          -0.520036          -14.15091
     41       2.00000          -0.509299          -13.85874
     42       2.00000          -0.501748          -13.65326
     43       2.00000          -0.493161          -13.41960
     44       2.00000          -0.491240          -13.36733
     45       2.00000          -0.490994          -13.36062
     46       2.00000          -0.488128          -13.28265
     47       2.00000          -0.485471          -13.21034
     48       2.00000          -0.477767          -13.00069
     49       2.00000          -0.463218          -12.60480
     50       2.00000          -0.462562          -12.58694
     51       2.00000          -0.461391          -12.55510
     52       2.00000          -0.460660          -12.53519
     53       2.00000          -0.459005          -12.49015
     54       2.00000          -0.452708          -12.31882
     55       2.00000          -0.452284          -12.30727
     56       2.00000          -0.450251          -12.25196
     57       2.00000          -0.448132          -12.19430
     58       2.00000          -0.446745          -12.15655
     59       2.00000          -0.445324          -12.11789
     60       2.00000          -0.440753          -11.99351
     61       0.00000          -0.138562           -3.77046
     62       0.00000          -0.086076           -2.34224
     63       0.00000          -0.051466           -1.40045
     64       0.00000          -0.036738           -0.99969
     65       0.00000           0.005332            0.14509
     66       0.00000           0.007713            0.20988
     67       0.00000           0.011388            0.30989
     68       0.00000           0.033145            0.90192
     69       0.00000           0.047810            1.30099
     70       0.00000           0.049526            1.34768
     71       0.00000           0.099451            2.70619
     72       0.00000           0.106522            2.89862
     73       0.00000           0.151308            4.11729
     74       0.00000           0.170533            4.64043
     75       0.00000           0.170659            4.64386
     76       0.00000           0.177719            4.83598
     77       0.00000           0.178226            4.84977
     78       0.00000           0.181201            4.93074
     79       0.00000           0.192977            5.25117
     80       0.00000           0.203800            5.54567
     81       0.00000           0.213021            5.79660
     82       0.00000           0.224149            6.09940
     83       0.00000           0.231588            6.30183
     84       0.00000           0.237505            6.46284
     85       0.00000           0.246297            6.70208
     86       0.00000           0.251186            6.83513
     87       0.00000           0.262177            7.13419
     88       0.00000           0.278096            7.56738
     89       0.00000           0.295914            8.05223
     90       0.00000           0.306665            8.34478
     91       0.00000           0.319647            8.69803
     92       0.00000           0.328040            8.92642
     93       0.00000           0.341340            9.28834
     94       0.00000           0.359823            9.79127
     95       0.00000           0.364943            9.93060
     96       0.00000           0.370770           10.08915

  Highest occupied state (VBM) at    -11.99350879 eV
  | Occupation number:      2.00000000

  Lowest unoccupied state (CBM) at    -3.77045974 eV
  | Occupation number:      0.00000000

  Overall HOMO-LUMO gap:      8.22304905 eV.
  Calculating total energy contributions from superposition of free atom densities.

  Total energy components:
  | Sum of eigenvalues            :        -888.71993051 Ha      -24183.29974185 eV
  | XC energy correction          :        -144.44029413 Ha       -3930.42038089 eV
  | XC potential correction       :         188.07625097 Ha        5117.81518045 eV
  | Free-atom electrostatic energy:        -780.26405260 Ha      -21232.06514693 eV
  | Hartree energy correction     :           0.00000000 Ha           0.00000000 eV
  | Entropy correction            :           0.00000000 Ha           0.00000000 eV
  | ---------------------------
  | Total energy                  :       -1625.34802627 Ha      -44227.97008922 eV
  | Total energy, T -> 0          :       -1625.34802627 Ha      -44227.97008922 eV  <-- do not rely on this value for anything but (periodic) metals
  | Electronic free energy        :       -1625.34802627 Ha      -44227.97008922 eV

  Derived energy quantities:
  | Kinetic energy                :        1627.91296370 Ha       44297.76558765 eV
  | Electrostatic energy          :       -3108.82069584 Ha      -84595.31529598 eV
  | Energy correction for multipole
  | error in Hartree potential    :           0.00000000 Ha           0.00000000 eV
  | Sum of eigenvalues per atom                           :       -2015.27497849 eV
  | Total energy (T->0) per atom                          :       -3685.66417410 eV  <-- do not rely on this value for anything but (periodic) metals
  | Electronic free energy per atom                       :       -3685.66417410 eV
  Initialize hartree_potential_storage
  Max. number of atoms included in rho_multipole:           12

  End scf initialization - timings             :  max(cpu_time)    wall_clock(cpu1)
  | Time for scf. initialization                :        0.117 s           0.117 s
  | Boundary condition initialization           :        0.000 s           0.000 s
  | Integration                                 :        0.045 s           0.046 s
  | Solution of K.-S. eqns.                     :        0.012 s           0.012 s
  | Grid partitioning                           :        0.037 s           0.037 s
  | Preloading free-atom quantities on grid     :        0.016 s           0.015 s
  | Free-atom superposition energy              :        0.005 s           0.005 s
  | Total energy evaluation                     :        0.000 s           0.000 s

  Partial memory accounting:
  | Current value for overall tracked memory usage:
  |   Minimum:        0.273 MB (on task 23)
  |   Maximum:        0.292 MB (on task  0)
  |   Average:        0.287 MB
  | Peak value for overall tracked memory usage:
  |   Minimum:        1.296 MB (on task 23 after allocating wave)
  |   Maximum:        1.413 MB (on task 18 after allocating wave)
  |   Average:        1.350 MB
  | Largest tracked array allocation so far:
  |   Minimum:        0.234 MB (H_times_psi on task 13)
  |   Maximum:        0.491 MB (all_coords on task 10)
  |   Average:        0.270 MB
  Note:  These values currently only include a subset of arrays which are explicitly tracked.
  The "true" memory usage will be greater.
------------------------------------------------------------
  Evaluating new KS density.
  Integration grid: deviation in total charge (<rho> - N_e) =   4.263256E-14

  Time for density update prior                :  max(cpu_time)    wall_clock(cpu1)
  | self-consistency iterative process          :        0.029 s           0.028 s

------------------------------------------------------------
          Begin self-consistency iteration #    1

  Date     :  20220517, Time     :  115004.565
------------------------------------------------------------
  Pulay mixing of updated and previous charge densities.
  Renormalizing the density to the exact electron count on the 3D integration grid.
  | Formal number of electrons (from input files) :     120.0000000000
  | Integrated number of electrons on 3D grid     :     120.0000000000
  | Charge integration error                      :      -0.0000000000
  | Normalization factor for density and gradient :       1.0000000000

  Evaluating partitioned Hartree potential by multipole expansion.
  | Original multipole sum: apparent total charge =  -0.411028E-13
  | Sum of charges compensated after spline to logarithmic grids =   0.112035E-03
  | Analytical far-field extrapolation by fixed multipoles:
  | Hartree multipole sum: apparent total charge =  -0.395778E-13
  Summing up the Hartree potential.
  Time summed over all CPUs for potential: real work        0.381 s, elapsed        0.396 s
  | RMS charge density error from multipole expansion :   0.111723E-01

  Integrating Hamiltonian matrix: batch-based integration.
  Time summed over all CPUs for integration: real work        0.670 s, elapsed        0.702 s

  Updating Kohn-Sham eigenvalues and eigenvectors using ELSI and the ELPA eigensolver.
  Starting ELPA eigensolver
  Finished transformation to standard eigenproblem
  | Time :     0.001 s
  Finished solving standard eigenproblem
  | Time :     0.003 s
  Finished back-transformation of eigenvectors
  | Time :     0.000 s

  Obtaining occupation numbers and chemical potential using ELSI.
  | Chemical potential (Fermi level):    -7.63463221 eV
  Writing Kohn-Sham eigenvalues.

  State    Occupation    Eigenvalue [Ha]    Eigenvalue [eV]
      1       2.00000         -55.666561        -1514.76421
      2       2.00000         -55.647341        -1514.24118
      3       2.00000         -55.585959        -1512.57091
      4       2.00000         -24.307119         -661.43036
      5       2.00000         -24.247439         -659.80639
      6       2.00000         -24.247438         -659.80636
      7       2.00000         -24.127905         -656.55371
      8       2.00000         -24.092888         -655.60085
      9       2.00000         -24.071819         -655.02753
     10       2.00000         -24.063195         -654.79284
     11       2.00000         -24.055973         -654.59632
     12       2.00000         -24.055972         -654.59629
     13       2.00000          -4.101033         -111.59479
     14       2.00000          -4.094494         -111.41686
     15       2.00000          -4.036365         -109.83509
     16       2.00000          -2.694946          -73.33320
     17       2.00000          -2.694413          -73.31872
     18       2.00000          -2.691966          -73.25213
     19       2.00000          -2.688339          -73.15343
     20       2.00000          -2.686818          -73.11203
     21       2.00000          -2.686155          -73.09400
     22       2.00000          -2.632157          -71.62464
     23       2.00000          -2.627807          -71.50628
     24       2.00000          -2.626855          -71.48035
     25       2.00000          -1.261126          -34.31699
     26       2.00000          -1.183752          -32.21154
     27       2.00000          -1.164312          -31.68253
     28       2.00000          -1.062853          -28.92170
     29       2.00000          -1.045101          -28.43864
     30       2.00000          -1.016572          -27.66232
     31       2.00000          -1.008940          -27.45466
     32       2.00000          -1.006797          -27.39633
     33       2.00000          -1.003685          -27.31165
     34       2.00000          -0.635321          -17.28796
     35       2.00000          -0.575233          -15.65290
     36       2.00000          -0.550652          -14.98400
     37       2.00000          -0.546092          -14.85992
     38       2.00000          -0.535150          -14.56216
     39       2.00000          -0.513120          -13.96270
     40       2.00000          -0.484643          -13.18780
     41       2.00000          -0.461195          -12.54974
     42       2.00000          -0.457632          -12.45281
     43       2.00000          -0.433251          -11.78935
     44       2.00000          -0.405423          -11.03211
     45       2.00000          -0.396270          -10.78305
     46       2.00000          -0.378941          -10.31150
     47       2.00000          -0.373784          -10.17118
     48       2.00000          -0.370606          -10.08471
     49       2.00000          -0.360774           -9.81717
     50       2.00000          -0.351689           -9.56995
     51       2.00000          -0.351242           -9.55779
     52       2.00000          -0.346952           -9.44104
     53       2.00000          -0.329988           -8.97943
     54       2.00000          -0.328672           -8.94362
     55       2.00000          -0.323508           -8.80310
     56       2.00000          -0.319208           -8.68610
     57       2.00000          -0.317533           -8.64050
     58       2.00000          -0.309685           -8.42695
     59       2.00000          -0.306806           -8.34863
     60       2.00000          -0.304130           -8.27580
     61       0.00000          -0.149203           -4.06001
     62       0.00000          -0.090961           -2.47517
     63       0.00000          -0.061995           -1.68698
     64       0.00000          -0.035159           -0.95672
     65       0.00000          -0.012385           -0.33701
     66       0.00000          -0.005533           -0.15056
     67       0.00000           0.012697            0.34549
     68       0.00000           0.030603            0.83274
     69       0.00000           0.045886            1.24861
     70       0.00000           0.051982            1.41450
     71       0.00000           0.083708            2.27780
     72       0.00000           0.096032            2.61318
     73       0.00000           0.135337            3.68271
     74       0.00000           0.168889            4.59570
     75       0.00000           0.169132            4.60231
     76       0.00000           0.174761            4.75550
     77       0.00000           0.187457            5.10096
     78       0.00000           0.188524            5.12999
     79       0.00000           0.188963            5.14194
     80       0.00000           0.196021            5.33402
     81       0.00000           0.219282            5.96696
     82       0.00000           0.222805            6.06284
     83       0.00000           0.230279            6.26621
     84       0.00000           0.234407            6.37853
     85       0.00000           0.238814            6.49846
     86       0.00000           0.243871            6.63606
     87       0.00000           0.249579            6.79138
     88       0.00000           0.281893            7.67069
     89       0.00000           0.282477            7.68659
     90       0.00000           0.293480            7.98600
     91       0.00000           0.326821            8.89324
     92       0.00000           0.337358            9.17998
     93       0.00000           0.349942            9.52239
     94       0.00000           0.357995            9.74154
     95       0.00000           0.371217           10.10133
     96       0.00000           0.376183           10.23647

  Highest occupied state (VBM) at     -8.27580359 eV
  | Occupation number:      2.00000000

  Lowest unoccupied state (CBM) at    -4.06001198 eV
  | Occupation number:      0.00000000

  Overall HOMO-LUMO gap:      4.21579161 eV.

  Total energy components:
  | Sum of eigenvalues            :        -882.50318901 Ha      -24014.13359874 eV
  | XC energy correction          :        -145.83510451 Ha       -3968.37510251 eV
  | XC potential correction       :         189.90956078 Ha        5167.70207854 eV
  | Free-atom electrostatic energy:        -780.26405260 Ha      -21232.06514693 eV
  | Hartree energy correction     :          -6.42244612 Ha        -174.76365078 eV
  | Entropy correction            :           0.00000000 Ha           0.00000000 eV
  | ---------------------------
  | Total energy                  :       -1625.11523147 Ha      -44221.63542042 eV
  | Total energy, T -> 0          :       -1625.11523147 Ha      -44221.63542042 eV  <-- do not rely on this value for anything but (periodic) metals
  | Electronic free energy        :       -1625.11523147 Ha      -44221.63542042 eV

  Derived energy quantities:
  | Kinetic energy                :        1634.88558062 Ha       44487.50014769 eV
  | Electrostatic energy          :       -3114.16570758 Ha      -84740.76046560 eV
  | Energy correction for multipole
  | error in Hartree potential    :           0.04572625 Ha           1.24427445 eV
  | Sum of eigenvalues per atom                           :       -2001.17779989 eV
  | Total energy (T->0) per atom                          :       -3685.13628504 eV  <-- do not rely on this value for anything but (periodic) metals
  | Electronic free energy per atom                       :       -3685.13628504 eV
  Evaluating new KS density.
  Integration grid: deviation in total charge (<rho> - N_e) =   2.842171E-14

  Self-consistency convergence accuracy:
  | Change of charge density      :  0.6165E+00
  | Change of sum of eigenvalues  :  0.1692E+03 eV
  | Change of total energy        :  0.6335E+01 eV


------------------------------------------------------------
  End self-consistency iteration #     1       :  max(cpu_time)    wall_clock(cpu1)
  | Time for this iteration                     :        0.082 s           0.083 s
  | Charge density update                       :        0.028 s           0.028 s
  | Density mixing                              :        0.001 s           0.001 s
  | Hartree multipole update                    :        0.001 s           0.001 s
  | Hartree multipole summation                 :        0.017 s           0.017 s
  | Integration                                 :        0.030 s           0.030 s
  | Solution of K.-S. eqns.                     :        0.005 s           0.005 s
  | Total energy evaluation                     :        0.000 s           0.000 s

  Partial memory accounting:
  | Current value for overall tracked memory usage:
  |   Minimum:        0.273 MB (on task 23)
  |   Maximum:        0.292 MB (on task  0)
  |   Average:        0.287 MB
  | Peak value for overall tracked memory usage:
  |   Minimum:        1.296 MB (on task 23 after allocating wave)
  |   Maximum:        1.413 MB (on task 18 after allocating wave)
  |   Average:        1.350 MB
  | Largest tracked array allocation so far:
  |   Minimum:        0.694 MB (gradient_basis_wave on task 14)
  |   Maximum:        0.764 MB (gradient_basis_wave on task 18)
  |   Average:        0.727 MB
  Note:  These values currently only include a subset of arrays which are explicitly tracked.
  The "true" memory usage will be greater.
------------------------------------------------------------

------------------------------------------------------------
          Begin self-consistency iteration #    2

  Date     :  20220517, Time     :  115004.651
------------------------------------------------------------
  Pulay mixing of updated and previous charge densities.
  Renormalizing the density to the exact electron count on the 3D integration grid.
  | Formal number of electrons (from input files) :     120.0000000000
  | Integrated number of electrons on 3D grid     :     120.0000000000
  | Charge integration error                      :       0.0000000000
  | Normalization factor for density and gradient :       1.0000000000

  Evaluating partitioned Hartree potential by multipole expansion.
  | Original multipole sum: apparent total charge =  -0.885519E-14
  | Sum of charges compensated after spline to logarithmic grids =   0.738621E-04
  | Analytical far-field extrapolation by fixed multipoles:
  | Hartree multipole sum: apparent total charge =  -0.868300E-14
  Summing up the Hartree potential.
  Time summed over all CPUs for potential: real work        0.380 s, elapsed        0.399 s
  | RMS charge density error from multipole expansion :   0.132333E-01

  Integrating Hamiltonian matrix: batch-based integration.
  Time summed over all CPUs for integration: real work        0.670 s, elapsed        0.698 s

  Updating Kohn-Sham eigenvalues and eigenvectors using ELSI and the ELPA eigensolver.
  Starting ELPA eigensolver
  Finished transformation to standard eigenproblem
  | Time :     0.000 s
  Finished solving standard eigenproblem
  | Time :     0.004 s
  Finished back-transformation of eigenvectors
  | Time :     0.000 s

  Obtaining occupation numbers and chemical potential using ELSI.
  | Chemical potential (Fermi level):    -7.83643324 eV
  Highest occupied state (VBM) at     -9.22347187 eV
  | Occupation number:      2.00000000

  Lowest unoccupied state (CBM) at    -4.36533519 eV
  | Occupation number:      0.00000000

  Overall HOMO-LUMO gap:      4.85813668 eV.

  Checking to see if s.c.f. parameters should be adjusted.

  Total energy components:
  | Sum of eigenvalues            :        -885.64900052 Ha      -24099.73548528 eV
  | XC energy correction          :        -145.35546374 Ha       -3955.32341305 eV
  | XC potential correction       :         189.27844520 Ha        5150.52854997 eV
  | Free-atom electrostatic energy:        -780.26405260 Ha      -21232.06514693 eV
  | Hartree energy correction     :          -3.06437330 Ha         -83.38584012 eV
  | Entropy correction            :           0.00000000 Ha           0.00000000 eV
  | ---------------------------
  | Total energy                  :       -1625.05444497 Ha      -44219.98133541 eV
  | Total energy, T -> 0          :       -1625.05444497 Ha      -44219.98133541 eV  <-- do not rely on this value for anything but (periodic) metals
  | Electronic free energy        :       -1625.05444497 Ha      -44219.98133541 eV

  Derived energy quantities:
  | Kinetic energy                :        1631.02667537 Ha       44382.49399313 eV
  | Electrostatic energy          :       -3110.72565659 Ha      -84647.15191548 eV
  | Energy correction for multipole
  | error in Hartree potential    :           0.05028913 Ha           1.36843676 eV
  | Sum of eigenvalues per atom                           :       -2008.31129044 eV
  | Total energy (T->0) per atom                          :       -3684.99844462 eV  <-- do not rely on this value for anything but (periodic) metals
  | Electronic free energy per atom                       :       -3684.99844462 eV
  Evaluating new KS density.
  Integration grid: deviation in total charge (<rho> - N_e) =   4.263256E-14

  Self-consistency convergence accuracy:
  | Change of charge density      :  0.4661E+00
  | Change of sum of eigenvalues  : -0.8560E+02 eV
  | Change of total energy        :  0.1654E+01 eV


------------------------------------------------------------
  End self-consistency iteration #     2       :  max(cpu_time)    wall_clock(cpu1)
  | Time for this iteration                     :        0.084 s           0.084 s
  | Charge density update                       :        0.027 s           0.027 s
  | Density mixing                              :        0.005 s           0.004 s
  | Hartree multipole update                    :        0.001 s           0.001 s
  | Hartree multipole summation                 :        0.017 s           0.017 s
  | Integration                                 :        0.029 s           0.030 s
  | Solution of K.-S. eqns.                     :        0.004 s           0.004 s
  | Total energy evaluation                     :        0.000 s           0.000 s

  Partial memory accounting:
  | Current value for overall tracked memory usage:
  |   Minimum:        0.274 MB (on task 23)
  |   Maximum:        0.293 MB (on task  0)
  |   Average:        0.288 MB
  | Peak value for overall tracked memory usage:
  |   Minimum:        1.296 MB (on task 23 after allocating wave)
  |   Maximum:        1.413 MB (on task 18 after allocating wave)
  |   Average:        1.350 MB
  | Largest tracked array allocation so far:
  |   Minimum:        0.694 MB (gradient_basis_wave on task 14)
  |   Maximum:        0.764 MB (gradient_basis_wave on task 18)
  |   Average:        0.727 MB
  Note:  These values currently only include a subset of arrays which are explicitly tracked.
  The "true" memory usage will be greater.
------------------------------------------------------------

------------------------------------------------------------
          Begin self-consistency iteration #    3

  Date     :  20220517, Time     :  115004.741
------------------------------------------------------------
  Pulay mixing of updated and previous charge densities.
  Renormalizing the density to the exact electron count on the 3D integration grid.
  | Formal number of electrons (from input files) :     120.0000000000
  | Integrated number of electrons on 3D grid     :     120.0000000000
  | Charge integration error                      :       0.0000000000
  | Normalization factor for density and gradient :       1.0000000000

  Evaluating partitioned Hartree potential by multipole expansion.
  | Original multipole sum: apparent total charge =  -0.132828E-14
  | Sum of charges compensated after spline to logarithmic grids =   0.921838E-04
  | Analytical far-field extrapolation by fixed multipoles:
  | Hartree multipole sum: apparent total charge =  -0.305012E-14
  Summing up the Hartree potential.
  Time summed over all CPUs for potential: real work        0.380 s, elapsed        0.396 s
  | RMS charge density error from multipole expansion :   0.175840E-01

  Integrating Hamiltonian matrix: batch-based integration.
  Time summed over all CPUs for integration: real work        0.670 s, elapsed        0.697 s

  Updating Kohn-Sham eigenvalues and eigenvectors using ELSI and the ELPA eigensolver.
  Starting ELPA eigensolver
  Finished transformation to standard eigenproblem
  | Time :     0.000 s
  Finished solving standard eigenproblem
  | Time :     0.004 s
  Finished back-transformation of eigenvectors
  | Time :     0.000 s

  Obtaining occupation numbers and chemical potential using ELSI.
  | Chemical potential (Fermi level):    -7.82485285 eV
  Highest occupied state (VBM) at     -9.02720238 eV
  | Occupation number:      2.00000000

  Lowest unoccupied state (CBM) at    -4.51712651 eV
  | Occupation number:      0.00000000

  Overall HOMO-LUMO gap:      4.51007587 eV.

  Total energy components:
  | Sum of eigenvalues            :        -886.49913261 Ha      -24122.86875632 eV
  | XC energy correction          :        -145.33580855 Ha       -3954.78856805 eV
  | XC potential correction       :         189.25142115 Ha        5149.79318798 eV
  | Free-atom electrostatic energy:        -780.26405260 Ha      -21232.06514693 eV
  | Hartree energy correction     :          -2.20536112 Ha         -60.01092939 eV
  | Entropy correction            :           0.00000000 Ha           0.00000000 eV
  | ---------------------------
  | Total energy                  :       -1625.05293373 Ha      -44219.94021270 eV
  | Total energy, T -> 0          :       -1625.05293373 Ha      -44219.94021270 eV  <-- do not rely on this value for anything but (periodic) metals
  | Electronic free energy        :       -1625.05293373 Ha      -44219.94021270 eV

  Derived energy quantities:
  | Kinetic energy                :        1629.55768229 Ha       44342.52065771 eV
  | Electrostatic energy          :       -3109.27480747 Ha      -84607.67230237 eV
  | Energy correction for multipole
  | error in Hartree potential    :           0.06467856 Ha           1.75999330 eV
  | Sum of eigenvalues per atom                           :       -2010.23906303 eV
  | Total energy (T->0) per atom                          :       -3684.99501773 eV  <-- do not rely on this value for anything but (periodic) metals
  | Electronic free energy per atom                       :       -3684.99501773 eV
  Evaluating new KS density.
  Integration grid: deviation in total charge (<rho> - N_e) =  -1.421085E-14

  Self-consistency convergence accuracy:
  | Change of charge density      :  0.1221E+00
  | Change of sum of eigenvalues  : -0.2313E+02 eV
  | Change of total energy        :  0.4112E-01 eV


------------------------------------------------------------
  End self-consistency iteration #     3       :  max(cpu_time)    wall_clock(cpu1)
  | Time for this iteration                     :        0.083 s           0.080 s
  | Charge density update                       :        0.027 s           0.027 s
  | Density mixing                              :        0.004 s           0.001 s
  | Hartree multipole update                    :        0.001 s           0.002 s
  | Hartree multipole summation                 :        0.017 s           0.016 s
  | Integration                                 :        0.029 s           0.030 s
  | Solution of K.-S. eqns.                     :        0.004 s           0.004 s
  | Total energy evaluation                     :        0.000 s           0.000 s

  Partial memory accounting:
  | Current value for overall tracked memory usage:
  |   Minimum:        0.274 MB (on task 23)
  |   Maximum:        0.293 MB (on task  0)
  |   Average:        0.288 MB
  | Peak value for overall tracked memory usage:
  |   Minimum:        1.296 MB (on task 23 after allocating wave)
  |   Maximum:        1.413 MB (on task 18 after allocating wave)
  |   Average:        1.350 MB
  | Largest tracked array allocation so far:
  |   Minimum:        0.694 MB (gradient_basis_wave on task 14)
  |   Maximum:        0.764 MB (gradient_basis_wave on task 18)
  |   Average:        0.727 MB
  Note:  These values currently only include a subset of arrays which are explicitly tracked.
  The "true" memory usage will be greater.
------------------------------------------------------------

------------------------------------------------------------
          Begin self-consistency iteration #    4

  Date     :  20220517, Time     :  115004.827
------------------------------------------------------------
  Pulay mixing of updated and previous charge densities.
  Renormalizing the density to the exact electron count on the 3D integration grid.
  | Formal number of electrons (from input files) :     120.0000000000
  | Integrated number of electrons on 3D grid     :     120.0000000000
  | Charge integration error                      :       0.0000000000
  | Normalization factor for density and gradient :       1.0000000000

  Evaluating partitioned Hartree potential by multipole expansion.
  | Original multipole sum: apparent total charge =   0.421605E-13
  | Sum of charges compensated after spline to logarithmic grids =   0.101690E-03
  | Analytical far-field extrapolation by fixed multipoles:
  | Hartree multipole sum: apparent total charge =   0.412750E-13
  Summing up the Hartree potential.
  Time summed over all CPUs for potential: real work        0.380 s, elapsed        0.396 s
  | RMS charge density error from multipole expansion :   0.200822E-01

  Integrating Hamiltonian matrix: batch-based integration.
  Time summed over all CPUs for integration: real work        0.670 s, elapsed        0.698 s

  Updating Kohn-Sham eigenvalues and eigenvectors using ELSI and the ELPA eigensolver.
  Starting ELPA eigensolver
  Finished transformation to standard eigenproblem
  | Time :     0.000 s
  Finished solving standard eigenproblem
  | Time :     0.004 s
  Finished back-transformation of eigenvectors
  | Time :     0.000 s

  Obtaining occupation numbers and chemical potential using ELSI.
  | Chemical potential (Fermi level):    -7.81789820 eV
  Highest occupied state (VBM) at     -8.95523109 eV
  | Occupation number:      2.00000000

  Lowest unoccupied state (CBM) at    -4.53219836 eV
  | Occupation number:      0.00000000

  Overall HOMO-LUMO gap:      4.42303273 eV.

  Total energy components:
  | Sum of eigenvalues            :        -886.71582544 Ha      -24128.76526821 eV
  | XC energy correction          :        -145.31541348 Ha       -3954.23359010 eV
  | XC potential correction       :         189.22376816 Ha        5149.04071184 eV
  | Free-atom electrostatic energy:        -780.26405260 Ha      -21232.06514693 eV
  | Hartree energy correction     :          -1.97942965 Ha         -53.86302118 eV
  | Entropy correction            :           0.00000000 Ha           0.00000000 eV
  | ---------------------------
  | Total energy                  :       -1625.05095301 Ha      -44219.88631457 eV
  | Total energy, T -> 0          :       -1625.05095301 Ha      -44219.88631457 eV  <-- do not rely on this value for anything but (periodic) metals
  | Electronic free energy        :       -1625.05095301 Ha      -44219.88631457 eV

  Derived energy quantities:
  | Kinetic energy                :        1628.73015682 Ha       44320.00254404 eV
  | Electrostatic energy          :       -3108.46569635 Ha      -84585.65526851 eV
  | Energy correction for multipole
  | error in Hartree potential    :           0.07254744 Ha           1.97411640 eV
  | Sum of eigenvalues per atom                           :       -2010.73043902 eV
  | Total energy (T->0) per atom                          :       -3684.99052621 eV  <-- do not rely on this value for anything but (periodic) metals
  | Electronic free energy per atom                       :       -3684.99052621 eV
  Evaluating new KS density.
  Integration grid: deviation in total charge (<rho> - N_e) =   0.000000E+00

  Self-consistency convergence accuracy:
  | Change of charge density      :  0.8481E-01
  | Change of sum of eigenvalues  : -0.5897E+01 eV
  | Change of total energy        :  0.5390E-01 eV


------------------------------------------------------------
  End self-consistency iteration #     4       :  max(cpu_time)    wall_clock(cpu1)
  | Time for this iteration                     :        0.083 s           0.082 s
  | Charge density update                       :        0.027 s           0.027 s
  | Density mixing                              :        0.004 s           0.002 s
  | Hartree multipole update                    :        0.001 s           0.001 s
  | Hartree multipole summation                 :        0.017 s           0.017 s
  | Integration                                 :        0.029 s           0.030 s
  | Solution of K.-S. eqns.                     :        0.004 s           0.004 s
  | Total energy evaluation                     :        0.000 s           0.000 s

  Partial memory accounting:
  | Current value for overall tracked memory usage:
  |   Minimum:        0.274 MB (on task 23)
  |   Maximum:        0.293 MB (on task  0)
  |   Average:        0.288 MB
  | Peak value for overall tracked memory usage:
  |   Minimum:        1.296 MB (on task 23 after allocating wave)
  |   Maximum:        1.413 MB (on task 18 after allocating wave)
  |   Average:        1.350 MB
  | Largest tracked array allocation so far:
  |   Minimum:        0.694 MB (gradient_basis_wave on task 14)
  |   Maximum:        0.764 MB (gradient_basis_wave on task 18)
  |   Average:        0.727 MB
  Note:  These values currently only include a subset of arrays which are explicitly tracked.
  The "true" memory usage will be greater.
------------------------------------------------------------

------------------------------------------------------------
          Begin self-consistency iteration #    5

  Date     :  20220517, Time     :  115004.914
------------------------------------------------------------
  Pulay mixing of updated and previous charge densities.
  Renormalizing the density to the exact electron count on the 3D integration grid.
  | Formal number of electrons (from input files) :     120.0000000000
  | Integrated number of electrons on 3D grid     :     120.0000000000
  | Charge integration error                      :      -0.0000000000
  | Normalization factor for density and gradient :       1.0000000000

  Evaluating partitioned Hartree potential by multipole expansion.
  | Original multipole sum: apparent total charge =  -0.196782E-15
  | Sum of charges compensated after spline to logarithmic grids =   0.102291E-03
  | Analytical far-field extrapolation by fixed multipoles:
  | Hartree multipole sum: apparent total charge =   0.491955E-16
  Summing up the Hartree potential.
  Time summed over all CPUs for potential: real work        0.380 s, elapsed        0.398 s
  | RMS charge density error from multipole expansion :   0.200526E-01

  Integrating Hamiltonian matrix: batch-based integration.
  Time summed over all CPUs for integration: real work        0.670 s, elapsed        0.697 s

  Updating Kohn-Sham eigenvalues and eigenvectors using ELSI and the ELPA eigensolver.
  Starting ELPA eigensolver
  Finished transformation to standard eigenproblem
  | Time :     0.000 s
  Finished solving standard eigenproblem
  | Time :     0.003 s
  Finished back-transformation of eigenvectors
  | Time :     0.000 s

  Obtaining occupation numbers and chemical potential using ELSI.
  | Chemical potential (Fermi level):    -7.80841092 eV
  Highest occupied state (VBM) at     -9.00857521 eV
  | Occupation number:      2.00000000

  Lowest unoccupied state (CBM) at    -4.49996243 eV
  | Occupation number:      0.00000000

  Overall HOMO-LUMO gap:      4.50861278 eV.

  Total energy components:
  | Sum of eigenvalues            :        -886.61787046 Ha      -24126.09977770 eV
  | XC energy correction          :        -145.31102870 Ha       -3954.11427404 eV
  | XC potential correction       :         189.21808118 Ha        5148.88596131 eV
  | Free-atom electrostatic energy:        -780.26405260 Ha      -21232.06514693 eV
  | Hartree energy correction     :          -2.07596125 Ha         -56.48977981 eV
  | Entropy correction            :           0.00000000 Ha           0.00000000 eV
[...]
   Total forces(   7)            :  0.174660E+01  0.372122E+00 -0.316111E+00
  atom #    8
   Hellmann-Feynman              :  0.229595E+01  0.424382E+00 -0.379125E+01
   Ionic forces                  :  0.000000E+00  0.000000E+00  0.000000E+00
   Multipole                     :  0.673667E+00  0.146602E+00  0.734817E-01
   Hartree pot. SCF incomplete   : -0.205321E-05 -0.424160E-06  0.105354E-05
   Pulay + GGA                   :  0.755597E+00  0.132616E+00 -0.158285E+01
   ----------------------------------------------------------------
   Total forces(   8)            :  0.372521E+01  0.703600E+00 -0.530062E+01
  atom #    9
   Hellmann-Feynman              :  0.739678E-01  0.327894E+01  0.138960E+01
   Ionic forces                  :  0.000000E+00  0.000000E+00  0.000000E+00
   Multipole                     :  0.298047E-02  0.619764E+00  0.266962E+00
   Hartree pot. SCF incomplete   : -0.165317E-05  0.233582E-06  0.262304E-05
   Pulay + GGA                   : -0.358532E-01 -0.596334E+01 -0.303056E+01
   ----------------------------------------------------------------
   Total forces(   9)            :  0.410934E-01 -0.206463E+01 -0.137400E+01
  atom #   10
   Hellmann-Feynman              :  0.141027E+01 -0.290262E+01  0.150632E+01
   Ionic forces                  :  0.000000E+00  0.000000E+00  0.000000E+00
   Multipole                     :  0.256369E+00 -0.553091E+00  0.289200E+00
   Hartree pot. SCF incomplete   : -0.143036E-05 -0.798448E-06  0.264241E-05
   Pulay + GGA                   : -0.247026E+01  0.530131E+01 -0.324490E+01
   ----------------------------------------------------------------
   Total forces(  10)            : -0.803625E+00  0.184559E+01 -0.144938E+01
  atom #   11
   Hellmann-Feynman              : -0.203095E+01 -0.395202E+00  0.229368E+01
   Ionic forces                  :  0.000000E+00  0.000000E+00  0.000000E+00
   Multipole                     : -0.354030E+00 -0.665869E-01  0.525563E+00
   Hartree pot. SCF incomplete   : -0.703176E-06 -0.125772E-06  0.122547E-05
   Pulay + GGA                   :  0.465359E+01  0.896778E+00 -0.572099E+01
   ----------------------------------------------------------------
   Total forces(  11)            :  0.226861E+01  0.434989E+00 -0.290175E+01
  atom #   12
   Hellmann-Feynman              :  0.243176E+01  0.460586E+00 -0.343963E+01
   Ionic forces                  :  0.000000E+00  0.000000E+00  0.000000E+00
   Multipole                     :  0.383580E+00  0.680685E-01 -0.777645E+00
   Hartree pot. SCF incomplete   : -0.131008E-05 -0.240069E-06  0.193315E-05
   Pulay + GGA                   : -0.400035E+01 -0.743946E+00  0.632192E+01
   ----------------------------------------------------------------
   Total forces(  12)            : -0.118501E+01 -0.215292E+00  0.210465E+01


  Self-consistency convergence accuracy:
  | Change of charge density      :  0.3826E-06
  | Change of sum of eigenvalues  : -0.7237E-04 eV
  | Change of total energy        : -0.7425E-09 eV
  | Change of forces              :  0.2309E-05 eV/A

  Writing Kohn-Sham eigenvalues.

  State    Occupation    Eigenvalue [Ha]    Eigenvalue [eV]
      1       2.00000         -55.653826        -1514.41766
      2       2.00000         -55.639767        -1514.03509
      3       2.00000         -55.559542        -1511.85206
      4       2.00000         -24.360586         -662.88528
      5       2.00000         -24.321482         -661.82121
      6       2.00000         -24.321481         -661.82116
      7       2.00000         -24.234997         -659.46782
      8       2.00000         -24.228768         -659.29832
      9       2.00000         -24.219331         -659.04154
     10       2.00000         -24.213161         -658.87363
     11       2.00000         -24.180619         -657.98812
     12       2.00000         -24.180619         -657.98812
     13       2.00000          -4.102131         -111.62465
     14       2.00000          -4.101965         -111.62015
     15       2.00000          -4.025241         -109.53237
     16       2.00000          -2.696950          -73.38776
     17       2.00000          -2.694708          -73.32673
     18       2.00000          -2.694273          -73.31490
     19       2.00000          -2.693970          -73.30665
     20       2.00000          -2.691017          -73.22629
     21       2.00000          -2.690174          -73.20336
     22       2.00000          -2.620908          -71.31854
     23       2.00000          -2.615373          -71.16793
     24       2.00000          -2.613430          -71.11504
     25       2.00000          -1.281854          -34.88102
     26       2.00000          -1.208138          -32.87511
     27       2.00000          -1.189857          -32.37764
     28       2.00000          -1.091830          -29.71022
     29       2.00000          -1.085493          -29.53777
     30       2.00000          -1.063259          -28.93275
     31       2.00000          -1.054738          -28.70087
     32       2.00000          -1.035977          -28.19036
     33       2.00000          -1.031392          -28.06559
     34       2.00000          -0.656126          -17.85410
     35       2.00000          -0.595691          -16.20957
     36       2.00000          -0.571759          -15.55835
     37       2.00000          -0.568441          -15.46807
     38       2.00000          -0.559535          -15.22572
     39       2.00000          -0.539153          -14.67109
     40       2.00000          -0.506385          -13.77943
     41       2.00000          -0.487504          -13.26567
     42       2.00000          -0.482090          -13.11833
     43       2.00000          -0.454365          -12.36391
     44       2.00000          -0.446489          -12.14957
     45       2.00000          -0.435943          -11.86261
     46       2.00000          -0.409095          -11.13205
     47       2.00000          -0.401320          -10.92047
     48       2.00000          -0.395704          -10.76764
     49       2.00000          -0.395037          -10.74952
     50       2.00000          -0.393886          -10.71818
     51       2.00000          -0.392657          -10.68475
     52       2.00000          -0.374495          -10.19052
     53       2.00000          -0.371291          -10.10333
     54       2.00000          -0.369989          -10.06791
     55       2.00000          -0.361848           -9.84640
     56       2.00000          -0.352863           -9.60189
     57       2.00000          -0.347098           -9.44502
     58       2.00000          -0.342408           -9.31741
     59       2.00000          -0.336116           -9.14619
     60       2.00000          -0.330717           -8.99927
     61       0.00000          -0.164863           -4.48614
     62       0.00000          -0.105316           -2.86580
     63       0.00000          -0.069591           -1.89368
     64       0.00000          -0.040826           -1.11092
     65       0.00000          -0.020729           -0.56407
     66       0.00000          -0.014605           -0.39741
     67       0.00000           0.005934            0.16147
     68       0.00000           0.024476            0.66603
     69       0.00000           0.043931            1.19542
     70       0.00000           0.049162            1.33777
     71       0.00000           0.075522            2.05505
     72       0.00000           0.092755            2.52399
     73       0.00000           0.127992            3.48285
     74       0.00000           0.157549            4.28712
     75       0.00000           0.160649            4.37148
     76       0.00000           0.164316            4.47126
     77       0.00000           0.180019            4.89858
     78       0.00000           0.182333            4.96154
     79       0.00000           0.183934            5.00510
     80       0.00000           0.187638            5.10590
     81       0.00000           0.211532            5.75607
     82       0.00000           0.218621            5.94899
     83       0.00000           0.224032            6.09623
     84       0.00000           0.229473            6.24427
     85       0.00000           0.231329            6.29477
     86       0.00000           0.241851            6.58109
     87       0.00000           0.242096            6.58777
     88       0.00000           0.274091            7.45841
     89       0.00000           0.276366            7.52031
     90       0.00000           0.285359            7.76501
     91       0.00000           0.326710            8.89023
     92       0.00000           0.333847            9.08443
     93       0.00000           0.343773            9.35454
     94       0.00000           0.350657            9.54187
     95       0.00000           0.360568            9.81155
     96       0.00000           0.369731           10.06089

  Highest occupied state (VBM) at     -8.99926623 eV
  | Occupation number:      2.00000000

  Lowest unoccupied state (CBM) at    -4.48613897 eV
  | Occupation number:      0.00000000

  Overall HOMO-LUMO gap:      4.51312725 eV.
  | Chemical Potential                          :    -7.80409715 eV

  Self-consistency cycle converged.


------------------------------------------------------------
  End self-consistency iteration #    14       :  max(cpu_time)    wall_clock(cpu1)
  | Time for this iteration                     :        0.310 s           0.310 s
  | Charge density & force component update     :        0.148 s           0.149 s
  | Density mixing                              :        0.011 s           0.010 s
  | Hartree multipole update                    :        0.004 s           0.003 s
  | Hartree multipole summation                 :        0.051 s           0.051 s
  | Hartree pot. SCF incomplete forces          :        0.033 s           0.033 s
  | Integration                                 :        0.033 s           0.033 s
  | Solution of K.-S. eqns.                     :        0.028 s           0.029 s
  | Total energy evaluation                     :        0.001 s           0.001 s

  Partial memory accounting:
  | Current value for overall tracked memory usage:
  |   Minimum:        0.274 MB (on task 23)
  |   Maximum:        0.293 MB (on task  0)
  |   Average:        0.289 MB
  | Peak value for overall tracked memory usage:
  |   Minimum:        2.870 MB (on task 14 after allocating hessian_basis_wave)
  |   Maximum:        3.105 MB (on task 18 after allocating hessian_basis_wave)
  |   Average:        2.978 MB
  | Largest tracked array allocation so far:
  |   Minimum:        1.387 MB (hessian_basis_wave on task 14)
  |   Maximum:        1.528 MB (hessian_basis_wave on task 18)
  |   Average:        1.455 MB
  Note:  These values currently only include a subset of arrays which are explicitly tracked.
  The "true" memory usage will be greater.
------------------------------------------------------------
  Removing unitary transformations (pure translations, rotations) from forces on atoms.
  Atomic forces before filtering:
  | Net force on center of mass :  -0.572081E-02 -0.467357E-02 -0.120304E-02 eV/A
  | Net torque on center of mass:   0.103381E-01 -0.262810E-01 -0.102941E-02 eV
  Atomic forces after filtering:
  | Net force on center of mass :  -0.107044E-14 -0.267609E-15  0.178406E-14 eV/A
  | Net torque on center of mass:   0.849676E-15 -0.453161E-14 -0.755268E-15 eV

  Energy and forces in a compact form:
  | Total energy uncorrected      :         -0.442198826299792E+05 eV
  | Total energy corrected        :         -0.442198826299792E+05 eV  <-- do not rely on this value for anything but (periodic) metals
  | Electronic free energy        :         -0.442198826299792E+05 eV
  Total atomic forces (unitary forces cleaned) [eV/Ang]:
  |    1          0.141511702978581E+01          0.238524061033793E+00         -0.346511459852182E+01
  |    2         -0.399042198292233E+01         -0.688035157172054E+00          0.921028490514201E+01
  |    3         -0.236525348706539E+01         -0.511924790368751E+00          0.203406928306840E-01
  |    4          0.105805973272349E+01          0.295395794766622E+00          0.344333451823118E+01
  |    5         -0.109270624864156E+01          0.421288939302572E+00          0.316521672743916E-02
  |    6         -0.822433054612069E+00         -0.834880350365261E+00          0.256408153225580E-01
  |    7          0.174753283573576E+01          0.372729679478044E+00         -0.315733165371351E+00
  |    8          0.372588518848753E+01          0.704089263919352E+00         -0.530120991466204E+01
  |    9          0.425670129038199E-01         -0.206376165060425E+01         -0.137457701393398E+01
  |   10         -0.802121686593204E+00          0.184647669345679E+01         -0.144967082142991E+01
  |   11          0.226917834344152E+01          0.435410535363639E+00         -0.290043132595660E+01
  |   12         -0.118540368324338E+01         -0.215313018810496E+00          0.210397069162184E+01

  ------------------------------------ 
  Start decomposition of the XC Energy 
  ------------------------------------ 
  X and C from original XC functional choice 
  Hartree-Fock Energy :          0.000000000 Ha              0.000000000 eV
  X Energy            :       -140.358369094 Ha          -3819.345549221 eV
  C Energy            :         -4.955479182 Ha           -134.845449413 eV
  Total XC Energy     :       -145.313848277 Ha          -3954.190998634 eV
  ------------------------------------ 
  LDA X and C from self-consistent density 
  X Energy LDA        :       -132.943809864 Ha          -3617.585127095 eV
  C Energy LDA        :         -8.833444288 Ha           -240.370248981 eV
  ------------------------------------ 
  End decomposition of the XC Energy 
  ------------------------------------ 

------------------------------------------------------------

------------------------------------------------------------------------------
  Final output of selected total energy values:

  The following output summarizes some interesting total energy values
  at the end of a run (AFTER all relaxation, molecular dynamics, etc.).

  | Total energy of the DFT / Hartree-Fock s.c.f. calculation      :         -44219.882629979 eV
  | Final zero-broadening corrected energy (caution - metals only) :         -44219.882629979 eV
  | For reference only, the value of 1 Hartree used in FHI-aims is :             27.211384500 eV

  Before relying on these values, please be sure to understand exactly which
  total energy value is referred to by a given number. Different objects may
  all carry the same name 'total energy'. Definitions:

  Total energy of the DFT / Hartree-Fock s.c.f. calculation:
  | Note that this energy does not include ANY quantities calculated after the
  | s.c.f. cycle, in particular not ANY RPA, MP2, etc. many-body perturbation terms.

  Final zero-broadening corrected energy:
  | For metallic systems only, a broadening of the occupation numbers at the Fermi
  | level can be extrapolated back to zero broadening by an electron-gas inspired
  | formula. For all systems that are not real metals, this value can be
  | meaningless and should be avoided.

------------------------------------------------------------------------------
  Methods described in the following list of references were used in this FHI-aims run.
  If you publish the results, please make sure to cite these reference if they apply.
  FHI-aims is an academic code, and for our developers (often, Ph.D. students
  and postdocs), scientific credit in the community is essential.
  Thank you for helping us!

  For any use of FHI-aims, please cite:

    Volker Blum, Ralf Gehrke, Felix Hanke, Paula Havu, Ville Havu,
    Xinguo Ren, Karsten Reuter, and Matthias Scheffler
    'Ab initio molecular simulations with numeric atom-centered orbitals'
    Computer Physics Communications 180, 2175-2196 (2009)
    http://dx.doi.org/10.1016/j.cpc.2009.06.022


  The ELSI infrastructure was used in your run to solve the Kohn-Sham electronic structure.
  Please check out http://elsi-interchange.org to learn more.
  If scalability is important for your project, please acknowledge ELSI by citing:

    V. W-z. Yu, F. Corsetti, A. Garcia, W. P. Huhn, M. Jacquelin, W. Jia,
    B. Lange, L. Lin, J. Lu, W. Mi, A. Seifitokaldani, A. Vazquez-Mayagoitia,
    C. Yang, H. Yang, and V. Blum
    'ELSI: A unified software interface for Kohn-Sham electronic structure solvers'
    Computer Physics Communications 222, 267-285 (2018).
    http://dx.doi.org/10.1016/j.cpc.2017.09.007


  For the real-space grid partitioning and parallelization used in this calculation, please cite:

    Ville Havu, Volker Blum, Paula Havu, and Matthias Scheffler,
    'Efficient O(N) integration for all-electron electronic structure calculation'
    'using numerically tabulated basis functions'
    Journal of Computational Physics 228, 8367-8379 (2009).
    http://dx.doi.org/10.1016/j.jcp.2009.08.008

  Of course, there are many other important community references, e.g., those cited in the
  above references. Our list is limited to references that describe implementations in the
  FHI-aims code. The reason is purely practical (length of this list) - please credit others as well.

------------------------------------------------------------
          Leaving FHI-aims.
          Date     :  20220517, Time     :  115006.357

          Computational steps:
          | Number of self-consistency cycles          :           14
          | Number of SCF (re)initializations          :            1

          Detailed time accounting                     :  max(cpu_time)    wall_clock(cpu1)
          | Total time                                  :        2.085 s           2.166 s
          | Preparation time                            :        0.184 s           0.184 s
          | Boundary condition initalization            :        0.000 s           0.000 s
          | Grid partitioning                           :        0.037 s           0.037 s
          | Preloading free-atom quantities on grid     :        0.016 s           0.015 s
          | Free-atom superposition energy              :        0.005 s           0.005 s
          | Total time for integrations                 :        0.473 s           0.477 s
          | Total time for solution of K.-S. equations  :        0.165 s           0.166 s
          | Total time for density & force components   :        0.657 s           0.657 s
          | Total time for mixing                       :        0.083 s           0.054 s
          | Total time for Hartree multipole update     :        0.035 s           0.033 s
          | Total time for Hartree multipole sum        :        0.308 s           0.308 s
          | Total time for total energy evaluation      :        0.004 s           0.002 s
          | Total time NSC force correction             :        0.065 s           0.066 s
          | Total time for scaled ZORA corrections      :        0.000 s           0.000 s

          Partial memory accounting:
          | Residual value for overall tracked memory usage across tasks:     0.000000 MB (should be 0.000000 MB)
          | Peak values for overall tracked memory usage:
          |   Minimum:        2.870 MB (on task 14 after allocating hessian_basis_wave)
          |   Maximum:        3.105 MB (on task 18 after allocating hessian_basis_wave)
          |   Average:        2.978 MB
          | Largest tracked array allocation:
          |   Minimum:        1.387 MB (hessian_basis_wave on task 14)
          |   Maximum:        1.528 MB (hessian_basis_wave on task 18)
          |   Average:        1.455 MB
          Note:  These values currently only include a subset of arrays which are explicitly tracked.
          The "true" memory usage will be greater.

          Have a nice day.
------------------------------------------------------------
