12
Properties=species:S:1:pos:R:3:forces:R:3 energy=-184.90774057 pbc="F F F"
Al    -0.347519238    0.97676536    -1.7578655360000002    -0.365654    -0.032166    2.456922
Al    -0.33726511400000003    1.087575653    1.126375036    3.049818    0.536472    -6.430833
Al    -2.909018319    -0.260357911    -1.856265942    -0.839894    -0.185308    -0.198837
F    -3.562110461    0.368881408    -3.647623508    -0.232903    -0.062816    -0.654398
F    -1.688136957    -0.26608930099999994    -1.858597045    1.850299    1.836989    0.144295
F    -1.493398287    2.367574803    -1.872295583    2.442408    -0.902755    0.196549
F    -2.010605725    0.7808715390000001    0.48217782400000003    0.227801    0.058112    0.465601
F    0.407008327    1.286939843    -0.238450711    -3.668763    -0.743249    2.602749
F    -0.323279175    2.657430197    1.955813147    -0.195427    -0.877112    -0.175293
F    0.332743115    -0.295748858    2.037832445    -0.538689    0.711193    -0.205585
F    -4.339343491999999    0.31190887    -0.5393325649999999    -0.545306    -0.106375    0.601726
F    0.636767227    1.343116537    -3.158400629    -1.183688    -0.232985    1.197106
