********************************************************************************
*                       GENERAL UTILITY LATTICE PROGRAM                        *
*                                 Julian Gale                                  *
*                       Curtin Institute for Computation                       *
*                           Department of Chemistry                            *
*                    Curtin University, Western Australia                      *
********************************************************************************
* Version = 5.1.1 * Last modified =  24th November 2018                        *
********************************************************************************
*  optimise     - perform optimisation run                                     *
*  conp         - constant pressure calculation                                *
*  shell        - only shells and radii to be optimised                        *
*  phonon       - calculate phonons for final geometry                         *
*  eigenvectors - output phonon eigenvectors                                   *
********************************************************************************

  Job Started  at 14:38.44 25th May        2022                               

  Number of CPUs =     1

  Host name      = login03                                 


  Total number of configurations input =      1

********************************************************************************
*  Input for Configuration =   1                                               *
********************************************************************************

  Formula = Al3F9                                                       

  Number of irreducible atoms/shells =      21


  Total number atoms/shells =      21

  Dimensionality = 0               :  Cluster


  Charge on cluster =  -0.000000


  Initial cluster dipoles : x =     -1.615878 e.Angs
                            y =      0.480948 e.Angs
                            z =     -4.117961 e.Angs

  Temperature of configuration =  0.000     K 

  Symmetry number =      1

  Cartesian coordinates of cluster :

--------------------------------------------------------------------------------
   No.  Atomic       x           y          z         Charge      Occupancy
        Label      (Angs)      (Angs)     (Angs)        (e)         (Frac)  
--------------------------------------------------------------------------------
      1 Al    c      1.2908      0.1509      2.2344     3.00000    1.000000    
      2 Al    c      1.0752      1.2882     -0.6828     3.00000    1.000000    
      3 Al    c     -0.4590      0.7986     -2.5049     3.00000    1.000000    
      4 F     c     -1.4717     -0.1934     -2.2320     0.59000    1.000000    
      5 F     c      2.1179     -0.4972      0.9349     0.59000    1.000000    
      6 F     c      0.0010      1.6904     -3.6023     0.59000    1.000000    
      7 F     c     -0.1853      1.8993     -0.6109     0.59000    1.000000    
      8 F     c      2.5915      2.4192     -0.3097     0.59000    1.000000    
      9 F     c      1.3385      0.1221     -1.4164     0.59000    1.000000    
     10 F     c      0.3981      1.5086      1.8441     0.59000    1.000000    
     11 F     c      2.7108      0.6675      3.7808     0.59000    1.000000    
     12 F     c     -0.1639     -1.3842      2.8695     0.59000    1.000000    
     13 F     s     -1.4717 *   -0.1934 *   -2.2320 *  -1.59000    1.000000    
     14 F     s      2.1179 *   -0.4972 *    0.9349 *  -1.59000    1.000000    
     15 F     s      0.0010 *    1.6904 *   -3.6023 *  -1.59000    1.000000    
     16 F     s     -0.1853 *    1.8993 *   -0.6109 *  -1.59000    1.000000    
     17 F     s      2.5915 *    2.4192 *   -0.3097 *  -1.59000    1.000000    
     18 F     s      1.3385 *    0.1221 *   -1.4164 *  -1.59000    1.000000    
     19 F     s      0.3981 *    1.5086 *    1.8441 *  -1.59000    1.000000    
     20 F     s      2.7108 *    0.6675 *    3.7808 *  -1.59000    1.000000    
     21 F     s     -0.1639 *   -1.3842 *    2.8695 *  -1.59000    1.000000    
--------------------------------------------------------------------------------


  Brillouin zone sampling points :

--------------------------------------------------------------------------------
  Point number          x          y          z            Weight
--------------------------------------------------------------------------------
        1           0.000000   0.000000   0.000000     1.00000000
--------------------------------------------------------------------------------


********************************************************************************
*  General input information                                                   *
********************************************************************************

  Species output for all configurations : 

--------------------------------------------------------------------------------
  Species    Type    Atomic    Atomic    Charge       Radii (Angs)     Library
                     Number     Mass       (e)     Cova   Ionic  VDW   Symbol
--------------------------------------------------------------------------------
    Al       Core       13      26.98   3.000000   1.350  0.000  2.050          
    F        Core        9      19.00   0.590000   0.710  0.000  1.300          
    F        Shell       9       0.00  -1.590000   0.710  0.000  1.300          
--------------------------------------------------------------------------------


  Accuracy factor for short range sums = 12.000

  Time limit = Infinity

  Maximum range for interatomic potentials =    100000.000000 Angstroms

  General interatomic potentials :

--------------------------------------------------------------------------------
Atom  Types   Potential      Parameter       Value         Units   Cutoffs(Ang)
  1     2                                                            Min /  Max 
--------------------------------------------------------------------------------
Al   c F    s Buckingham    Buckingham A     3760.0008    eV        0.000 10.000
                            Buckingham rho  0.22200000    Ang       
                            Buckingham C     0.0000000    eV*Ang^6  
--------------------------------------------------------------------------------
F    s F    s Buck 4 range  Buck4 A          1127.7000    eV        0.000 12.000
                            Buck4 rho       0.27530000    Ang       
                            Buck4 C          15.830000    eV*Ang^6  
                            Buck4 minimum    2.7900000    Ang       
--------------------------------------------------------------------------------
F    c F    s Spring (c-s)  Spring k 2       20.770000    eV*Ang^-2 0.000  0.800
                            Spring k 4       0.0000000    eV*Ang^-4 
--------------------------------------------------------------------------------

********************************************************************************
*  Output for configuration   1                                                *
********************************************************************************


  Components of energy : 

--------------------------------------------------------------------------------
  Interatomic potentials     =          29.10798309 eV    
  Monopole - monopole (real) =        -186.24954270 eV    
--------------------------------------------------------------------------------
  Total lattice energy       =        -157.14155961 eV    
--------------------------------------------------------------------------------
  Total lattice energy       =          -15161.7584 kJ/mol
--------------------------------------------------------------------------------


  Number of variables =       27

  Maximum number of calculations  =          2000
  Maximum Hessian update interval =            10
  Maximum step size               =   1.000000000
  Maximum parameter tolerance     =   0.000001000
  Maximum function  tolerance     =   0.000010000
  Maximum gradient  tolerance     =   0.000000010
  Maximum gradient  component     =   0.010000000

  Symmetry not applied to optimisation

  Newton-Raphson optimiser to be used

  BFGS hessian update to be used

  Lower half triangular hessian to be used

  Minimiser to switch to RFO
  When gradient norm is less than     0.010000

  Shell only optimisation

  Start of cluster optimisation :

  Cycle:      0 Energy:      -157.141560  Gnorm:      1.083267  CPU:    0.004
  ** Hessian calculated **
  Cycle:      1 Energy:      -169.602262  Gnorm:      0.417081  CPU:    0.005
  ** Hessian calculated **
  Cycle:      2 Energy:      -171.205908  Gnorm:      0.052404  CPU:    0.007
  Cycle:      3 Energy:      -171.228329  Gnorm:      0.015600  CPU:    0.008
  Cycle:      4 Energy:      -171.231058  Gnorm:      0.002064  CPU:    0.010
  ** Hessian has required structure
  Cycle:      5 Energy:      -171.231080  Gnorm:      0.001368  CPU:    0.011
  ** Hessian has required structure
  Cycle:      6 Energy:      -171.231091  Gnorm:      0.000350  CPU:    0.013
  ** Hessian has required structure
  Cycle:      7 Energy:      -171.231091  Gnorm:      0.000275  CPU:    0.014
  ** Hessian has required structure
  Cycle:      8 Energy:      -171.231092  Gnorm:      0.000212  CPU:    0.015
  ** Hessian has required structure
  Cycle:      9 Energy:      -171.231092  Gnorm:      0.000128  CPU:    0.017
  ** Hessian has required structure
  Cycle:     10 Energy:      -171.231092  Gnorm:      0.000042  CPU:    0.018
  ** Hessian has required structure
  Cycle:     11 Energy:      -171.231092  Gnorm:      0.000027  CPU:    0.019
  ** Hessian has required structure
  Cycle:     12 Energy:      -171.231092  Gnorm:      0.000000  CPU:    0.021
  ** Hessian has required structure
  Cycle:     13 Energy:      -171.231092  Gnorm:      0.000000  CPU:    0.022
  ** Hessian has required structure
  Cycle:     14 Energy:      -171.231092  Gnorm:      0.000000  CPU:    0.024
  ** Hessian has required structure
  Cycle:     15 Energy:      -171.231092  Gnorm:      0.000000  CPU:    0.025
  ** Hessian calculated **

  XYZ File written as 001/5/sp_mod_-100/sp_mod_-100_eig.xyz



  **** Optimisation achieved ****


  Final energy =    -171.23109221 eV
  Final Gnorm  =       0.00000002

  Components of energy : 

--------------------------------------------------------------------------------
  Interatomic potentials     =          48.28624383 eV    
  Monopole - monopole (real) =        -219.51733604 eV    
--------------------------------------------------------------------------------
  Total lattice energy       =        -171.23109221 eV    
--------------------------------------------------------------------------------
  Total lattice energy       =          -16521.1829 kJ/mol
--------------------------------------------------------------------------------

  Final cartesian coordinates of atoms :

--------------------------------------------------------------------------------
   No.  Atomic        x           y          z          Radius
        Label       (Angs)      (Angs)     (Angs)       (Angs) 
--------------------------------------------------------------------------------
     1  Al    c     1.290787    0.150883    2.234355    0.000000
     2  Al    c     1.075243    1.288249   -0.682788    0.000000
     3  Al    c    -0.459045    0.798590   -2.504927    0.000000
     4  F     c    -1.471707   -0.193412   -2.231954    0.000000
     5  F     c     2.117912   -0.497223    0.934928    0.000000
     6  F     c     0.000955    1.690403   -3.602348    0.000000
     7  F     c    -0.185296    1.899296   -0.610912    0.000000
     8  F     c     2.591463    2.419185   -0.309685    0.000000
     9  F     c     1.338530    0.122077   -1.416424    0.000000
    10  F     c     0.398066    1.508605    1.844059    0.000000
    11  F     c     2.710772    0.667513    3.780761    0.000000
    12  F     c    -0.163862   -1.384224    2.869457    0.000000
    13  F     s    -1.465693   -0.177508   -2.255665    0.000000
    14  F     s     1.955960   -0.314609    0.905539    0.000000
    15  F     s     0.001269    1.666316   -3.548609    0.000000
    16  F     s    -0.272193    1.756910   -0.938912    0.000000
    17  F     s     2.291061    2.206224   -0.408111    0.000000
    18  F     s     1.060282    0.202861   -1.643274    0.000000
    19  F     s     0.508420    1.373633    1.670726    0.000000
    20  F     s     2.421407    0.566567    3.456076    0.000000
    21  F     s     0.122744   -1.074924    2.729231    0.000000
--------------------------------------------------------------------------------


  Final Cartesian derivatives :

--------------------------------------------------------------------------------
   No.  Atomic          x             y             z           Radius
        Label       (eV/Angs)     (eV/Angs)    (eV/Angs)      (eV/Angs)
--------------------------------------------------------------------------------
      1 Al    c       0.000000      0.000000      0.000000      0.000000
      2 Al    c       0.000000      0.000000      0.000000      0.000000
      3 Al    c       0.000000      0.000000      0.000000      0.000000
      4 F     c       0.000000      0.000000      0.000000      0.000000
      5 F     c       0.000000      0.000000      0.000000      0.000000
      6 F     c       0.000000      0.000000      0.000000      0.000000
      7 F     c       0.000000      0.000000      0.000000      0.000000
      8 F     c       0.000000      0.000000      0.000000      0.000000
      9 F     c       0.000000      0.000000      0.000000      0.000000
     10 F     c       0.000000      0.000000      0.000000      0.000000
     11 F     c       0.000000      0.000000      0.000000      0.000000
     12 F     c       0.000000      0.000000      0.000000      0.000000
     13 F     s      -0.000000     -0.000000     -0.000000      0.000000
     14 F     s       0.000000      0.000000     -0.000000      0.000000
     15 F     s       0.000000      0.000000      0.000000      0.000000
     16 F     s       0.000000     -0.000000      0.000000      0.000000
     17 F     s       0.000000      0.000000      0.000000      0.000000
     18 F     s      -0.000000      0.000000      0.000000      0.000000
     19 F     s       0.000000      0.000000     -0.000000      0.000000
     20 F     s       0.000000      0.000000      0.000000      0.000000
     21 F     s       0.000000      0.000000     -0.000000      0.000000
--------------------------------------------------------------------------------
  Maximum abs         0.000000      0.000000      0.000000      0.000000
--------------------------------------------------------------------------------


  Born effective charge tensors : 

-------------------------------------------------------------------------------
  Atom             x           y             z
-------------------------------------------------------------------------------
    1 Al    x       1.1265      0.4832      0.0606
            y       0.4892      0.9439      0.0142
            z       0.0474      0.0029      0.6141
-------------------------------------------------------------------------------
    2 Al    x       0.6374     -0.2942     -0.1668
            y      -0.2398      1.1956     -0.7338
            z      -0.2868     -0.8366      2.3721
-------------------------------------------------------------------------------
    3 Al    x       1.6044     -0.8625      0.6107
            y      -0.9190      1.1430      0.7867
            z       0.7353      0.8935      1.7073
-------------------------------------------------------------------------------
    4 F     x      -0.2587      0.5230     -0.2077
            y       0.4707     -0.2692     -0.1898
            z      -0.0925     -0.0911     -0.7328
-------------------------------------------------------------------------------
    5 F     x      -0.4714      0.1041     -0.3321
            y       0.1066     -0.6306      0.3641
            z      -0.2772      0.2973     -0.3017
-------------------------------------------------------------------------------
    6 F     x      -0.6341      0.1652     -0.2263
            y       0.2359     -0.3328     -0.3796
            z      -0.3823     -0.5133     -0.2978
-------------------------------------------------------------------------------
    7 F     x       0.1506     -0.1184      0.1369
            y      -0.1919     -0.3928     -0.2155
            z       0.1117     -0.1639     -0.6002
-------------------------------------------------------------------------------
    8 F     x      -0.1551      0.2088      0.0668
            y       0.2179     -0.3065      0.1309
            z       0.0469      0.1138     -0.5964
-------------------------------------------------------------------------------
    9 F     x      -0.5708      0.1212     -0.1426
            y       0.1702     -0.1134      0.3639
            z      -0.0635      0.3584     -0.1583
-------------------------------------------------------------------------------
   10 F     x      -0.3484     -0.1595      0.2353
            y      -0.1603     -0.1793     -0.2324
            z       0.1768     -0.1687     -0.8760
-------------------------------------------------------------------------------
   11 F     x      -0.5073     -0.0392     -0.0584
            y      -0.0421     -0.4732      0.0140
            z      -0.0520      0.0196     -0.5723
-------------------------------------------------------------------------------
   12 F     x      -0.5730     -0.1316      0.0236
            y      -0.1374     -0.5848      0.0773
            z       0.0363      0.0881     -0.5578
-------------------------------------------------------------------------------




  Moment of inertia tensor (10^-46 x kgm^2): 

-------------------------------------------------------------------------------
                x           y           z           Principal axis system
-------------------------------------------------------------------------------
       x        245.36       -8.03      -56.62           80.609217
       y         -8.03      262.89       32.86          248.027492
       z        -56.62       32.86      105.05          284.664003
-------------------------------------------------------------------------------
  Centre of mass (Ang) =     0.757523     0.709637    -0.007231
-------------------------------------------------------------------------------


  Vibrational Frequency Calculation : 

--------------------------------------------------------------------------------

  Frequencies (cm-1) and Eigenvectors : 

  Frequency    -485.2004 -397.7226 -315.7521 -299.6865 -292.9788 -261.9313
  IR Intensity    0.2844    0.2081    0.2165    0.0421    0.0372    0.0225
     in X         0.0003    0.0788    0.0461    0.0160    0.0141    0.0135
     in Y         0.0433    0.1072    0.0000    0.0217    0.0191    0.0050
     in Z         0.2408    0.0220    0.1704    0.0045    0.0039    0.0041
  Raman Intsty    0.4323    0.0000    0.7503    0.0000    0.0000    0.0225

     1 x       0.009664  0.002092 -0.005942 -0.010782 -0.011398 -0.017946
     1 y      -0.005586 -0.002439 -0.009253  0.012576  0.013293 -0.009285
     1 z       0.030606 -0.001106  0.009175  0.005700  0.006025 -0.013464
     2 x      -0.208060 -0.037873  0.152075  0.213528  0.144988  0.161973
     2 y      -0.457158  0.044171  0.037149 -0.249035 -0.169097  0.161889
     2 z       0.615041  0.020020  0.205713 -0.112874 -0.076643 -0.050765
     3 x       0.135574  0.471242  0.193832 -0.047886 -0.007481  0.077240
     3 y       0.128532 -0.549603  0.002304  0.055848  0.008723  0.010794
     3 z      -0.027111 -0.249104  0.361600  0.025310  0.003953  0.122302
     4 x       0.094943 -0.312506 -0.241822 -0.295223  0.195629  0.158923
     4 y       0.066119  0.364471  0.128838  0.344316 -0.228160 -0.028396
     4 z       0.033728  0.165194 -0.741715  0.156067 -0.103410  0.363286
     5 x      -0.070295 -0.012408 -0.014553 -0.157779 -0.206379  0.035441
     5 y       0.049775 -0.001230  0.062193  0.198265  0.248849  0.025898
     5 z      -0.060575 -0.009070 -0.034541 -0.168128 -0.218792  0.004651
     6 x      -0.096570 -0.226774 -0.210487  0.166673 -0.280913 -0.634032
     6 y      -0.014248  0.264484 -0.165661 -0.194387  0.327627 -0.330208
     6 z      -0.151248  0.119876 -0.032690 -0.088106  0.148495 -0.470877
     7 x       0.111536 -0.069163  0.028594  0.338107  0.044063  0.049899
     7 y       0.225012 -0.050318 -0.133873  0.253771 -0.228015 -0.026374
     7 z      -0.239438 -0.016223  0.058206  0.041900  0.322803  0.013233
     8 x      -0.100380  0.016434  0.084485  0.077034  0.021545  0.108313
     8 y      -0.104321 -0.019166  0.062024 -0.089844 -0.025127  0.099030
     8 z       0.040272 -0.008687  0.022977 -0.040721 -0.011389 -0.013590
     9 x       0.129966  0.067722 -0.088063 -0.322963  0.061523 -0.005914
     9 y       0.203520  0.051999  0.002172 -0.271433  0.104871  0.038720
     9 z      -0.249182  0.016985  0.119867 -0.049908 -0.378617  0.042737
    10 x       0.002689  0.007727  0.037596 -0.069629 -0.082259  0.033337
    10 y      -0.035345  0.006691  0.001373  0.066957  0.087785  0.028353
    10 z      -0.099155  0.011545 -0.062103  0.288339  0.371369  0.005762
    11 x      -0.005331  0.005374 -0.005766  0.042817  0.053273 -0.007180
    11 y      -0.000302 -0.006268 -0.001957 -0.049937 -0.062132 -0.004393
    11 z      -0.009419 -0.002841 -0.006593 -0.022634 -0.028161 -0.003889
    12 x       0.008303  0.004684  0.004902  0.036427  0.043240 -0.002458
    12 y       0.008049 -0.005463  0.008903 -0.042484 -0.050430  0.002658
    12 z      -0.002052 -0.002476 -0.010372 -0.019256 -0.022857 -0.010514


  Frequency    -214.7576 -185.9984  -97.2787  -75.2406  -26.0349   -0.0000
  IR Intensity    0.0031    0.0008    0.0696    0.0037    0.0020    0.0000
     in X         0.0012    0.0003    0.0001    0.0022    0.0008    0.0000
     in Y         0.0016    0.0004    0.0102    0.0014    0.0010    0.0000
     in Z         0.0003    0.0001    0.0593    0.0000    0.0002    0.0000
  Raman Intsty    0.0000    0.0000    1.6538    0.0017    0.0000    0.0000

     1 x      -0.008803 -0.032302  0.060598  0.421198  0.205199  0.166622
     1 y       0.010267  0.037674 -0.036313  0.344978 -0.239315  0.265514
     1 z       0.004654  0.017076  0.194755  0.035672 -0.108468 -0.093960
     2 x      -0.060286 -0.093529 -0.080251 -0.138898 -0.111880  0.166622
     2 y       0.070312  0.109080  0.044007 -0.106676  0.130482  0.265514
     2 z       0.031867  0.049440 -0.248909 -0.027400  0.059140 -0.093960
     3 x      -0.010164  0.150229 -0.004390 -0.136934 -0.120549  0.166622
     3 y       0.011854 -0.175210  0.080116 -0.118897  0.140592  0.265514
     3 z       0.005373 -0.079413 -0.185065  0.003278  0.063722 -0.093960
     4 x      -0.184718  0.200729 -0.064685 -0.114072 -0.102154  0.139826
     4 y       0.215433 -0.234107  0.083705 -0.098556  0.119139  0.222814
     4 z       0.097643 -0.106109 -0.307044  0.001647  0.053999 -0.078849
     5 x      -0.078586 -0.173240  0.101765 -0.141118  0.390142  0.139826
     5 y       0.118614  0.324863 -0.317626 -0.101380  0.211743  0.222814
     5 z      -0.086430 -0.197587  0.330300 -0.085547 -0.140278 -0.078849
     6 x       0.359669  0.085461 -0.109419 -0.133378 -0.103400  0.139826
     6 y      -0.419481 -0.099672  0.015012 -0.108264  0.120592  0.222814
     6 z      -0.190127 -0.045176 -0.240109 -0.013455  0.054657 -0.078849
     7 x      -0.249577 -0.076066  0.025741 -0.115681 -0.092444  0.139826
     7 y      -0.396244  0.078717  0.245371 -0.092026  0.111392  0.222814
     7 z       0.150972 -0.438585 -0.124424  0.016598  0.053420 -0.078849
     8 x      -0.081580 -0.096017 -0.049827 -0.109692 -0.135910  0.139826
     8 y       0.095146  0.111982 -0.057815 -0.104943  0.158507  0.222814
     8 z       0.043124  0.050755  0.033294  0.024025  0.071843 -0.078849
     9 x       0.350161  0.124536  0.173229 -0.102704 -0.097428  0.139826
     9 y       0.278936 -0.135244  0.073356 -0.107161  0.110051  0.222814
     9 z      -0.204141  0.412965 -0.202389  0.009738  0.046948 -0.078849
    10 x      -0.051155 -0.165954 -0.123722 -0.158037 -0.225469  0.139826
    10 y       0.032701  0.070732 -0.054640 -0.081630 -0.403802  0.222814
    10 z       0.155014  0.376889  0.449496 -0.076598  0.053229 -0.078849
    11 x       0.015870  0.034380  0.068262  0.357620  0.135532  0.139826
    11 y      -0.018509 -0.040097 -0.017699  0.337863 -0.158063  0.222814
    11 z      -0.008389 -0.018174  0.168185 -0.068905 -0.071642 -0.078849
    12 x       0.014356  0.037096  0.007305  0.343839  0.263579  0.139826
    12 y      -0.016743 -0.043265 -0.074301  0.213809 -0.307404  0.222814
    12 z      -0.007589 -0.019609  0.177753  0.178733 -0.139328 -0.078849


  Frequency      -0.0000    0.0000   63.8926  136.7562  159.0245  170.4290
  IR Intensity    0.0000    0.0000    0.0032    0.0166    0.0095    0.0138
     in X         0.0000    0.0000    0.0012    0.0071    0.0055    0.0003
     in Y         0.0000    0.0000    0.0016    0.0080    0.0040    0.0013
     in Z         0.0000    0.0000    0.0003    0.0014    0.0000    0.0122
  Raman Intsty    0.0000    0.0000    0.0000    0.0595    0.3732    0.1371

     1 x       0.031930  0.279833  0.153293  0.089207 -0.015519  0.021625
     1 y       0.090659 -0.168441 -0.178787  0.014009 -0.068504  0.089547
     1 z       0.312810  0.020254 -0.081034  0.137850  0.121785 -0.156661
     2 x       0.031930  0.279833 -0.136383 -0.102446  0.175077  0.021865
     2 y       0.090659 -0.168441  0.159063 -0.116013  0.104197  0.014301
     2 z       0.312810  0.020254  0.072094  0.062161  0.101313  0.009811
     3 x       0.031930  0.279833 -0.073004 -0.147261  0.111051 -0.067113
     3 y       0.090659 -0.168441  0.085145 -0.084442  0.191805 -0.037594
     3 z       0.312810  0.020254  0.038591 -0.092279 -0.213112 -0.044019
     4 x       0.026795  0.234831 -0.043348 -0.102791  0.176203 -0.047878
     4 y       0.076080 -0.141352  0.050557 -0.081339  0.145192 -0.037418
     4 z       0.262505  0.016997  0.022915 -0.014997  0.012986 -0.008019
     5 x       0.026795  0.234831 -0.350561  0.370889 -0.184837  0.244442
     5 y       0.076080 -0.141352 -0.369337  0.306605 -0.055432 -0.017074
     5 z       0.262505  0.016997 -0.250232  0.157441  0.000809  0.042429
     6 x       0.026795  0.234831 -0.039644 -0.052867  0.122559 -0.025501
     6 y       0.076080 -0.141352  0.046237 -0.037176  0.180313 -0.016855
     6 z       0.262505  0.016997  0.020957 -0.017991 -0.165985 -0.011056
     7 x       0.026795  0.234831 -0.116384 -0.140012 -0.085011 -0.034166
     7 y       0.076080 -0.141352  0.133556 -0.197543 -0.399508 -0.094174
     7 z       0.262505  0.016997  0.024350 -0.180192 -0.271379 -0.129850
     8 x       0.026795  0.234831 -0.068619 -0.117174  0.153723  0.055786
     8 y       0.076080 -0.141352  0.080031  0.045987  0.061131 -0.283310
     8 z       0.262505  0.016997  0.036273 -0.323125  0.155938  0.730612
     9 x       0.026795  0.234831 -0.099568 -0.280661 -0.482326 -0.143505
     9 y       0.076080 -0.141352  0.118308 -0.033506  0.063876  0.033346
     9 z       0.262505  0.016997  0.089806 -0.105844 -0.061356 -0.072053
    10 x       0.026795  0.234831  0.511543  0.423869 -0.093450  0.061139
    10 y       0.076080 -0.141352  0.181589  0.244815 -0.162015  0.196708
    10 z       0.262505  0.016997  0.165135  0.129435 -0.047500  0.139325
    11 x       0.026795  0.234831  0.230865  0.029983 -0.003506  0.016262
    11 y       0.076080 -0.141352 -0.269258 -0.081742 -0.038542  0.062287
    11 z       0.262505  0.016997 -0.122039  0.237068  0.078405 -0.106660
    12 x       0.026795  0.234831  0.042560  0.060022  0.074177 -0.098428
    12 y       0.076080 -0.141352 -0.049640  0.056076 -0.066109  0.077541
    12 z       0.262505  0.016997 -0.022500 -0.010174  0.286183 -0.357282


  Frequency     206.3741  217.3094  219.7192  225.5184  232.1882  260.4422
  IR Intensity    0.0010    0.0006    0.0509    0.0003    0.0313    0.0257
     in X         0.0004    0.0001    0.0193    0.0001    0.0023    0.0160
     in Y         0.0005    0.0003    0.0262    0.0002    0.0012    0.0080
     in Z         0.0001    0.0002    0.0054    0.0000    0.0278    0.0017
  Raman Intsty    0.0000    0.0772    0.0000    0.0000    0.5966    0.0080

     1 x      -0.005966  0.021484  0.010285 -0.013421  0.026015  0.269295
     1 y       0.006958  0.030774 -0.011998  0.015652  0.003637  0.203661
     1 z       0.003154 -0.027258 -0.005435  0.007094  0.041190  0.060099
     2 x       0.202391 -0.176747  0.002020 -0.013655 -0.096036  0.045166
     2 y      -0.236048 -0.179122 -0.002336  0.015924  0.016267  0.033221
     2 z      -0.106987  0.060845 -0.001068  0.007219 -0.217566  0.012145
     3 x      -0.102953  0.198568 -0.243325  0.038800 -0.046668  0.019797
     3 y       0.120076  0.257330  0.283762 -0.045251  0.028210  0.002722
     3 z       0.054421 -0.192051  0.128626 -0.020510 -0.150538  0.031446
     4 x      -0.105653  0.223941 -0.168941  0.027235 -0.030904  0.016723
     4 y       0.123225  0.222615  0.197009 -0.031763  0.021202  0.003605
     4 z       0.055850 -0.067478  0.089301 -0.014396 -0.105251  0.023683
     5 x      -0.003220  0.083246 -0.013521  0.139715 -0.083174 -0.169510
     5 y      -0.093987 -0.045240  0.047915  0.119811  0.323397 -0.143422
     5 z       0.047121  0.047922 -0.040851  0.052793 -0.175082 -0.046904
     6 x      -0.120216  0.020171 -0.167203  0.028422 -0.054953  0.014274
     6 y       0.140208  0.157997  0.194998 -0.033148  0.021724  0.000100
     6 z       0.063545 -0.310393  0.088399 -0.015024 -0.151897  0.026782
     7 x       0.183042 -0.151211 -0.096961 -0.000894 -0.020156  0.018243
     7 y      -0.247900 -0.156563 -0.221231  0.043462  0.135938 -0.016617
     7 z      -0.242631  0.412791 -0.321994  0.062872  0.141308 -0.041286
     8 x      -0.414858 -0.178695  0.363107 -0.000953 -0.062954  0.045617
     8 y       0.483840 -0.116011 -0.423472  0.001111 -0.209572  0.070905
     8 z       0.219298 -0.082198 -0.191927  0.000502  0.343302 -0.070145
     9 x       0.271881 -0.009629  0.347952 -0.063371  0.171826 -0.026799
     9 y      -0.282676 -0.321654 -0.071467  0.031487 -0.087977  0.035914
     9 z       0.002156  0.337985  0.189281 -0.028899  0.039813 -0.017476
    10 x       0.064962 -0.000613 -0.022698 -0.160875  0.195495 -0.186600
    10 y       0.021981  0.052560 -0.005673 -0.095134 -0.001613 -0.123491
    10 z      -0.079758  0.092257  0.059982 -0.041606 -0.322392 -0.037871
    11 x       0.053788  0.034786  0.065421  0.422543 -0.176078 -0.075687
    11 y      -0.062733  0.048102 -0.076308 -0.492803 -0.290522 -0.322280
    11 z      -0.028432 -0.040333 -0.034579 -0.223363  0.307886  0.567869
    12 x      -0.041111 -0.073598 -0.031865 -0.405795  0.199950 -0.034574
    12 y       0.047948  0.028325  0.037169  0.473271  0.030088  0.209765
    12 z       0.021732 -0.201722  0.016862  0.214507  0.311875 -0.528213


  Frequency     317.9405  319.3416  446.7009  479.6502  514.5837  612.5479
  IR Intensity    0.0013    0.0339    0.0465    0.0203    0.0893    0.0026
     in X         0.0000    0.0128    0.0188    0.0108    0.0555    0.0013
     in Y         0.0001    0.0175    0.0225    0.0026    0.0270    0.0012
     in Z         0.0011    0.0036    0.0052    0.0069    0.0069    0.0001
  Raman Intsty    1.0913    0.0000    0.3151    2.1556    0.1632    0.3784

     1 x       0.048473  0.246760  0.184105 -0.048773 -0.495009  0.018008
     1 y      -0.108813 -0.287790  0.273817 -0.057157 -0.329237  0.013158
     1 z       0.331743 -0.130450 -0.255845  0.033840 -0.210032  0.005036
     2 x       0.002202  0.010934 -0.015876 -0.088022  0.002020  0.193474
     2 y       0.042621 -0.012753 -0.014272  0.059091 -0.010537  0.164831
     2 z      -0.089872 -0.005777  0.001456 -0.296889  0.027070  0.002335
     3 x      -0.043488  0.002933  0.074056  0.343676 -0.013857 -0.032059
     3 y      -0.007329 -0.003419  0.020331  0.098933 -0.005138 -0.008448
     3 z      -0.066100 -0.001548  0.095239  0.431871 -0.014877 -0.042009
     4 x      -0.028711 -0.001532  0.058613  0.304718 -0.015721 -0.053136
     4 y      -0.013408  0.001788  0.042920  0.236692 -0.011763 -0.049065
     4 z      -0.024732  0.000811  0.016185  0.054232 -0.003787  0.007734
     5 x      -0.214528  0.144291  0.210951 -0.044841  0.088366 -0.010034
     5 y       0.257964 -0.044856 -0.130919  0.055117 -0.106609 -0.009532
     5 z       0.043300 -0.379984 -0.270970  0.040173 -0.163388 -0.001588
     6 x      -0.011888 -0.001345  0.000042 -0.010854  0.001328  0.020820
     6 y       0.009131  0.001569 -0.022721 -0.115546  0.003881  0.043794
     6 z      -0.042635  0.000712  0.050209  0.234399 -0.006050 -0.057236
     7 x       0.007428  0.013676 -0.030040 -0.209681  0.015103  0.443040
     7 y       0.043722 -0.009231 -0.012772  0.039325 -0.003073 -0.168367
     7 z       0.002192 -0.011975 -0.027627 -0.192406  0.010851 -0.012373
     8 x       0.012923 -0.015660 -0.039133 -0.319741 -0.009302 -0.539792
     8 y      -0.023722  0.018265 -0.019251 -0.260820 -0.008557 -0.401405
     8 z       0.076788  0.008276 -0.031557 -0.029417  0.001282 -0.135524
     9 x       0.041314  0.009637 -0.029630 -0.093122  0.005290 -0.046375
     9 y       0.004201 -0.017962 -0.013250 -0.096615  0.008371  0.402432
     9 z      -0.015721 -0.000349 -0.027843 -0.254021  0.016038  0.246338
    10 x       0.193319  0.156852 -0.173098  0.053929 -0.138233 -0.011491
    10 y      -0.217709 -0.306363  0.316991 -0.060077  0.157670 -0.007833
    10 z      -0.172278  0.220800 -0.067957 -0.012038 -0.043605 -0.000818
    11 x       0.431437 -0.292014  0.099213  0.015036  0.446571 -0.008570
    11 y       0.310465  0.340550 -0.031856  0.015113  0.182668 -0.004446
    11 z       0.131227  0.154352  0.257969 -0.004900  0.441776 -0.006402
    12 x      -0.439857 -0.324478 -0.385632  0.058028  0.210574 -0.008269
    12 y      -0.283033  0.378454 -0.462653  0.066613  0.188421 -0.007609
    12 z      -0.207596  0.171534  0.291239 -0.037196 -0.017364  0.001146


  Frequency     741.5502  749.3588  811.6560  918.7261  947.9346 1014.2745
  IR Intensity    0.0209    0.0095    0.0078    0.0052    0.0144    0.0030
     in X         0.0074    0.0000    0.0029    0.0031    0.0055    0.0002
     in Y         0.0005    0.0015    0.0040    0.0011    0.0074    0.0011
     in Z         0.0131    0.0079    0.0008    0.0010    0.0015    0.0017
  Raman Intsty    0.0115    0.5043    0.0000    0.2525    0.0000    0.0114

     1 x       0.008359 -0.081900 -0.458147  0.005356  0.013484 -0.000405
     1 y      -0.017609  0.240234  0.534329  0.015393 -0.015726  0.002155
     1 z       0.054664 -0.684961  0.242184 -0.023832 -0.007127 -0.005521
     2 x       0.081162 -0.007945  0.008126  0.544708  0.430549  0.057799
     2 y       0.062669 -0.021811 -0.009477  0.295842 -0.502158  0.013994
     2 z       0.015268  0.033091 -0.004296  0.377696 -0.227603  0.078468
     3 x       0.235306  0.024924 -0.000451 -0.107137  0.000953 -0.446376
     3 y       0.031339  0.004216  0.000526  0.022382 -0.001112 -0.520952
     3 z       0.375997  0.037847  0.000238 -0.252059 -0.000500  0.304957
     4 x      -0.380604 -0.037270  0.000147 -0.003788  0.002793  0.350192
     4 y      -0.391106 -0.037745 -0.000171  0.005927 -0.003257  0.339881
     4 z       0.142899  0.012772 -0.000078 -0.020243 -0.001476 -0.087413
     5 x       0.015206 -0.203887  0.227842 -0.013070  0.007323 -0.001953
     5 y      -0.014681  0.149060 -0.177193 -0.008943 -0.012567 -0.000587
     5 z      -0.032229  0.380594 -0.367930  0.005080  0.023629  0.000131
     6 x       0.219240  0.019331  0.000102 -0.049433  0.000643  0.123515
     6 y       0.391566  0.033711 -0.000119 -0.087665 -0.000748  0.248739
     6 z      -0.449173 -0.037807 -0.000054  0.099903 -0.000341 -0.315138
     7 x      -0.149314  0.005613 -0.016120 -0.328147 -0.465685 -0.018028
     7 y       0.065087 -0.007409  0.007073  0.192150  0.190631  0.039625
     7 z      -0.032807  0.000760 -0.001336  0.040412 -0.023769 -0.009548
     8 x      -0.071601  0.005512  0.001138 -0.227136 -0.018752 -0.016044
     8 y      -0.054974  0.008777 -0.001328 -0.165372  0.021876 -0.011208
     8 z      -0.014161 -0.008937 -0.000602 -0.064820  0.009915 -0.005623
     9 x       0.008193 -0.004883 -0.001808  0.106463 -0.046090  0.026822
     9 y      -0.118611  0.004832  0.013837 -0.314719  0.406252 -0.012684
     9 z      -0.116067  0.006308  0.010813 -0.189319  0.294304 -0.033257
    10 x      -0.022197  0.234748  0.248729 -0.009035 -0.000133 -0.000939
    10 y       0.028941 -0.362513 -0.378624 -0.013648  0.004182 -0.001769
    10 z      -0.012457  0.148727  0.116007  0.002946 -0.027430 -0.000404
    11 x      -0.007071  0.082285  0.038184  0.000309 -0.005232  0.000179
    11 y      -0.000745  0.003682 -0.044534 -0.000661  0.006102 -0.000000
    11 z      -0.011732  0.147537 -0.020185  0.002042  0.002766  0.000339
    12 x       0.001071 -0.024086  0.038584 -0.003972 -0.005129 -0.000219
    12 y       0.003482 -0.057700 -0.044999 -0.004622  0.005982 -0.000454
    12 z      -0.005656  0.081739 -0.020396  0.002683  0.002711  0.000589




--------------------------------------------------------------------------------
  Vibrational properties (for cluster):  Temperature  =       0.000 K
--------------------------------------------------------------------------------
  Zero point energy            =        0.605414 eV
--------------------------------------------------------------------------------

  Phonon density of states : 

--------------------------------------------------------------------------------
 Frequency (cm-1) Density of States                                             
--------------------------------------------------------------------------------
    0.00000 |********************                                          0.043
   15.84804 |                                                              0.000
   31.69608 |                                                              0.000
   47.54412 |                                                              0.000
   63.39216 |********************                                          0.043
   79.24020 |                                                              0.000
   95.08824 |                                                              0.000
  110.93628 |                                                              0.000
  126.78432 |********************                                          0.043
  142.63236 |                                                              0.000
  158.48040 |****************************************                      0.087
  174.32844 |                                                              0.000
  190.17648 |                                                              0.000
  206.02452 |************************************************************  0.130
  221.87256 |****************************************                      0.087
  237.72060 |                                                              0.000
  253.56864 |********************                                          0.043
  269.41668 |                                                              0.000
  285.26472 |                                                              0.000
  301.11276 |                                                              0.000
  316.96080 |****************************************                      0.087
  332.80884 |                                                              0.000
  348.65688 |                                                              0.000
  364.50491 |                                                              0.000
  380.35295 |                                                              0.000
  396.20099 |                                                              0.000
  412.04903 |                                                              0.000
  427.89707 |                                                              0.000
  443.74511 |********************                                          0.043
  459.59315 |                                                              0.000
  475.44119 |********************                                          0.043
  491.28923 |                                                              0.000
  507.13727 |********************                                          0.043
  522.98531 |                                                              0.000
  538.83335 |                                                              0.000
  554.68139 |                                                              0.000
  570.52943 |                                                              0.000
  586.37747 |                                                              0.000
  602.22551 |********************                                          0.043
  618.07355 |                                                              0.000
  633.92159 |                                                              0.000
  649.76963 |                                                              0.000
  665.61767 |                                                              0.000
  681.46571 |                                                              0.000
  697.31375 |                                                              0.000
  713.16179 |                                                              0.000
  729.00983 |********************                                          0.043
  744.85787 |********************                                          0.043
  760.70591 |                                                              0.000
  776.55395 |                                                              0.000
  792.40199 |                                                              0.000
  808.25003 |********************                                          0.043
  824.09807 |                                                              0.000
  839.94611 |                                                              0.000
  855.79415 |                                                              0.000
  871.64219 |                                                              0.000
  887.49023 |                                                              0.000
  903.33827 |********************                                          0.043
  919.18631 |                                                              0.000
  935.03435 |********************                                          0.043
  950.88239 |                                                              0.000
  966.73043 |                                                              0.000
  982.57847 |                                                              0.000
  998.42651 |********************                                          0.043
--------------------------------------------------------------------------------



  Time to end of optimisation =       0.0357 seconds


  Peak dynamic memory used =       0.65 MB 


  Timing analysis for GULP :

--------------------------------------------------------------------------------
  Task / Subroutine                                          Time (Seconds)
--------------------------------------------------------------------------------
  Calculation of real space energy and derivatives                0.0024
  Calculation of phonons                                          0.0017
  Calculation and manipulation of Hessian matrix                  0.0015
--------------------------------------------------------------------------------
  Total CPU time                                                  0.0357
--------------------------------------------------------------------------------


  Job Finished at 14:38.44 25th May        2022                               

