12
Properties=species:S:1:pos:R:3:forces:R:3 energy=-187.38518821 pbc="F F F"
Al    1.2233016799999998    0.118142317    2.4751990729999997    0.0    0.0    0.0
Al    1.276784    1.189243    -0.083083    0.0    0.0    -0.0
Al    -0.259766562    0.7665902499999999    -2.353611773    0.0    0.0    -0.0
F    -1.401343172    -0.6838784529999999    -2.361052606    -0.0    -0.0    0.0
F    1.7929592530000003    -0.48490195299999994    0.714683452    0.0    -0.0    0.0
F    -0.158867861    2.06377529    -3.687560333    -0.0    -0.0    0.0
F    -0.49346381000000006    1.685251753    -0.653896049    -0.0    0.0    -0.0
F    2.587876557    2.420946512    -0.320355443    0.0    0.0    -0.0
F    1.468075239    0.205749405    -1.777633254    -0.0    -0.0    -0.0
F    0.640675117    1.754854429    1.691967039    -0.0    -0.0    0.0
F    2.7523649690000003    0.352223076    3.5141674370000002    -0.0    -0.0    0.0
F    -0.24865632499999998    -0.886669352    2.9556190709999997    -0.0    -0.0    -0.0
