------------------------------------------------------------
          Invoking FHI-aims ...

          When using FHI-aims, please cite the following reference:

            Volker Blum, Ralf Gehrke, Felix Hanke, Paula Havu,
            Ville Havu, Xinguo Ren, Karsten Reuter, and Matthias Scheffler,
            'Ab Initio Molecular Simulations with Numeric Atom-Centered Orbitals',
            Computer Physics Communications 180, 2175-2196 (2009)

          In addition, many other developments in FHI-aims are likely important for
          your particular application. A partial list of references is given at the end of
          this file. Thank you for giving credit to the authors of these developments.

          For any questions about FHI-aims, please visit our slack channel at

            https://fhi-aims.slack.com

          and our main development and support site at

            https://aims-git.rz-berlin.mpg.de .

          The latter site, in particular, has a wiki to collect information, as well
          as an issue tracker to log discussions, suggest improvements, and report issues
          or bugs. https://aims-git.rz-berlin.mpg.de is also the main development site
          of the project and all new and updated code versions can be obtained there.
          Please send an email to aims-coordinators@fhi-berlin.mpg.de and we will add
          you to these sites. They are for you and everyone is welcome there.

------------------------------------------------------------



  Date     :  20220517, Time     :  120557.083
  Time zero on CPU 1             :   0.725210000000000E-01  s.
  Internal wall clock time zero  :           422021157.083  s.

  FHI-aims created a unique identifier for this run for later identification
  aims_uuid : F71FEC4C-4356-466F-A9B5-ED7356904354

  Build configuration of the current instance of FHI-aims
  -------------------------------------------------------
  FHI-aims version      : 210914
  Commit number         : GITDIR-NOTFOUND
  CMake host system     : Linux-3.10.0-693.17.1.el7.x86_64
  CMake version         : 3.21.1
  Fortran compiler      : /shared/ucl/apps/intel/2018.Update3/impi/2018.3.222/intel64/bin/mpiifort (Intel) version 18.0.3.20180410
  Fortran compiler flags: -O3 -ip -fp-model precise
  C compiler            : /shared/ucl/apps/intel/2018.Update3/compilers_and_libraries_2018.3.222/linux/bin/intel64/icc (Intel) version 18.0.3.20180410
  C compiler flags      : -O3 -ip -fp-model precise -std=gnu99
  ELPA2 kernel          : AVX2
  Using MPI
  Using ScaLAPACK
  Using LibXC
  Using i-PI
  Using RLSY
  Linking against: /shared/ucl/apps/intel/2019.Update5/compilers_and_libraries_2019.5.281/linux/mkl/lib/intel64/libmkl_intel_lp64.so
                   /shared/ucl/apps/intel/2019.Update5/compilers_and_libraries_2019.5.281/linux/mkl/lib/intel64/libmkl_sequential.so
                   /shared/ucl/apps/intel/2019.Update5/compilers_and_libraries_2019.5.281/linux/mkl/lib/intel64/libmkl_core.so
                   /shared/ucl/apps/intel/2019.Update5/compilers_and_libraries_2019.5.281/linux/mkl/lib/intel64/libmkl_blacs_intelmpi_lp64.so
                   /shared/ucl/apps/intel/2019.Update5/compilers_and_libraries_2019.5.281/linux/mkl/lib/intel64/libmkl_scalapack_lp64.so

  Using       24 parallel tasks.
  Task        0 on host node-k98i-010 reporting.
  Task        1 on host node-k98i-010 reporting.
  Task        2 on host node-k98i-010 reporting.
  Task        3 on host node-k98i-010 reporting.
  Task        4 on host node-k98i-010 reporting.
  Task        5 on host node-k98i-010 reporting.
  Task        6 on host node-k98i-010 reporting.
  Task        7 on host node-k98i-010 reporting.
  Task        8 on host node-k98i-010 reporting.
  Task        9 on host node-k98i-010 reporting.
  Task       10 on host node-k98i-010 reporting.
  Task       11 on host node-k98i-010 reporting.
  Task       12 on host node-k98i-010 reporting.
  Task       13 on host node-k98i-010 reporting.
  Task       14 on host node-k98i-010 reporting.
  Task       15 on host node-k98i-010 reporting.
  Task       16 on host node-k98i-010 reporting.
  Task       17 on host node-k98i-010 reporting.
  Task       18 on host node-k98i-010 reporting.
  Task       19 on host node-k98i-010 reporting.
  Task       20 on host node-k98i-010 reporting.
  Task       21 on host node-k98i-010 reporting.
  Task       22 on host node-k98i-010 reporting.
  Task       23 on host node-k98i-010 reporting.

  Performing system and environment tests:
  | Environment variable OMP_NUM_THREADS correctly set to 1.
  | Checking for ScaLAPACK...
  | Testing pdtran()...
  | All pdtran() tests passed.

  Obtaining array dimensions for all initial allocations:
  
  -----------------------------------------------------------------------
  Parsing control.in (first pass over file, find array dimensions only).
  The contents of control.in will be repeated verbatim below
  unless switched off by setting 'verbatim_writeout .false.' .
  in the first line of control.in .
  -----------------------------------------------------------------------
  
  #########################################################################################  Physical model
  #########################################################################################
  xc                 pbesol
  spin               none
  relativistic       atomic_zora scalar
  charge             0.0
  #  SCF convergence
  occupation_type    gaussian 0.01
  mixer              pulay
  n_max_pulay        10
  charge_mix_param   0.5
  sc_accuracy_rho    1E-5
  sc_accuracy_eev    1E-3
  sc_accuracy_etot   1E-6
  sc_accuracy_forces 1E-4
  sc_iter_limit      1500
  #  Relaxation
  #relax_geometry   bfgs 1.e-3
  
  ################################################################################
  #
  #  FHI-aims code project
  #  VB, Fritz-Haber Institut, 2009
  #
  #  Suggested "light" defaults for Al atom (to be pasted into control.in file)
  #  Be sure to double-check any results obtained with these settings for post-processing,
  #  e.g., with the "tight" defaults and larger basis sets.
  #
  ################################################################################
    species        Al
  #     global species definitions
      nucleus             13
      mass                26.9815386
  #
      l_hartree           4
  #
      cut_pot             3.5          1.5  1.0
      basis_dep_cutoff    1e-4
  #
      radial_base         41 5.0
      radial_multiplier   1
      angular_grids       specified
        division   0.6594  110
        division   0.8170  194
        division   0.9059  302
  #      division   1.0363  434
  #      division   1.1443  590
  #      division   1.2621  770
  #      division   2.8177  974
  #      outer_grid   974
        outer_grid   302
  ################################################################################
  #
  #  Definition of "minimal" basis
  #
  ################################################################################
  #     valence basis states
      valence      3  s   2.
      valence      3  p   1.
  #     ion occupancy
      ion_occ      3  s   1.
      ion_occ      2  p   6.
  ################################################################################
  #
  #  Suggested additional basis functions. For production calculations,
  #  uncomment them one after another (the most important basis functions are
  #  listed first).
  #
  #  Constructed for dimers: 2.0 A, 2.5 A, 3.0 A, 3.75 A, 4.5 A
  #
  ################################################################################
  #  "First tier" - improvements: -199.47 meV to -10.63 meV
       ionic 3 d auto
       ionic 3 p auto
  #     hydro 4 f 4.7
       ionic 3 s auto
  #  "Second tier" - improvements: -5.35 meV to -1.57 meV
  #     hydro 5 g 7
  #     hydro 3 d 6
  #     hydro 2 s 11.6
  #     hydro 2 p 0.9
  #  "Third tier" - improvements: -0.63 meV to -0.20 meV
  #     hydro 5 f 7.6
  #     hydro 4 p 7.2
  #     hydro 4 s 3.7
  #     hydro 4 d 7.6
  #  "Fourth tier" - improvements: -0.17 meV to -0.08 meV
  #     hydro 4 d 13.6
  #     hydro 5 g 11.2
  #     hydro 4 d 0.9
  #     hydro 1 s 0.4
  #     hydro 4 p 0.1
  #     hydro 5 f 9.8
  #  Further basis functions that fell out of the optimization - noise level...
  #     hydro 4 p 5
  
  ################################################################################
  #
  #  FHI-aims code project
  #  VB, Fritz-Haber Institut, 2009
  #
  #  Suggested "light" defaults for F atom (to be pasted into control.in file)
  #  Be sure to double-check any results obtained with these settings for post-processing,
  #  e.g., with the "tight" defaults and larger basis sets.
  #
  ################################################################################
    species        F
  #     global species definitions
      nucleus             9
      mass                18.9984032
  #
      l_hartree           4
  #
      cut_pot             3.5  1.5  1.0
      basis_dep_cutoff    1e-4
  #
      radial_base         37 5.0
      radial_multiplier   1
      angular_grids specified
        division   0.4014  110
        division   0.5291  194
        division   0.6019  302
  #      division   0.6814  434
  #      division   0.7989  590
  #      division   0.8965  770
  #      division   1.3427  974
  #      outer_grid   974
        outer_grid   302
  ################################################################################
  #
  #  Definition of "minimal" basis
  #
  ################################################################################
  #     valence basis states
      valence      2  s   2.
      valence      2  p   5.
  #     ion occupancy
      ion_occ      2  s   1.
      ion_occ      2  p   4.
  ################################################################################
  #
  #  Suggested additional basis functions. For production calculations,
  #  uncomment them one after another (the most important basis functions are
  #  listed first).
  #
  #  Constructed for dimers: 1.2 A, 1.418 A, 1.75 A, 2.25 A, 3.25 A
  #
  ################################################################################
  #  "First tier" - improvements: -149.44 meV to -45.88 meV
       hydro 2 p 1.7
       hydro 3 d 7.4
       hydro 3 s 6.8
  #  "Second tier" - improvements: -12.96 meV to -1.56 meV
  #     hydro 4 f 11.2
  #     ionic 2 p auto
  #     hydro 1 s 0.75
  #     hydro 4 d 8.8
  #     hydro 5 g 16.8
  #  "Third tier" - improvements: -0.58 meV to -0.05 meV
  #     hydro 3 p 6.2
  #     hydro 3 s 3.2
  #     hydro 4 f 9.6
  #     hydro 3 s 19.6
  #     hydro 4 d 8.6
  #     hydro 5 g 14.4
  # Further basis functions: -0.05 meV and below
  #     hydro 3 p 4.2
  
  -----------------------------------------------------------------------
  Completed first pass over input file control.in .
  -----------------------------------------------------------------------
  
  
  -----------------------------------------------------------------------
  Parsing geometry.in (first pass over file, find array dimensions only).
  The contents of geometry.in will be repeated verbatim below
  unless switched off by setting 'verbatim_writeout .false.' .
  in the first line of geometry.in .
  -----------------------------------------------------------------------
  
  atom -0.123914613 1.714026772 2.567900820 Al
  atom 2.472529696 2.622957825 1.661068775 Al
  atom 1.467579284 2.718862184 -0.687423254 Al
  atom 0.988050178 3.193281736 2.872289663 F
  atom -1.676794683 2.754665122 2.159897186 F
  atom -0.544129871 -0.141932666 2.739710230 F
  atom 2.135049753 0.837017593 1.840169065 F
  atom 3.044544545 1.779619853 0.037307984 F
  atom 1.032489809 3.018255733 -2.450457412 F
  atom 1.819854094 4.046854587 0.801830867 F
  atom 4.003436568 3.072268377 2.399070380 F
  atom -0.174044991 1.721888610 -0.183763707 F
  
  -----------------------------------------------------------------------
  Completed first pass over input file geometry.in .
  -----------------------------------------------------------------------
  

  Basic array size parameters:
  | Number of species                 :        2
  | Number of atoms                   :       12
  | Max. basis fn. angular momentum   :        2
  | Max. atomic/ionic basis occupied n:        3
  | Max. number of basis fn. types    :        3
  | Max. radial fns per species/type  :        5
  | Max. logarithmic grid size        :     1340
  | Max. radial integration grid size :       41
  | Max. angular integration grid size:      302
  | Max. angular grid division number :        8
  | Radial grid for Hartree potential :     1340
  | Number of spin channels           :        1

------------------------------------------------------------
          Reading file control.in.
------------------------------------------------------------
  XC: Using PBEsol gradient-corrected functionals.
  Spin treatment: No spin polarisation.
  Scalar relativistic treatment of kinetic energy: on-site free-atom approximation to ZORA.
  Charge =   0.000000E+00: Neutral system requested explicitly.
  Occupation type: Gaussian broadening, width =   0.100000E-01 eV.
  Using pulay charge density mixing.
  Pulay mixing - number of memorized iterations:   10
  Charge density mixing - mixing parameter:     0.5000
  Convergence accuracy of self-consistent charge density:  0.1000E-04
  Convergence accuracy of sum of eigenvalues:  0.1000E-02
  Convergence accuracy of total energy:  0.1000E-05
  Convergence accuracy of forces:  0.1000E-03
  Maximum number of s.-c. iterations  :  1500
 
  Reading configuration options for species Al                  .
  | Found nuclear charge :  13.0000
  | Found atomic mass :    26.9815386000000      amu
  | Found l_max for Hartree potential  :   4
  | Found cutoff potl. onset [A], width [A], scale factor :    3.50000    1.50000    1.00000
  | Threshold for basis-dependent cutoff potential is   0.100000E-03
  | Found data for basic radial integration grid :    41 points, outermost radius =    5.000 A
  | Found multiplier for basic radial grid :   1
  | Found angular grid specification: user-specified.
  | Specified grid contains     4 separate shells.
  | Check grid settings after all constraints further below.
  | Found free-atom valence shell :  3 s   2.000
  | Found free-atom valence shell :  3 p   1.000
  | Found free-ion valence shell :  3 s   1.000
  | Found free-ion valence shell :  2 p   6.000
  | Found ionic basis function :  3 d , default cutoff radius.
  | Found ionic basis function :  3 p , default cutoff radius.
  | Found ionic basis function :  3 s , default cutoff radius.
  Species Al                  : Missing cutoff potential type.
  Defaulting to exp(1/x)/(1-x)^2 type cutoff potential.
  Species Al: No 'logarithmic' tag. Using default grid for free atom:
  | Default logarithmic grid data [bohr] : 0.1000E-03 0.1000E+03 0.1012E+01
  | Will include ionic basis functions of  2.0-fold positive Al                   ion.
  Species Al: On-site basis accuracy parameter (for Gram-Schmidt orthonormalisation) not specified.
  Using default value basis_acc =  0.1000000E-03.
  Species Al                  : Using default innermost maximum threshold i_radial=  2 for radial functions.
  Species Al                  : Default cutoff onset for free atom density etc. : 0.35000000E+01 AA.
  Species Al                  : Basic radial grid will be enhanced according to radial_multiplier =   1, to contain    41 grid points.
 
  Reading configuration options for species F                   .
  | Found nuclear charge :   9.0000
  | Found atomic mass :    18.9984032000000      amu
  | Found l_max for Hartree potential  :   4
  | Found cutoff potl. onset [A], width [A], scale factor :    3.50000    1.50000    1.00000
  | Threshold for basis-dependent cutoff potential is   0.100000E-03
  | Found data for basic radial integration grid :    37 points, outermost radius =    5.000 A
  | Found multiplier for basic radial grid :   1
  | Found angular grid specification: user-specified.
  | Specified grid contains     4 separate shells.
  | Check grid settings after all constraints further below.
  | Found free-atom valence shell :  2 s   2.000
  | Found free-atom valence shell :  2 p   5.000
  | Found free-ion valence shell :  2 s   1.000
  | Found free-ion valence shell :  2 p   4.000
  | Found hydrogenic basis function :  2 p   1.700
  | Found hydrogenic basis function :  3 d   7.400
  | Found hydrogenic basis function :  3 s   6.800
  Species F                   : Missing cutoff potential type.
  Defaulting to exp(1/x)/(1-x)^2 type cutoff potential.
  Species F : No 'logarithmic' tag. Using default grid for free atom:
  | Default logarithmic grid data [bohr] : 0.1000E-03 0.1000E+03 0.1012E+01
  Species F : On-site basis accuracy parameter (for Gram-Schmidt orthonormalisation) not specified.
  Using default value basis_acc =  0.1000000E-03.
  Species F                   : Using default innermost maximum threshold i_radial=  2 for radial functions.
  Species F                   : Default cutoff onset for free atom density etc. : 0.35000000E+01 AA.
  Species F                   : Basic radial grid will be enhanced according to radial_multiplier =   1, to contain    37 grid points.
 
  Finished reading input file 'control.in'.
 
------------------------------------------------------------


------------------------------------------------------------
          Reading geometry description geometry.in.
------------------------------------------------------------
  | The smallest distance between any two atoms is         1.75789709 AA.
  | The first atom of this pair is atom number                      2 .
  | The second atom of this pair is atom number                    11 .
  Input structure read successfully.
  The structure contains       12 atoms,  and a total of        120.000 electrons.

  Input geometry:
  | No unit cell requested.
  | Atomic structure:
  |       Atom                x [A]            y [A]            z [A]
  |    1: Species Al           -0.12391461        1.71402677        2.56790082
  |    2: Species Al            2.47252970        2.62295782        1.66106877
  |    3: Species Al            1.46757928        2.71886218       -0.68742325
  |    4: Species F             0.98805018        3.19328174        2.87228966
  |    5: Species F            -1.67679468        2.75466512        2.15989719
  |    6: Species F            -0.54412987       -0.14193267        2.73971023
  |    7: Species F             2.13504975        0.83701759        1.84016906
  |    8: Species F             3.04454454        1.77961985        0.03730798
  |    9: Species F             1.03248981        3.01825573       -2.45045741
  |   10: Species F             1.81985409        4.04685459        0.80183087
  |   11: Species F             4.00343657        3.07226838        2.39907038
  |   12: Species F            -0.17404499        1.72188861       -0.18376371

 
  Finished reading input file 'control.in'.
 

------------------------------------------------------------
          Reading geometry description geometry.in.
------------------------------------------------------------
 
  Consistency checks for stacksize environment parameter are next.
 
  | Maximum stacksize for task 0: unlimited
  | Maximum stacksize for task 1: unlimited
  | Maximum stacksize for task 2: unlimited
  | Maximum stacksize for task 3: unlimited
  | Maximum stacksize for task 4: unlimited
  | Maximum stacksize for task 5: unlimited
  | Maximum stacksize for task 6: unlimited
  | Maximum stacksize for task 7: unlimited
  | Maximum stacksize for task 8: unlimited
  | Maximum stacksize for task 9: unlimited
  | Maximum stacksize for task 10: unlimited
  | Maximum stacksize for task 11: unlimited
  | Maximum stacksize for task 12: unlimited
  | Maximum stacksize for task 13: unlimited
  | Maximum stacksize for task 14: unlimited
  | Maximum stacksize for task 15: unlimited
  | Maximum stacksize for task 16: unlimited
  | Maximum stacksize for task 17: unlimited
  | Maximum stacksize for task 18: unlimited
  | Maximum stacksize for task 19: unlimited
  | Maximum stacksize for task 20: unlimited
  | Maximum stacksize for task 21: unlimited
  | Maximum stacksize for task 22: unlimited
  | Maximum stacksize for task 23: unlimited
  | Current stacksize for task 0: unlimited
  | Current stacksize for task 1: unlimited
  | Current stacksize for task 2: unlimited
  | Current stacksize for task 3: unlimited
  | Current stacksize for task 4: unlimited
  | Current stacksize for task 5: unlimited
  | Current stacksize for task 6: unlimited
  | Current stacksize for task 7: unlimited
  | Current stacksize for task 8: unlimited
  | Current stacksize for task 9: unlimited
  | Current stacksize for task 10: unlimited
  | Current stacksize for task 11: unlimited
  | Current stacksize for task 12: unlimited
  | Current stacksize for task 13: unlimited
  | Current stacksize for task 14: unlimited
  | Current stacksize for task 15: unlimited
  | Current stacksize for task 16: unlimited
  | Current stacksize for task 17: unlimited
  | Current stacksize for task 18: unlimited
  | Current stacksize for task 19: unlimited
  | Current stacksize for task 20: unlimited
  | Current stacksize for task 21: unlimited
  | Current stacksize for task 22: unlimited
  | Current stacksize for task 23: unlimited
 
  Consistency checks for the contents of control.in are next.
 
  MPI_IN_PLACE appears to work with this MPI implementation.
  | Keeping use_mpi_in_place .true. (see manual).
  Target number of points in a grid batch is not set. Defaulting to  100
  Method for grid partitioning is not set. Defaulting to parallel hash+maxmin partitioning.
  Batch size limit is not set. Defaulting to    200
  By default, will store active basis functions for each batch.
  If in need of memory, prune_basis_once .false. can be used to disable this option.
  communication_type for Hartree potential was not specified.
  Defaulting to calc_hartree .
  Pulay mixer: Number of initial linear mixing iterations not set.
  Defaulting to    0 iterations.
  Work space size for distributed Hartree potential not set.
  Defaulting to   0.200000E+03 MB.
  Algorithm-dependent basis array size parameters:
  | n_max_pulay                         :       10
  Presetting      1001 iterations before the initial mixing cycle
  is restarted anyway using the sc_init_iter criterion / keyword.
  Presetting a factor      1.000 between actual scf density residual
  and density convergence criterion sc_accuracy_rho below which sc_init_iter
  takes no effect.
  Geometry relaxation not requested: no relaxation will be performed.
  Forces evaluation will include force correction term due to incomplete self-consistency (default).
  Handling of forces: Unphysical translation and rotation will be removed from forces.
  No accuracy limit for integral partition fn. given. Defaulting to  0.1000E-14.
  No threshold value for u(r) in integrations given. Defaulting to  0.1000E-05.
  No accuracy for occupation numbers given. Defaulting to  0.1000E-12.
  No threshold value for occupation numbers given. Defaulting to  0.0000E+00.
  No accuracy for fermi level given. Defaulting to  0.1000E-19.
  Maximum # of iterations to find E_F not set. Defaulting to  200.
  Preferred method for the eigenvalue solver ('KS_method') not specified in 'control.in'.
  Calling BLACS routine to test compilation state
  Since ScaLAPACK support is enabled, defaulting to ELPA (via ELSI).
  Will not use alltoall communication since running on < 1024 CPUs.
  Threshold for basis singularities not set.
  Default threshold for basis singularities:  0.1000E-04
  partition_type (choice of integration weights) for integrals was not specified.
  | Using a version of the partition function of Stratmann and coworkers ('stratmann_sparse').
  | At each grid point, the set of atoms used to build the partition table is smoothly restricted to
  | only those atoms whose free-atom density would be non-zero at that grid point.
  Partitioning for Hartree potential was not defined. Using partition_type for integrals.
  | Adjusted default value of keyword multip_moments_threshold to:       0.10000000E-11
  | This value may affect high angular momentum components of the Hartree potential in periodic systems.
  No q(lm)/r^(l+1) cutoff set for long-range Hartree potential.
  | Using default value of  0.100000E-09 .
  | Verify using the multipole_threshold keyword.
  Defaulting to new monopole extrapolation.
  Density update method: automatic selection selected.
  Charge integration errors on the 3D integration grid will be compensated
  by explicit normalization and distribution of residual charges.
  Use the "compensate_multipole_errors" flag to change this behaviour.
  Set 'collect_eigenvectors' to be '.true.' for use_density_matrix .false.
 
  Consistency checks for the contents of geometry.in are next.
 
  Number of empty states per atom not set in control.in - providing a guess from actual geometry.
  | Total number of empty states used during s.c.f. cycle:       36
  If you use a very high smearing, use empty_states (per atom!) in control.in to increase this value.

  Structure-dependent array size parameters: 
  | Maximum number of distinct radial functions  :       14
  | Maximum number of basis functions            :      180
  | Number of Kohn-Sham states (occupied + empty):       96
------------------------------------------------------------

------------------------------------------------------------
          Preparing all fixed parts of the calculation.
------------------------------------------------------------
  Determining machine precision:
    2.225073858507201E-308
  Setting up grids for atomic and cluster calculations.

  Creating wave function, potential, and density for free atoms.

  Species: Al

  List of occupied orbitals and eigenvalues:
    n    l              occ      energy [Ha]    energy [eV]
    1    0           2.0000       -55.621123     -1513.5278
    2    0           2.0000        -3.957030      -107.6763
    3    0           2.0000        -0.272233        -7.4078
    2    1           6.0000        -2.540949       -69.1427
    3    1           1.0000        -0.083300        -2.2667


  Species: F

  List of occupied orbitals and eigenvalues:
    n    l              occ      energy [Ha]    energy [eV]
    1    0           2.0000       -24.399611      -663.9472
    2    0           2.0000        -1.098702       -29.8972
    2    1           5.0000        -0.408210       -11.1080


  Adding cutoff potential to free-atom effective potential.
  Creating fixed part of basis set: Ionic, confined, hydrogenic.
 
  Al                   ion:

  List of free ionic orbitals and eigenvalues:
    n    l      energy [Ha]    energy [eV]
    1    0       -56.418846     -1535.2349
    2    0        -4.732717      -128.7838
    3    0        -0.872690       -23.7471
    2    1        -3.317230       -90.2664


  List of ionic basis orbitals and eigenvalues:
    n    l      energy [Ha]    energy [eV]    outer radius [A]
    3    2        -0.346815        -9.4373       4.594041
    3    1        -0.631870       -17.1940       4.538221
    3    0        -0.872657       -23.7462       4.538221

 
  F                    hydrogenic:
 
  List of hydrogenic basis orbitals: 
    n    l      effective z      eigenvalue [eV]  inner max. [A]     outer max. [A]     outer radius [A]   
    2    1         1.700000        -9.7616           1.243167           1.243167           4.598524
    3    2         7.400000       -82.7828           0.642437           0.642437           3.305741
    3    0         6.800000       -69.9026           0.057798           1.022307           3.781556
 
  Creating atomic-like basis functions for current effective potential.

  Species Al                  :

  List of atomic basis orbitals and eigenvalues:
    n    l      energy [Ha]    energy [eV]    outer radius [A]
    1    0       -55.621123     -1513.5278       0.850197
    2    0        -3.957030      -107.6763       3.144911
    3    0        -0.272233        -7.4078       4.594041
    2    1        -2.540949       -69.1427       3.731966
    3    1        -0.083300        -2.2667       4.594041


  Species F                   :

  List of atomic basis orbitals and eigenvalues:
    n    l      energy [Ha]    energy [eV]    outer radius [A]
    1    0       -24.399611      -663.9472       1.258458
    2    0        -1.098702       -29.8972       4.325857
    2    1        -0.408210       -11.1080       4.487453

  Assembling full basis from fixed parts.
  | Species Al :   atomic orbital   1 s accepted.
  | Species Al :   atomic orbital   2 s accepted.
  | Species Al :    ionic orbital   3 s accepted.
  | Species Al :   atomic orbital   3 s accepted.
  | Species Al :   atomic orbital   2 p accepted.
  | Species Al :    ionic orbital   3 p accepted.
  | Species Al :   atomic orbital   3 p accepted.
  | Species Al :    ionic orbital   3 d accepted.
  | Species F :   atomic orbital   1 s accepted.
  | Species F :    hydro orbital   3 s accepted.
  | Species F :   atomic orbital   2 s accepted.
  | Species F :   atomic orbital   2 p accepted.
  | Species F :    hydro orbital   2 p accepted.
  | Species F :    hydro orbital   3 d accepted.
 
  Basis size parameters after reduction:
  | Total number of radial functions:       14
  | Total number of basis functions :      180
 
  Per-task memory consumption for arrays in subroutine allocate_ext:
  |           4.807768MB.
  Testing on-site integration grid accuracy.
  |  Species  Function  <phi|h_atom|phi> (log., in eV)  <phi|h_atom|phi> (rad., in eV)
           1        1              -1513.5277717935              -1513.5271881332
           1        2               -107.6762691836               -107.6762662489
           1        3                 -6.9467474784                 -6.9471269649
           1        4                  5.5771951849                  5.4862107220 ***
           1        5                -69.1427313144                -69.1427312731
           1        6                 -1.5197375330                 -1.5230432022
           1        7                  6.8210948310                  6.5529872240 ***
           1        8                  4.3216540965                  4.2851170187 ***
           2        9               -663.9471986398               -663.9470363334
           2       10                 16.8514011578                 16.8512525338
           2       11                -28.4490593856                -28.4490661472
           2       12                -11.1080115307                -11.1080620173
           2       13                  7.1940182175                  7.1685154137
           2       14                 44.8544281765                 44.8543763625
 * Note: Onsite integrals marked "***" above are less accurate than
 * onsite_accuracy_threshold =    0.03000 eV. Usually, this is harmless.
 * When in doubt, tighten the "radial" and/or "radial_multiplier" flags to check.

  Preparing densities etc. for the partition functions (integrals / Hartree potential).

  Preparations completed.
  max(cpu_time)          :      0.183 s.
  Wall clock time (cpu1) :      0.184 s.
------------------------------------------------------------

------------------------------------------------------------
          Begin self-consistency loop: Initialization.

          Date     :  20220517, Time     :  120557.357
------------------------------------------------------------

  Initializing index lists of integration centers etc. from given atomic structure:
  | Number of centers in hartree potential         :        12
  | Number of centers in hartree multipole         :        12
  | Number of centers in electron density summation:        12
  | Number of centers in basis integrals           :        12
  | Number of centers in integrals                 :        12
  | Number of centers in hamiltonian               :        12
  * Using 24 tasks for Scalapack Eigenvalue solver.
  Detailed listing of tasks and assigned k-points:
  (for non-periodic systems, the "k-point" denotes an internal label only)
   Task     0 k-point     1 on node-k98i-010
   Task     1 k-point     1 on node-k98i-010
   Task     2 k-point     1 on node-k98i-010
   Task     3 k-point     1 on node-k98i-010
   Task     4 k-point     1 on node-k98i-010
   Task     5 k-point     1 on node-k98i-010
   Task     6 k-point     1 on node-k98i-010
   Task     7 k-point     1 on node-k98i-010
   Task     8 k-point     1 on node-k98i-010
   Task     9 k-point     1 on node-k98i-010
   Task    10 k-point     1 on node-k98i-010
   Task    11 k-point     1 on node-k98i-010
   Task    12 k-point     1 on node-k98i-010
   Task    13 k-point     1 on node-k98i-010
   Task    14 k-point     1 on node-k98i-010
   Task    15 k-point     1 on node-k98i-010
   Task    16 k-point     1 on node-k98i-010
   Task    17 k-point     1 on node-k98i-010
   Task    18 k-point     1 on node-k98i-010
   Task    19 k-point     1 on node-k98i-010
   Task    20 k-point     1 on node-k98i-010
   Task    21 k-point     1 on node-k98i-010
   Task    22 k-point     1 on node-k98i-010
   Task    23 k-point     1 on node-k98i-010
  Tasks:    24 split into      6 X      4 BLACS grid
  Calculating block size based on n_basis =          180  max_nprow =            6  max_npcol =            4
  ScaLAPACK block size set to:           16
  Allocating        0.012 MB for ovlp
  Allocating        0.012 MB for ham
  Allocating        0.012 MB for eigenvec
  Required Scalapack workspace - INTEGER:            1  REAL:             1
  Partitioning the integration grid into batches with parallel hashing+maxmin method.
  | Number of batches:      970
  | Maximal batch size:     199
  | Minimal batch size:      19
  | Average batch size:      94.763
  | Standard deviation of batch sizes:      24.662

  Integration load balanced across    24 MPI tasks.
  Work distribution over tasks is as follows:
  Task     0 has       3914 integration points.
  Task     1 has       3852 integration points.
  Task     2 has       3877 integration points.
  Task     3 has       3865 integration points.
  Task     4 has       3851 integration points.
  Task     5 has       3783 integration points.
  Task     6 has       3794 integration points.
  Task     7 has       3775 integration points.
  Task     8 has       3792 integration points.
  Task     9 has       3874 integration points.
  Task    10 has       3848 integration points.
  Task    11 has       3848 integration points.
  Task    12 has       3791 integration points.
  Task    13 has       3851 integration points.
  Task    14 has       3792 integration points.
  Task    15 has       3866 integration points.
  Task    16 has       3781 integration points.
  Task    17 has       3791 integration points.
  Task    18 has       3787 integration points.
  Task    19 has       3917 integration points.
  Task    20 has       3835 integration points.
  Task    21 has       3797 integration points.
  Task    22 has       3868 integration points.
  Task    23 has       3771 integration points.
  Initializing partition tables, free-atom densities, potentials, etc. across the integration grid (initialize_grid_storage).
  | initialize_grid_storage: Actual outermost partition radius vs. multipole_radius_free
  | (-- VB: in principle, multipole_radius_free should be larger, hence this output)
  | Species        1: Confinement radius =              4.999999999999999 AA, multipole_radius_free =              5.004487022111096 AA.
  | Species        1: outer_partition_radius set to              5.004487022111096 AA .
  | Species        2: Confinement radius =              4.999999999999999 AA, multipole_radius_free =              5.009370088163274 AA.
  | Species        2: outer_partition_radius set to              5.009370088163274 AA .
  | The sparse table of interatomic distances needs          1.64 kbyte instead of         1.15 kbyte of memory.
  | Using the partition_type stratmann_smoother will reduce your memory usage.
  | Net number of integration points:    91920
  | of which are non-zero points    :    85483
  Renormalizing the initial density to the exact electron count on the 3D integration grid.
  | Initial density: Formal number of electrons (from input files) :     120.0000000000
  | Integrated number of electrons on 3D grid     :     119.9999382218
  | Charge integration error                      :      -0.0000617782
  | Normalization factor for density and gradient :       1.0000005148
  Renormalizing the free-atom superposition density to the exact electron count on the 3D integration grid.
  | Formal number of electrons (from input files) :     120.0000000000
  | Integrated number of electrons on 3D grid     :     119.9999382218
  | Charge integration error                      :      -0.0000617782
  | Normalization factor for density and gradient :       1.0000005148
  Obtaining max. number of non-zero basis functions in each batch (get_n_compute_maxes).
  | Maximal number of non-zero basis functions:      165 in task     0
  | Maximal number of non-zero basis functions:      166 in task     1
  | Maximal number of non-zero basis functions:      170 in task     2
  | Maximal number of non-zero basis functions:      165 in task     3
  | Maximal number of non-zero basis functions:      164 in task     4
  | Maximal number of non-zero basis functions:      172 in task     5
  | Maximal number of non-zero basis functions:      171 in task     6
  | Maximal number of non-zero basis functions:      166 in task     7
  | Maximal number of non-zero basis functions:      169 in task     8
  | Maximal number of non-zero basis functions:      164 in task     9
  | Maximal number of non-zero basis functions:      166 in task    10
  | Maximal number of non-zero basis functions:      171 in task    11
  | Maximal number of non-zero basis functions:      165 in task    12
  | Maximal number of non-zero basis functions:      166 in task    13
  | Maximal number of non-zero basis functions:      162 in task    14
  | Maximal number of non-zero basis functions:      165 in task    15
  | Maximal number of non-zero basis functions:      164 in task    16
  | Maximal number of non-zero basis functions:      164 in task    17
  | Maximal number of non-zero basis functions:      165 in task    18
  | Maximal number of non-zero basis functions:      166 in task    19
  | Maximal number of non-zero basis functions:      165 in task    20
  | Maximal number of non-zero basis functions:      165 in task    21
  | Maximal number of non-zero basis functions:      164 in task    22
  | Maximal number of non-zero basis functions:      166 in task    23
  Selecting the method for density update.
  Loop over occupied states selected for charge density update.
  Allocating        0.132 MB for KS_eigenvector
  Integrating Hamiltonian matrix: batch-based integration.
  Time summed over all CPUs for integration: real work        0.749 s, elapsed        0.790 s
  Integrating overlap matrix.
  Time summed over all CPUs for integration: real work        0.282 s, elapsed        0.299 s
  Deallocating overlap matrix.

  Updating Kohn-Sham eigenvalues and eigenvectors using ELSI and the ELPA eigensolver.
  Overlap matrix is not singular
  | Lowest and highest eigenvalues :  0.2876E-02,  0.5464E+01
  Finished singularity check of overlap matrix
  | Time :     0.020 s
  Starting ELPA eigensolver
  Finished Cholesky decomposition
  | Time :     0.018 s
  Finished transformation to standard eigenproblem
  | Time :     0.005 s
  Finished solving standard eigenproblem
  | Time :     0.017 s
  Finished back-transformation of eigenvectors
  | Time :     0.001 s

  Obtaining occupation numbers and chemical potential using ELSI.
  | Chemical potential (Fermi level):    -7.84807597 eV
  Writing Kohn-Sham eigenvalues.

  State    Occupation    Eigenvalue [Ha]    Eigenvalue [eV]
      1       2.00000         -55.488527        -1509.91963
      2       2.00000         -55.484449        -1509.80868
      3       2.00000         -55.481662        -1509.73284
      4       2.00000         -24.364907         -663.00286
      5       2.00000         -24.356692         -662.77932
      6       2.00000         -24.354770         -662.72702
      7       2.00000         -24.347993         -662.54260
      8       2.00000         -24.343835         -662.42945
      9       2.00000         -24.337806         -662.26538
     10       2.00000         -24.330880         -662.07693
     11       2.00000         -24.330663         -662.07102
     12       2.00000         -24.326802         -661.96597
     13       2.00000          -3.955351         -107.63057
     14       2.00000          -3.949010         -107.45803
     15       2.00000          -3.945565         -107.36429
     16       2.00000          -2.548356          -69.34429
     17       2.00000          -2.547492          -69.32079
     18       2.00000          -2.546340          -69.28943
     19       2.00000          -2.542586          -69.18729
     20       2.00000          -2.539929          -69.11498
     21       2.00000          -2.539628          -69.10680
     22       2.00000          -2.538410          -69.07365
     23       2.00000          -2.537299          -69.04342
     24       2.00000          -2.536045          -69.00931
     25       2.00000          -1.193866          -32.48673
     26       2.00000          -1.178291          -32.06292
     27       2.00000          -1.172807          -31.91371
     28       2.00000          -1.159125          -31.54141
     29       2.00000          -1.150455          -31.30548
     30       2.00000          -1.145433          -31.16883
     31       2.00000          -1.136193          -30.91739
     32       2.00000          -1.133876          -30.85432
     33       2.00000          -1.129800          -30.74341
     34       2.00000          -0.561254          -15.27249
     35       2.00000          -0.543258          -14.78281
     36       2.00000          -0.527372          -14.35051
     37       2.00000          -0.521033          -14.17802
     38       2.00000          -0.512144          -13.93615
     39       2.00000          -0.506344          -13.77832
     40       2.00000          -0.496794          -13.51846
     41       2.00000          -0.495120          -13.47291
     42       2.00000          -0.488363          -13.28902
     43       2.00000          -0.484210          -13.17603
     44       2.00000          -0.480022          -13.06207
     45       2.00000          -0.475514          -12.93941
     46       2.00000          -0.470043          -12.79053
     47       2.00000          -0.466432          -12.69226
     48       2.00000          -0.464711          -12.64543
     49       2.00000          -0.458022          -12.46343
     50       2.00000          -0.456287          -12.41621
     51       2.00000          -0.454124          -12.35733
     52       2.00000          -0.450618          -12.26193
     53       2.00000          -0.449833          -12.24057
     54       2.00000          -0.446458          -12.14875
     55       2.00000          -0.443570          -12.07015
     56       2.00000          -0.440279          -11.98059
     57       2.00000          -0.435364          -11.84687
     58       2.00000          -0.434593          -11.82588
     59       2.00000          -0.431318          -11.73676
     60       2.00000          -0.428823          -11.66888
     61       0.00000          -0.176935           -4.81464
     62       0.00000          -0.137972           -3.75441
     63       0.00000          -0.080391           -2.18755
     64       0.00000          -0.050374           -1.37074
     65       0.00000          -0.029179           -0.79399
     66       0.00000          -0.013692           -0.37257
     67       0.00000           0.007162            0.19489
     68       0.00000           0.009580            0.26069
     69       0.00000           0.044631            1.21447
     70       0.00000           0.073482            1.99954
     71       0.00000           0.088954            2.42057
     72       0.00000           0.114275            3.10958
     73       0.00000           0.143899            3.91568
     74       0.00000           0.150150            4.08579
     75       0.00000           0.154494            4.20399
     76       0.00000           0.169075            4.60077
     77       0.00000           0.185195            5.03941
     78       0.00000           0.195593            5.32237
     79       0.00000           0.200868            5.46590
     80       0.00000           0.205728            5.59814
     81       0.00000           0.222389            6.05150
     82       0.00000           0.225038            6.12358
     83       0.00000           0.233836            6.36300
     84       0.00000           0.244947            6.66536
     85       0.00000           0.246945            6.71972
     86       0.00000           0.259986            7.07457
     87       0.00000           0.261995            7.12924
     88       0.00000           0.271822            7.39664
     89       0.00000           0.279708            7.61124
     90       0.00000           0.292797            7.96742
     91       0.00000           0.298456            8.12140
     92       0.00000           0.305763            8.32023
     93       0.00000           0.335950            9.14167
     94       0.00000           0.349369            9.50681
     95       0.00000           0.352690            9.59719
     96       0.00000           0.366135            9.96305

  Highest occupied state (VBM) at    -11.66887661 eV
  | Occupation number:      2.00000000

  Lowest unoccupied state (CBM) at    -4.81463536 eV
  | Occupation number:      0.00000000

  Overall HOMO-LUMO gap:      6.85424125 eV.
  Calculating total energy contributions from superposition of free atom densities.

  Total energy components:
  | Sum of eigenvalues            :        -886.99349557 Ha      -24136.32105695 eV
  | XC energy correction          :        -144.28743661 Ha       -3926.26091598 eV
  | XC potential correction       :         187.86748335 Ha        5112.13432437 eV
  | Free-atom electrostatic energy:        -781.85778445 Ha      -21275.43279692 eV
  | Hartree energy correction     :           0.00000000 Ha           0.00000000 eV
  | Entropy correction            :           0.00000000 Ha           0.00000000 eV
  | ---------------------------
  | Total energy                  :       -1625.27123328 Ha      -44225.88044548 eV
  | Total energy, T -> 0          :       -1625.27123328 Ha      -44225.88044548 eV  <-- do not rely on this value for anything but (periodic) metals
  | Electronic free energy        :       -1625.27123328 Ha      -44225.88044548 eV

  Derived energy quantities:
  | Kinetic energy                :        1627.56375299 Ha       44288.26308095 eV
  | Electrostatic energy          :       -3108.54754966 Ha      -84587.88261046 eV
  | Energy correction for multipole
  | error in Hartree potential    :           0.00000000 Ha           0.00000000 eV
  | Sum of eigenvalues per atom                           :       -2011.36008808 eV
  | Total energy (T->0) per atom                          :       -3685.49003712 eV  <-- do not rely on this value for anything but (periodic) metals
  | Electronic free energy per atom                       :       -3685.49003712 eV
  Initialize hartree_potential_storage
  Max. number of atoms included in rho_multipole:           12

  End scf initialization - timings             :  max(cpu_time)    wall_clock(cpu1)
  | Time for scf. initialization                :        0.205 s           0.208 s
  | Boundary condition initialization           :        0.000 s           0.001 s
  | Integration                                 :        0.054 s           0.054 s
  | Solution of K.-S. eqns.                     :        0.064 s           0.064 s
  | Grid partitioning                           :        0.049 s           0.049 s
  | Preloading free-atom quantities on grid     :        0.017 s           0.019 s
  | Free-atom superposition energy              :        0.006 s           0.006 s
  | Total energy evaluation                     :        0.000 s           0.001 s

  Partial memory accounting:
  | Current value for overall tracked memory usage:
  |   Minimum:        0.273 MB (on task 23)
  |   Maximum:        0.292 MB (on task  0)
  |   Average:        0.287 MB
  | Peak value for overall tracked memory usage:
  |   Minimum:        1.358 MB (on task 14 after allocating wave)
  |   Maximum:        1.429 MB (on task  5 after allocating wave)
  |   Average:        1.383 MB
  | Largest tracked array allocation so far:
  |   Minimum:        0.249 MB (H_times_psi on task  4)
  |   Maximum:        0.584 MB (all_coords on task 14)
  |   Average:        0.275 MB
  Note:  These values currently only include a subset of arrays which are explicitly tracked.
  The "true" memory usage will be greater.
------------------------------------------------------------
  Evaluating new KS density.
  Integration grid: deviation in total charge (<rho> - N_e) =   2.842171E-14

  Time for density update prior                :  max(cpu_time)    wall_clock(cpu1)
  | self-consistency iterative process          :        0.030 s           0.030 s

------------------------------------------------------------
          Begin self-consistency iteration #    1

  Date     :  20220517, Time     :  120557.597
------------------------------------------------------------
  Pulay mixing of updated and previous charge densities.
  Renormalizing the density to the exact electron count on the 3D integration grid.
  | Formal number of electrons (from input files) :     120.0000000000
  | Integrated number of electrons on 3D grid     :     120.0000000000
  | Charge integration error                      :      -0.0000000000
  | Normalization factor for density and gradient :       1.0000000000

  Evaluating partitioned Hartree potential by multipole expansion.
  | Original multipole sum: apparent total charge =  -0.106877E-12
  | Sum of charges compensated after spline to logarithmic grids =   0.146533E-03
  | Analytical far-field extrapolation by fixed multipoles:
  | Hartree multipole sum: apparent total charge =  -0.109952E-12
  Summing up the Hartree potential.
  Time summed over all CPUs for potential: real work        0.383 s, elapsed        0.408 s
  | RMS charge density error from multipole expansion :   0.109202E-01

  Integrating Hamiltonian matrix: batch-based integration.
  Time summed over all CPUs for integration: real work        0.695 s, elapsed        0.774 s

  Updating Kohn-Sham eigenvalues and eigenvectors using ELSI and the ELPA eigensolver.
  Starting ELPA eigensolver
  Finished transformation to standard eigenproblem
  | Time :     0.005 s
  Finished solving standard eigenproblem
  | Time :     0.021 s
  Finished back-transformation of eigenvectors
  | Time :     0.002 s

  Obtaining occupation numbers and chemical potential using ELSI.
  | Chemical potential (Fermi level):    -7.61469896 eV
  Writing Kohn-Sham eigenvalues.

  State    Occupation    Eigenvalue [Ha]    Eigenvalue [eV]
      1       2.00000         -55.697213        -1515.59829
      2       2.00000         -55.683475        -1515.22445
      3       2.00000         -55.635445        -1513.91749
      4       2.00000         -24.253330         -659.96670
      5       2.00000         -24.235170         -659.47253
      6       2.00000         -24.206165         -658.68326
      7       2.00000         -24.128284         -656.56402
      8       2.00000         -24.101874         -655.84536
      9       2.00000         -24.077271         -655.17587
     10       2.00000         -24.067777         -654.91753
     11       2.00000         -24.053057         -654.51698
     12       2.00000         -24.043509         -654.25717
     13       2.00000          -4.130948         -112.40881
     14       2.00000          -4.115508         -111.98867
     15       2.00000          -4.080043         -111.02361
     16       2.00000          -2.724242          -74.13039
     17       2.00000          -2.723810          -74.11864
     18       2.00000          -2.722862          -74.09284
     19       2.00000          -2.710386          -73.75335
     20       2.00000          -2.708061          -73.69008
     21       2.00000          -2.706311          -73.64248
     22       2.00000          -2.674270          -72.77059
     23       2.00000          -2.672546          -72.72369
     24       2.00000          -2.670794          -72.67600
     25       2.00000          -1.178888          -32.07918
     26       2.00000          -1.150018          -31.29359
     27       2.00000          -1.131369          -30.78611
     28       2.00000          -1.063024          -28.92636
     29       2.00000          -1.029937          -28.02600
     30       2.00000          -1.020086          -27.75795
     31       2.00000          -1.019665          -27.74651
     32       2.00000          -0.994542          -27.06285
     33       2.00000          -0.987257          -26.86464
     34       2.00000          -0.558331          -15.19296
     35       2.00000          -0.540126          -14.69758
     36       2.00000          -0.509590          -13.86665
     37       2.00000          -0.496107          -13.49976
     38       2.00000          -0.484102          -13.17308
     39       2.00000          -0.477706          -12.99904
     40       2.00000          -0.463519          -12.61300
     41       2.00000          -0.439234          -11.95216
     42       2.00000          -0.428374          -11.65666
     43       2.00000          -0.413838          -11.26110
     44       2.00000          -0.404727          -11.01319
     45       2.00000          -0.400791          -10.90608
     46       2.00000          -0.381946          -10.39329
     47       2.00000          -0.374360          -10.18685
     48       2.00000          -0.367537          -10.00119
     49       2.00000          -0.359048           -9.77020
     50       2.00000          -0.349470           -9.50958
     51       2.00000          -0.343928           -9.35877
     52       2.00000          -0.339284           -9.23239
     53       2.00000          -0.330265           -8.98698
     54       2.00000          -0.326001           -8.87094
     55       2.00000          -0.325400           -8.85458
     56       2.00000          -0.322653           -8.77984
     57       2.00000          -0.309531           -8.42275
     58       2.00000          -0.307079           -8.35604
     59       2.00000          -0.296630           -8.07171
     60       2.00000          -0.292045           -7.94695
     61       0.00000          -0.195778           -5.32738
     62       0.00000          -0.162710           -4.42756
     63       0.00000          -0.124457           -3.38665
     64       0.00000          -0.069900           -1.90207
     65       0.00000          -0.060651           -1.65039
     66       0.00000          -0.048598           -1.32243
     67       0.00000          -0.015976           -0.43473
     68       0.00000          -0.002739           -0.07454
     69       0.00000           0.033916            0.92290
     70       0.00000           0.066107            1.79886
     71       0.00000           0.086399            2.35103
     72       0.00000           0.101871            2.77204
     73       0.00000           0.127557            3.47100
     74       0.00000           0.147377            4.01033
     75       0.00000           0.149121            4.05780
     76       0.00000           0.155814            4.23991
     77       0.00000           0.169772            4.61973
     78       0.00000           0.173983            4.73431
     79       0.00000           0.186887            5.08546
     80       0.00000           0.198712            5.40723
     81       0.00000           0.203391            5.53455
     82       0.00000           0.211270            5.74896
     83       0.00000           0.221503            6.02740
     84       0.00000           0.230648            6.27624
     85       0.00000           0.236724            6.44158
     86       0.00000           0.241126            6.56138
     87       0.00000           0.259689            7.06650
     88       0.00000           0.262830            7.15197
     89       0.00000           0.272956            7.42751
     90       0.00000           0.284749            7.74840
     91       0.00000           0.289435            7.87592
     92       0.00000           0.295284            8.03510
     93       0.00000           0.329848            8.97561
     94       0.00000           0.358821            9.76401
     95       0.00000           0.365103            9.93496
     96       0.00000           0.377288           10.26653

  Highest occupied state (VBM) at     -7.94695498 eV
  | Occupation number:      2.00000000

  Lowest unoccupied state (CBM) at    -5.32737918 eV
  | Occupation number:      0.00000000

  Overall HOMO-LUMO gap:      2.61957580 eV.

  Total energy components:
  | Sum of eigenvalues            :        -882.07752001 Ha      -24002.55055572 eV
  | XC energy correction          :        -145.62089122 Ha       -3962.54606224 eV
  | XC potential correction       :         189.62083378 Ha        5159.84541716 eV
  | Free-atom electrostatic energy:        -781.85778445 Ha      -21275.43279692 eV
  | Hartree energy correction     :          -5.10860390 Ha        -139.01218502 eV
  | Entropy correction            :           0.00000000 Ha           0.00000000 eV
  | ---------------------------
  | Total energy                  :       -1625.04396580 Ha      -44219.69618274 eV
  | Total energy, T -> 0          :       -1625.04396580 Ha      -44219.69618274 eV  <-- do not rely on this value for anything but (periodic) metals
  | Electronic free energy        :       -1625.04396580 Ha      -44219.69618274 eV

  Derived energy quantities:
  | Kinetic energy                :        1633.83635715 Ha       44458.94932436 eV
  | Electrostatic energy          :       -3113.25943172 Ha      -84716.09944486 eV
  | Energy correction for multipole
  | error in Hartree potential    :           0.02997094 Ha           0.81555079 eV
  | Sum of eigenvalues per atom                           :       -2000.21254631 eV
  | Total energy (T->0) per atom                          :       -3684.97468189 eV  <-- do not rely on this value for anything but (periodic) metals
  | Electronic free energy per atom                       :       -3684.97468189 eV
  Evaluating new KS density.
  Integration grid: deviation in total charge (<rho> - N_e) =   5.684342E-14

  Self-consistency convergence accuracy:
  | Change of charge density      :  0.6091E+00
  | Change of sum of eigenvalues  :  0.1338E+03 eV
  | Change of total energy        :  0.6184E+01 eV


------------------------------------------------------------
  End self-consistency iteration #     1       :  max(cpu_time)    wall_clock(cpu1)
  | Time for this iteration                     :        0.126 s           0.126 s
  | Charge density update                       :        0.028 s           0.028 s
  | Density mixing                              :        0.001 s           0.001 s
  | Hartree multipole update                    :        0.008 s           0.008 s
  | Hartree multipole summation                 :        0.022 s           0.022 s
  | Integration                                 :        0.034 s           0.034 s
  | Solution of K.-S. eqns.                     :        0.030 s           0.030 s
  | Total energy evaluation                     :        0.001 s           0.003 s

  Partial memory accounting:
  | Current value for overall tracked memory usage:
  |   Minimum:        0.273 MB (on task 23)
  |   Maximum:        0.292 MB (on task  0)
  |   Average:        0.287 MB
  | Peak value for overall tracked memory usage:
  |   Minimum:        1.358 MB (on task 14 after allocating wave)
  |   Maximum:        1.429 MB (on task  5 after allocating wave)
  |   Average:        1.383 MB
  | Largest tracked array allocation so far:
  |   Minimum:        0.738 MB (gradient_basis_wave on task 14)
  |   Maximum:        0.783 MB (gradient_basis_wave on task  5)
  |   Average:        0.756 MB
  Note:  These values currently only include a subset of arrays which are explicitly tracked.
  The "true" memory usage will be greater.
------------------------------------------------------------

------------------------------------------------------------
          Begin self-consistency iteration #    2

  Date     :  20220517, Time     :  120557.726
------------------------------------------------------------
  Pulay mixing of updated and previous charge densities.
  Renormalizing the density to the exact electron count on the 3D integration grid.
  | Formal number of electrons (from input files) :     120.0000000000
  | Integrated number of electrons on 3D grid     :     120.0000000000
  | Charge integration error                      :       0.0000000000
  | Normalization factor for density and gradient :       1.0000000000

  Evaluating partitioned Hartree potential by multipole expansion.
  | Original multipole sum: apparent total charge =  -0.210065E-13
  | Sum of charges compensated after spline to logarithmic grids =   0.118264E-03
  | Analytical far-field extrapolation by fixed multipoles:
  | Hartree multipole sum: apparent total charge =  -0.204899E-13
  Summing up the Hartree potential.
  Time summed over all CPUs for potential: real work        0.381 s, elapsed        0.398 s
  | RMS charge density error from multipole expansion :   0.118925E-01

  Integrating Hamiltonian matrix: batch-based integration.
  Time summed over all CPUs for integration: real work        0.695 s, elapsed        0.727 s

  Updating Kohn-Sham eigenvalues and eigenvectors using ELSI and the ELPA eigensolver.
  Starting ELPA eigensolver
  Finished transformation to standard eigenproblem
  | Time :     0.005 s
  Finished solving standard eigenproblem
  | Time :     0.016 s
  Finished back-transformation of eigenvectors
  | Time :     0.002 s

  Obtaining occupation numbers and chemical potential using ELSI.
  | Chemical potential (Fermi level):    -7.94728089 eV
  Highest occupied state (VBM) at     -9.29034879 eV
  | Occupation number:      2.00000000

  Lowest unoccupied state (CBM) at    -5.57230237 eV
  | Occupation number:      0.00000000

  Overall HOMO-LUMO gap:      3.71804643 eV.

  Checking to see if s.c.f. parameters should be adjusted.

  Total energy components:
  | Sum of eigenvalues            :        -885.09513973 Ha      -24084.66416630 eV
  | XC energy correction          :        -145.07857851 Ha       -3947.78898250 eV
  | XC potential correction       :         188.90754151 Ha        5140.43574692 eV
  | Free-atom electrostatic energy:        -781.85778445 Ha      -21275.43279692 eV
  | Hartree energy correction     :          -1.83435616 Ha         -49.91537079 eV
  | Entropy correction            :           0.00000000 Ha           0.00000000 eV
  | ---------------------------
  | Total energy                  :       -1624.95831734 Ha      -44217.36556959 eV
  | Total energy, T -> 0          :       -1624.95831734 Ha      -44217.36556959 eV  <-- do not rely on this value for anything but (periodic) metals
  | Electronic free energy        :       -1624.95831734 Ha      -44217.36556959 eV

  Derived energy quantities:
  | Kinetic energy                :        1629.81427065 Ha       44349.50278213 eV
  | Electrostatic energy          :       -3109.69400948 Ha      -84619.07936923 eV
  | Energy correction for multipole
  | error in Hartree potential    :           0.03185914 Ha           0.86693132 eV
  | Sum of eigenvalues per atom                           :       -2007.05534719 eV
  | Total energy (T->0) per atom                          :       -3684.78046413 eV  <-- do not rely on this value for anything but (periodic) metals
  | Electronic free energy per atom                       :       -3684.78046413 eV
  Evaluating new KS density.
  Integration grid: deviation in total charge (<rho> - N_e) =   1.421085E-14

  Self-consistency convergence accuracy:
  | Change of charge density      :  0.5403E+00
  | Change of sum of eigenvalues  : -0.8211E+02 eV
  | Change of total energy        :  0.2331E+01 eV


------------------------------------------------------------
  End self-consistency iteration #     2       :  max(cpu_time)    wall_clock(cpu1)
  | Time for this iteration                     :        0.123 s           0.123 s
  | Charge density update                       :        0.028 s           0.028 s
  | Density mixing                              :        0.009 s           0.010 s
  | Hartree multipole update                    :        0.007 s           0.006 s
  | Hartree multipole summation                 :        0.018 s           0.018 s
  | Integration                                 :        0.035 s           0.036 s
  | Solution of K.-S. eqns.                     :        0.024 s           0.024 s
  | Total energy evaluation                     :        0.000 s           0.001 s

  Partial memory accounting:
  | Current value for overall tracked memory usage:
  |   Minimum:        0.274 MB (on task 23)
  |   Maximum:        0.293 MB (on task  0)
  |   Average:        0.288 MB
  | Peak value for overall tracked memory usage:
  |   Minimum:        1.358 MB (on task 14 after allocating wave)
  |   Maximum:        1.429 MB (on task  5 after allocating wave)
  |   Average:        1.383 MB
  | Largest tracked array allocation so far:
  |   Minimum:        0.738 MB (gradient_basis_wave on task 14)
  |   Maximum:        0.783 MB (gradient_basis_wave on task  5)
  |   Average:        0.756 MB
  Note:  These values currently only include a subset of arrays which are explicitly tracked.
  The "true" memory usage will be greater.
------------------------------------------------------------

------------------------------------------------------------
          Begin self-consistency iteration #    3

  Date     :  20220517, Time     :  120557.859
------------------------------------------------------------
  Pulay mixing of updated and previous charge densities.
  Renormalizing the density to the exact electron count on the 3D integration grid.
  | Formal number of electrons (from input files) :     120.0000000000
  | Integrated number of electrons on 3D grid     :     120.0000000000
  | Charge integration error                      :       0.0000000000
  | Normalization factor for density and gradient :       1.0000000000

  Evaluating partitioned Hartree potential by multipole expansion.
  | Original multipole sum: apparent total charge =   0.270575E-14
  | Sum of charges compensated after spline to logarithmic grids =   0.154961E-03
  | Analytical far-field extrapolation by fixed multipoles:
  | Hartree multipole sum: apparent total charge =   0.157426E-14
  Summing up the Hartree potential.
  Time summed over all CPUs for potential: real work        0.381 s, elapsed        0.404 s
  | RMS charge density error from multipole expansion :   0.157921E-01

  Integrating Hamiltonian matrix: batch-based integration.
  Time summed over all CPUs for integration: real work        0.693 s, elapsed        0.731 s

  Updating Kohn-Sham eigenvalues and eigenvectors using ELSI and the ELPA eigensolver.
  Starting ELPA eigensolver
  Finished transformation to standard eigenproblem
  | Time :     0.002 s
  Finished solving standard eigenproblem
  | Time :     0.015 s
  Finished back-transformation of eigenvectors
  | Time :     0.001 s

  Obtaining occupation numbers and chemical potential using ELSI.
  | Chemical potential (Fermi level):    -7.87618185 eV
  Highest occupied state (VBM) at     -8.83002478 eV
  | Occupation number:      2.00000000

  Lowest unoccupied state (CBM) at    -5.75728654 eV
  | Occupation number:      0.00000000

  Overall HOMO-LUMO gap:      3.07273824 eV.

  Total energy components:
  | Sum of eigenvalues            :        -885.98032367 Ha      -24108.75124673 eV
  | XC energy correction          :        -145.04037947 Ha       -3946.74953376 eV
  | XC potential correction       :         188.85646240 Ha        5139.04581373 eV
  | Free-atom electrostatic energy:        -781.85778445 Ha      -21275.43279692 eV
  | Hartree energy correction     :          -0.93533719 Ha         -25.45181995 eV
  | Entropy correction            :           0.00000000 Ha           0.00000000 eV
  | ---------------------------
  | Total energy                  :       -1624.95736237 Ha      -44217.33958363 eV
  | Total energy, T -> 0          :       -1624.95736237 Ha      -44217.33958363 eV  <-- do not rely on this value for anything but (periodic) metals
  | Electronic free energy        :       -1624.95736237 Ha      -44217.33958363 eV

  Derived energy quantities:
  | Kinetic energy                :        1628.27279629 Ha       44307.55713083 eV
  | Electrostatic energy          :       -3108.18977920 Ha      -84578.14718070 eV
  | Energy correction for multipole
  | error in Hartree potential    :           0.04165707 Ha           1.13354657 eV
  | Sum of eigenvalues per atom                           :       -2009.06260389 eV
  | Total energy (T->0) per atom                          :       -3684.77829864 eV  <-- do not rely on this value for anything but (periodic) metals
  | Electronic free energy per atom                       :       -3684.77829864 eV
  Evaluating new KS density.
  Integration grid: deviation in total charge (<rho> - N_e) =   1.421085E-14

  Self-consistency convergence accuracy:
  | Change of charge density      :  0.1381E+00
  | Change of sum of eigenvalues  : -0.2409E+02 eV
  | Change of total energy        :  0.2599E-01 eV


------------------------------------------------------------
  End self-consistency iteration #     3       :  max(cpu_time)    wall_clock(cpu1)
  | Time for this iteration                     :        0.114 s           0.111 s
  | Charge density update                       :        0.029 s           0.029 s
  | Density mixing                              :        0.008 s           0.003 s
  | Hartree multipole update                    :        0.002 s           0.002 s
  | Hartree multipole summation                 :        0.019 s           0.019 s
  | Integration                                 :        0.034 s           0.035 s
  | Solution of K.-S. eqns.                     :        0.022 s           0.021 s
  | Total energy evaluation                     :        0.000 s           0.000 s

  Partial memory accounting:
  | Current value for overall tracked memory usage:
  |   Minimum:        0.274 MB (on task 23)
  |   Maximum:        0.293 MB (on task  0)
  |   Average:        0.288 MB
  | Peak value for overall tracked memory usage:
  |   Minimum:        1.358 MB (on task 14 after allocating wave)
  |   Maximum:        1.429 MB (on task  5 after allocating wave)
  |   Average:        1.383 MB
  | Largest tracked array allocation so far:
  |   Minimum:        0.738 MB (gradient_basis_wave on task 14)
  |   Maximum:        0.783 MB (gradient_basis_wave on task  5)
  |   Average:        0.756 MB
  Note:  These values currently only include a subset of arrays which are explicitly tracked.
  The "true" memory usage will be greater.
------------------------------------------------------------

------------------------------------------------------------
          Begin self-consistency iteration #    4

  Date     :  20220517, Time     :  120557.979
------------------------------------------------------------
  Pulay mixing of updated and previous charge densities.
  Renormalizing the density to the exact electron count on the 3D integration grid.
  | Formal number of electrons (from input files) :     120.0000000000
  | Integrated number of electrons on 3D grid     :     120.0000000000
  | Charge integration error                      :       0.0000000000
  | Normalization factor for density and gradient :       1.0000000000

  Evaluating partitioned Hartree potential by multipole expansion.
  | Original multipole sum: apparent total charge =   0.107492E-13
  | Sum of charges compensated after spline to logarithmic grids =   0.177416E-03
  | Analytical far-field extrapolation by fixed multipoles:
  | Hartree multipole sum: apparent total charge =   0.106754E-13
  Summing up the Hartree potential.
  Time summed over all CPUs for potential: real work        0.381 s, elapsed        0.397 s
  | RMS charge density error from multipole expansion :   0.182066E-01

  Integrating Hamiltonian matrix: batch-based integration.
  Time summed over all CPUs for integration: real work        0.695 s, elapsed        0.760 s

  Updating Kohn-Sham eigenvalues and eigenvectors using ELSI and the ELPA eigensolver.
  Starting ELPA eigensolver
  Finished transformation to standard eigenproblem
  | Time :     0.005 s
  Finished solving standard eigenproblem
  | Time :     0.010 s
  Finished back-transformation of eigenvectors
  | Time :     0.003 s

  Obtaining occupation numbers and chemical potential using ELSI.
  | Chemical potential (Fermi level):    -7.90149733 eV
  Highest occupied state (VBM) at     -8.92574164 eV
  | Occupation number:      2.00000000

  Lowest unoccupied state (CBM) at    -5.76530761 eV
  | Occupation number:      0.00000000

  Overall HOMO-LUMO gap:      3.16043404 eV.

  Total energy components:
  | Sum of eigenvalues            :        -886.21826040 Ha      -24115.22583477 eV
  | XC energy correction          :        -145.01191982 Ha       -3945.97510729 eV
  | XC potential correction       :         188.81830314 Ha        5138.00744742 eV
  | Free-atom electrostatic energy:        -781.85778445 Ha      -21275.43279692 eV
  | Hartree energy correction     :          -0.68428055 Ha         -18.62022109 eV
  | Entropy correction            :           0.00000000 Ha           0.00000000 eV
  | ---------------------------
  | Total energy                  :       -1624.95394208 Ha      -44217.24651266 eV
  | Total energy, T -> 0          :       -1624.95394208 Ha      -44217.24651266 eV  <-- do not rely on this value for anything but (periodic) metals
  | Electronic free energy        :       -1624.95394208 Ha      -44217.24651266 eV

  Derived energy quantities:
  | Kinetic energy                :        1627.36084033 Ha       44282.74154653 eV
  | Electrostatic energy          :       -3107.30286259 Ha      -84554.01295190 eV
  | Energy correction for multipole
  | error in Hartree potential    :           0.04752606 Ha           1.29324994 eV
  | Sum of eigenvalues per atom                           :       -2009.60215290 eV
  | Total energy (T->0) per atom                          :       -3684.77054272 eV  <-- do not rely on this value for anything but (periodic) metals
  | Electronic free energy per atom                       :       -3684.77054272 eV
  Evaluating new KS density.
  Integration grid: deviation in total charge (<rho> - N_e) =  -2.842171E-14

  Self-consistency convergence accuracy:
  | Change of charge density      :  0.1102E+00
  | Change of sum of eigenvalues  : -0.6475E+01 eV
  | Change of total energy        :  0.9307E-01 eV


------------------------------------------------------------
  End self-consistency iteration #     4       :  max(cpu_time)    wall_clock(cpu1)
  | Time for this iteration                     :        0.111 s           0.110 s
  | Charge density update                       :        0.029 s           0.029 s
  | Density mixing                              :        0.006 s           0.003 s
  | Hartree multipole update                    :        0.005 s           0.005 s
  | Hartree multipole summation                 :        0.018 s           0.019 s
  | Integration                                 :        0.033 s           0.033 s
  | Solution of K.-S. eqns.                     :        0.018 s           0.019 s
  | Total energy evaluation                     :        0.000 s           0.001 s

  Partial memory accounting:
  | Current value for overall tracked memory usage:
  |   Minimum:        0.274 MB (on task 23)
  |   Maximum:        0.293 MB (on task  0)
  |   Average:        0.288 MB
  | Peak value for overall tracked memory usage:
  |   Minimum:        1.358 MB (on task 14 after allocating wave)
  |   Maximum:        1.429 MB (on task  5 after allocating wave)
  |   Average:        1.383 MB
  | Largest tracked array allocation so far:
  |   Minimum:        0.738 MB (gradient_basis_wave on task 14)
  |   Maximum:        0.783 MB (gradient_basis_wave on task  5)
  |   Average:        0.756 MB
  Note:  These values currently only include a subset of arrays which are explicitly tracked.
  The "true" memory usage will be greater.
------------------------------------------------------------

------------------------------------------------------------
          Begin self-consistency iteration #    5

  Date     :  20220517, Time     :  120558.095
------------------------------------------------------------
  Pulay mixing of updated and previous charge densities.
  Renormalizing the density to the exact electron count on the 3D integration grid.
  | Formal number of electrons (from input files) :     120.0000000000
  | Integrated number of electrons on 3D grid     :     120.0000000000
  | Charge integration error                      :      -0.0000000000
  | Normalization factor for density and gradient :       1.0000000000

  Evaluating partitioned Hartree potential by multipole expansion.
  | Original multipole sum: apparent total charge =  -0.846408E-13
  | Sum of charges compensated after spline to logarithmic grids =   0.176644E-03
  | Analytical far-field extrapolation by fixed multipoles:
  | Hartree multipole sum: apparent total charge =  -0.843702E-13
  Summing up the Hartree potential.
  Time summed over all CPUs for potential: real work        0.382 s, elapsed        0.398 s
  | RMS charge density error from multipole expansion :   0.179913E-01

  Integrating Hamiltonian matrix: batch-based integration.
  Time summed over all CPUs for integration: real work        0.694 s, elapsed        0.725 s

  Updating Kohn-Sham eigenvalues and eigenvectors using ELSI and the ELPA eigensolver.
  Starting ELPA eigensolver
  Finished transformation to standard eigenproblem
  | Time :     0.006 s
  Finished solving standard eigenproblem
  | Time :     0.026 s
  Finished back-transformation of eigenvectors
  | Time :     0.002 s

  Obtaining occupation numbers and chemical potential using ELSI.
  | Chemical potential (Fermi level):    -7.90007509 eV
  Highest occupied state (VBM) at     -9.02631047 eV
  | Occupation number:      2.00000000

  Lowest unoccupied state (CBM) at    -5.71141461 eV
  | Occupation number:      0.00000000

  Overall HOMO-LUMO gap:      3.31489586 eV.

  Total energy components:
  | Sum of eigenvalues            :        -886.05817597 Ha      -24110.86971576 eV
  | XC energy correction          :        -145.00767090 Ha       -3945.85948819 eV
  | XC potential correction       :         188.81285418 Ha        5137.85917356 eV
  | Free-atom electrostatic energy:        -781.85778445 Ha      -21275.43279692 eV
  | Hartree energy correction     :          -0.84285658 Ha         -22.93529451 eV
  | Entropy correction            :           0.00000000 Ha           0.00000000 eV
[...]
   Total forces(   7)            : -0.190832E+01  0.217864E+01  0.138496E+01
  atom #    8
   Hellmann-Feynman              :  0.887695E-02 -0.739789E+00 -0.104526E+01
   Ionic forces                  :  0.000000E+00  0.000000E+00  0.000000E+00
   Multipole                     :  0.418541E+00 -0.366879E+00  0.615127E-01
   Hartree pot. SCF incomplete   :  0.637975E-05 -0.547823E-05 -0.144600E-04
   Pulay + GGA                   : -0.247593E+01  0.379434E+01 -0.573195E+00
   ----------------------------------------------------------------
   Total forces(   8)            : -0.204851E+01  0.268767E+01 -0.155695E+01
  atom #    9
   Hellmann-Feynman              : -0.545662E+00  0.654502E+00 -0.300768E+01
   Ionic forces                  :  0.000000E+00  0.000000E+00  0.000000E+00
   Multipole                     : -0.343757E+00 -0.767927E-02 -0.702483E+00
   Hartree pot. SCF incomplete   : -0.367145E-06 -0.111548E-05 -0.151570E-05
   Pulay + GGA                   :  0.227814E+01 -0.863726E+00  0.713313E+01
   ----------------------------------------------------------------
   Total forces(   9)            :  0.138872E+01 -0.216904E+00  0.342296E+01
  atom #   10
   Hellmann-Feynman              : -0.151852E+01  0.118433E+01 -0.148962E+01
   Ionic forces                  :  0.000000E+00  0.000000E+00  0.000000E+00
   Multipole                     : -0.103173E+00  0.706722E+00  0.108556E+00
   Hartree pot. SCF incomplete   : -0.973397E-06  0.156296E-04 -0.158042E-04
   Pulay + GGA                   :  0.133422E+01 -0.353764E+01 -0.911657E+00
   ----------------------------------------------------------------
   Total forces(  10)            : -0.287471E+00 -0.164657E+01 -0.229274E+01
  atom #   11
   Hellmann-Feynman              :  0.378080E+01  0.126346E+01  0.179864E+01
   Ionic forces                  :  0.000000E+00  0.000000E+00  0.000000E+00
   Multipole                     :  0.541364E+00  0.117703E+00  0.156718E+00
   Hartree pot. SCF incomplete   : -0.314815E-05 -0.196016E-05  0.319327E-07
   Pulay + GGA                   : -0.647801E+01 -0.179585E+01 -0.282464E+01
   ----------------------------------------------------------------
   Total forces(  11)            : -0.215585E+01 -0.414688E+00 -0.869275E+00
  atom #   12
   Hellmann-Feynman              : -0.105220E+01 -0.612462E+00  0.889397E+00
   Ionic forces                  :  0.000000E+00  0.000000E+00  0.000000E+00
   Multipole                     : -0.162829E+00 -0.154376E+00  0.154132E+00
   Hartree pot. SCF incomplete   : -0.417505E-05 -0.530001E-05 -0.499183E-06
   Pulay + GGA                   :  0.456743E+01  0.260533E+01 -0.524281E+00
   ----------------------------------------------------------------
   Total forces(  12)            :  0.335240E+01  0.183849E+01  0.519247E+00


  Self-consistency convergence accuracy:
  | Change of charge density      :  0.7170E-06
  | Change of sum of eigenvalues  : -0.3291E-04 eV
  | Change of total energy        :  0.1318E-08 eV
  | Change of forces              :  0.3058E-05 eV/A

  Writing Kohn-Sham eigenvalues.

  State    Occupation    Eigenvalue [Ha]    Eigenvalue [eV]
      1       2.00000         -55.673121        -1514.94269
      2       2.00000         -55.652141        -1514.37180
      3       2.00000         -55.606959        -1513.14233
      4       2.00000         -24.325869         -661.94058
      5       2.00000         -24.306228         -661.40613
      6       2.00000         -24.295923         -661.12571
      7       2.00000         -24.244578         -659.72853
      8       2.00000         -24.238631         -659.56671
      9       2.00000         -24.230633         -659.34906
     10       2.00000         -24.204845         -658.64736
     11       2.00000         -24.196213         -658.41245
     12       2.00000         -24.192059         -658.29942
     13       2.00000          -4.121646         -112.15568
     14       2.00000          -4.098868         -111.53587
     15       2.00000          -4.065109         -110.61724
     16       2.00000          -2.715140          -73.88273
     17       2.00000          -2.712814          -73.81943
     18       2.00000          -2.711625          -73.78707
     19       2.00000          -2.694593          -73.32360
     20       2.00000          -2.689817          -73.19364
     21       2.00000          -2.686912          -73.11460
     22       2.00000          -2.658480          -72.34092
     23       2.00000          -2.656169          -72.27804
     24       2.00000          -2.654886          -72.24312
     25       2.00000          -1.198780          -32.62046
     26       2.00000          -1.166998          -31.75564
     27       2.00000          -1.158439          -31.52274
     28       2.00000          -1.094460          -29.78178
     29       2.00000          -1.075135          -29.25591
     30       2.00000          -1.068926          -29.08697
     31       2.00000          -1.050769          -28.59288
     32       2.00000          -1.040158          -28.30413
     33       2.00000          -1.028393          -27.98400
     34       2.00000          -0.573912          -15.61695
     35       2.00000          -0.557443          -15.16881
     36       2.00000          -0.524951          -14.28464
     37       2.00000          -0.514164          -13.99113
     38       2.00000          -0.507479          -13.80922
     39       2.00000          -0.494915          -13.46732
     40       2.00000          -0.488478          -13.29216
     41       2.00000          -0.461324          -12.55325
     42       2.00000          -0.451259          -12.27939
     43       2.00000          -0.448711          -12.21005
     44       2.00000          -0.433052          -11.78393
     45       2.00000          -0.429318          -11.68234
     46       2.00000          -0.419534          -11.41610
     47       2.00000          -0.410888          -11.18083
     48       2.00000          -0.400141          -10.88839
     49       2.00000          -0.395092          -10.75101
     50       2.00000          -0.384764          -10.46996
     51       2.00000          -0.382794          -10.41637
     52       2.00000          -0.378745          -10.30619
     53       2.00000          -0.374321          -10.18580
     54       2.00000          -0.369536          -10.05557
     55       2.00000          -0.355488           -9.67332
     56       2.00000          -0.353487           -9.61887
     57       2.00000          -0.349567           -9.51221
     58       2.00000          -0.345868           -9.41156
     59       2.00000          -0.335507           -9.12960
     60       2.00000          -0.330979           -9.00639
     61       0.00000          -0.209357           -5.69690
     62       0.00000          -0.174793           -4.75636
     63       0.00000          -0.128202           -3.48854
     64       0.00000          -0.068847           -1.87343
     65       0.00000          -0.064080           -1.74369
     66       0.00000          -0.052151           -1.41909
     67       0.00000          -0.018062           -0.49150
     68       0.00000          -0.003920           -0.10667
     69       0.00000           0.032134            0.87441
     70       0.00000           0.065493            1.78217
     71       0.00000           0.085656            2.33083
     72       0.00000           0.097331            2.64850
     73       0.00000           0.125138            3.40517
     74       0.00000           0.142271            3.87139
     75       0.00000           0.147961            4.02623
     76       0.00000           0.154887            4.21470
     77       0.00000           0.168130            4.57504
     78       0.00000           0.173827            4.73007
     79       0.00000           0.185229            5.04033
     80       0.00000           0.194896            5.30340
     81       0.00000           0.203158            5.52820
     82       0.00000           0.209735            5.70717
     83       0.00000           0.218398            5.94291
     84       0.00000           0.227931            6.20232
     85       0.00000           0.232277            6.32058
     86       0.00000           0.237031            6.44994
     87       0.00000           0.255614            6.95561
     88       0.00000           0.259432            7.05950
     89       0.00000           0.268237            7.29911
     90       0.00000           0.280943            7.64484
     91       0.00000           0.283192            7.70605
     92       0.00000           0.293081            7.97515
     93       0.00000           0.325906            8.86834
     94       0.00000           0.353620            9.62250
     95       0.00000           0.358116            9.74484
     96       0.00000           0.366558            9.97456

  Highest occupied state (VBM) at     -9.00639291 eV
  | Occupation number:      2.00000000

  Lowest unoccupied state (CBM) at    -5.69689625 eV
  | Occupation number:      0.00000000

  Overall HOMO-LUMO gap:      3.30949666 eV.
  | Chemical Potential                          :    -7.89556570 eV

  Self-consistency cycle converged.


------------------------------------------------------------
  End self-consistency iteration #    14       :  max(cpu_time)    wall_clock(cpu1)
  | Time for this iteration                     :        0.278 s           0.275 s
  | Charge density & force component update     :        0.154 s           0.154 s
  | Density mixing                              :        0.005 s           0.002 s
  | Hartree multipole update                    :        0.001 s           0.002 s
  | Hartree multipole summation                 :        0.049 s           0.049 s
  | Hartree pot. SCF incomplete forces          :        0.032 s           0.032 s
  | Integration                                 :        0.031 s           0.031 s
  | Solution of K.-S. eqns.                     :        0.004 s           0.005 s
  | Total energy evaluation                     :        0.000 s           0.000 s

  Partial memory accounting:
  | Current value for overall tracked memory usage:
  |   Minimum:        0.274 MB (on task 23)
  |   Maximum:        0.293 MB (on task  0)
  |   Average:        0.289 MB
  | Peak value for overall tracked memory usage:
  |   Minimum:        3.026 MB (on task 14 after allocating hessian_basis_wave)
  |   Maximum:        3.178 MB (on task  5 after allocating hessian_basis_wave)
  |   Average:        3.083 MB
  | Largest tracked array allocation so far:
  |   Minimum:        1.476 MB (hessian_basis_wave on task 14)
  |   Maximum:        1.567 MB (hessian_basis_wave on task  5)
  |   Average:        1.513 MB
  Note:  These values currently only include a subset of arrays which are explicitly tracked.
  The "true" memory usage will be greater.
------------------------------------------------------------
  Removing unitary transformations (pure translations, rotations) from forces on atoms.
  Atomic forces before filtering:
  | Net force on center of mass :  -0.184370E-02  0.582345E-03 -0.564608E-02 eV/A
  | Net torque on center of mass:   0.537026E-02  0.379668E-02 -0.108493E-01 eV
  Atomic forces after filtering:
  | Net force on center of mass :   0.713624E-15  0.107044E-14  0.267609E-15 eV/A
  | Net torque on center of mass:   0.377634E-14  0.141613E-14  0.113290E-14 eV

  Energy and forces in a compact form:
  | Total energy uncorrected      :         -0.442172373230284E+05 eV
  | Total energy corrected        :         -0.442172373230284E+05 eV  <-- do not rely on this value for anything but (periodic) metals
  | Electronic free energy        :         -0.442172373230284E+05 eV
  Total atomic forces (unitary forces cleaned) [eV/Ang]:
  |    1         -0.369976488455350E+01         -0.142169986658232E+01         -0.150048327547827E+01
  |    2          0.386634317602194E+01         -0.108397074078891E+01          0.327370558511073E+01
  |    3         -0.277995528711130E+01         -0.140060239681600E+01         -0.293074748555745E+01
  |    4          0.122835116070712E+00         -0.244138082192450E+01         -0.508308409218016E+00
  |    5          0.307735912232341E+01         -0.200653841354873E+01          0.102595872513781E+01
  |    6          0.107106050058188E+01          0.392726933736022E+01          0.285052855922246E-01
  |    7         -0.190784647564868E+01          0.217894732598663E+01          0.138574831642336E+01
  |    8         -0.204810777012589E+01          0.268795154784766E+01         -0.155621892119324E+01
  |    9          0.138904293771033E+01         -0.217552594612466E+00          0.342329717783771E+01
  |   10         -0.287764011324389E+00         -0.164650393018539E+01         -0.229247910874456E+01
  |   11         -0.215604056732763E+01         -0.413781664292168E+00         -0.868640490816952E+00
  |   12          0.335283814338311E+01          0.183786221755596E+01          0.519662600906660E+00

  ------------------------------------ 
  Start decomposition of the XC Energy 
  ------------------------------------ 
  X and C from original XC functional choice 
  Hartree-Fock Energy :          0.000000000 Ha              0.000000000 eV
  X Energy            :       -140.070793588 Ha          -3811.520221550 eV
  C Energy            :         -4.941436131 Ha           -134.463318536 eV
  Total XC Energy     :       -145.012229719 Ha          -3945.983540086 eV
  ------------------------------------ 
  LDA X and C from self-consistent density 
  X Energy LDA        :       -132.647654128 Ha          -3609.526319501 eV
  C Energy LDA        :         -8.817921115 Ha           -239.947841942 eV
  ------------------------------------ 
  End decomposition of the XC Energy 
  ------------------------------------ 

------------------------------------------------------------

------------------------------------------------------------------------------
  Final output of selected total energy values:

  The following output summarizes some interesting total energy values
  at the end of a run (AFTER all relaxation, molecular dynamics, etc.).

  | Total energy of the DFT / Hartree-Fock s.c.f. calculation      :         -44217.237323028 eV
  | Final zero-broadening corrected energy (caution - metals only) :         -44217.237323028 eV
  | For reference only, the value of 1 Hartree used in FHI-aims is :             27.211384500 eV

  Before relying on these values, please be sure to understand exactly which
  total energy value is referred to by a given number. Different objects may
  all carry the same name 'total energy'. Definitions:

  Total energy of the DFT / Hartree-Fock s.c.f. calculation:
  | Note that this energy does not include ANY quantities calculated after the
  | s.c.f. cycle, in particular not ANY RPA, MP2, etc. many-body perturbation terms.

  Final zero-broadening corrected energy:
  | For metallic systems only, a broadening of the occupation numbers at the Fermi
  | level can be extrapolated back to zero broadening by an electron-gas inspired
  | formula. For all systems that are not real metals, this value can be
  | meaningless and should be avoided.

------------------------------------------------------------------------------
  Methods described in the following list of references were used in this FHI-aims run.
  If you publish the results, please make sure to cite these reference if they apply.
  FHI-aims is an academic code, and for our developers (often, Ph.D. students
  and postdocs), scientific credit in the community is essential.
  Thank you for helping us!

  For any use of FHI-aims, please cite:

    Volker Blum, Ralf Gehrke, Felix Hanke, Paula Havu, Ville Havu,
    Xinguo Ren, Karsten Reuter, and Matthias Scheffler
    'Ab initio molecular simulations with numeric atom-centered orbitals'
    Computer Physics Communications 180, 2175-2196 (2009)
    http://dx.doi.org/10.1016/j.cpc.2009.06.022


  The ELSI infrastructure was used in your run to solve the Kohn-Sham electronic structure.
  Please check out http://elsi-interchange.org to learn more.
  If scalability is important for your project, please acknowledge ELSI by citing:

    V. W-z. Yu, F. Corsetti, A. Garcia, W. P. Huhn, M. Jacquelin, W. Jia,
    B. Lange, L. Lin, J. Lu, W. Mi, A. Seifitokaldani, A. Vazquez-Mayagoitia,
    C. Yang, H. Yang, and V. Blum
    'ELSI: A unified software interface for Kohn-Sham electronic structure solvers'
    Computer Physics Communications 222, 267-285 (2018).
    http://dx.doi.org/10.1016/j.cpc.2017.09.007


  For the real-space grid partitioning and parallelization used in this calculation, please cite:

    Ville Havu, Volker Blum, Paula Havu, and Matthias Scheffler,
    'Efficient O(N) integration for all-electron electronic structure calculation'
    'using numerically tabulated basis functions'
    Journal of Computational Physics 228, 8367-8379 (2009).
    http://dx.doi.org/10.1016/j.jcp.2009.08.008

  Of course, there are many other important community references, e.g., those cited in the
  above references. Our list is limited to references that describe implementations in the
  FHI-aims code. The reason is purely practical (length of this list) - please credit others as well.

------------------------------------------------------------
          Leaving FHI-aims.
          Date     :  20220517, Time     :  120559.501

          Computational steps:
          | Number of self-consistency cycles          :           14
          | Number of SCF (re)initializations          :            1

          Detailed time accounting                     :  max(cpu_time)    wall_clock(cpu1)
          | Total time                                  :        2.354 s           2.418 s
          | Preparation time                            :        0.183 s           0.184 s
          | Boundary condition initalization            :        0.000 s           0.001 s
          | Grid partitioning                           :        0.049 s           0.049 s
          | Preloading free-atom quantities on grid     :        0.017 s           0.019 s
          | Free-atom superposition energy              :        0.006 s           0.006 s
          | Total time for integrations                 :        0.507 s           0.509 s
          | Total time for solution of K.-S. equations  :        0.255 s           0.255 s
          | Total time for density & force components   :        0.682 s           0.683 s
          | Total time for mixing                       :        0.083 s           0.056 s
          | Total time for Hartree multipole update     :        0.043 s           0.045 s
          | Total time for Hartree multipole sum        :        0.317 s           0.318 s
          | Total time for total energy evaluation      :        0.004 s           0.010 s
          | Total time NSC force correction             :        0.063 s           0.064 s
          | Total time for scaled ZORA corrections      :        0.000 s           0.000 s

          Partial memory accounting:
          | Residual value for overall tracked memory usage across tasks:     0.000000 MB (should be 0.000000 MB)
          | Peak values for overall tracked memory usage:
          |   Minimum:        3.026 MB (on task 14 after allocating hessian_basis_wave)
          |   Maximum:        3.178 MB (on task  5 after allocating hessian_basis_wave)
          |   Average:        3.083 MB
          | Largest tracked array allocation:
          |   Minimum:        1.476 MB (hessian_basis_wave on task 14)
          |   Maximum:        1.567 MB (hessian_basis_wave on task  5)
          |   Average:        1.513 MB
          Note:  These values currently only include a subset of arrays which are explicitly tracked.
          The "true" memory usage will be greater.

          Have a nice day.
------------------------------------------------------------
