********************************************************************************
*                       GENERAL UTILITY LATTICE PROGRAM                        *
*                                 Julian Gale                                  *
*                       Curtin Institute for Computation                       *
*                           Department of Chemistry                            *
*                    Curtin University, Western Australia                      *
********************************************************************************
* Version = 5.1.1 * Last modified =  24th November 2018                        *
********************************************************************************
*  optimise     - perform optimisation run                                     *
*  conp         - constant pressure calculation                                *
*  shell        - only shells and radii to be optimised                        *
*  phonon       - calculate phonons for final geometry                         *
*  eigenvectors - output phonon eigenvectors                                   *
********************************************************************************

  Job Started  at 14:39.55 25th May        2022                               

  Number of CPUs =     1

  Host name      = login03                                 


  Total number of configurations input =      1

********************************************************************************
*  Input for Configuration =   1                                               *
********************************************************************************

  Formula = Al3F9                                                       

  Number of irreducible atoms/shells =      21


  Total number atoms/shells =      21

  Dimensionality = 0               :  Cluster


  Charge on cluster =  -0.000000


  Initial cluster dipoles : x =      0.820128 e.Angs
                            y =      0.885621 e.Angs
                            z =      0.408588 e.Angs

  Temperature of configuration =  0.000     K 

  Symmetry number =      1

  Cartesian coordinates of cluster :

--------------------------------------------------------------------------------
   No.  Atomic       x           y          z         Charge      Occupancy
        Label      (Angs)      (Angs)     (Angs)        (e)         (Frac)  
--------------------------------------------------------------------------------
      1 Al    c     -0.1239      1.7140      2.5679     3.00000    1.000000    
      2 Al    c      2.4725      2.6230      1.6611     3.00000    1.000000    
      3 Al    c      1.4676      2.7189     -0.6874     3.00000    1.000000    
      4 F     c      0.9881      3.1933      2.8723     0.59000    1.000000    
      5 F     c     -1.6768      2.7547      2.1599     0.59000    1.000000    
      6 F     c     -0.5441     -0.1419      2.7397     0.59000    1.000000    
      7 F     c      2.1350      0.8370      1.8402     0.59000    1.000000    
      8 F     c      3.0445      1.7796      0.0373     0.59000    1.000000    
      9 F     c      1.0325      3.0183     -2.4505     0.59000    1.000000    
     10 F     c      1.8199      4.0469      0.8018     0.59000    1.000000    
     11 F     c      4.0034      3.0723      2.3991     0.59000    1.000000    
     12 F     c     -0.1740      1.7219     -0.1838     0.59000    1.000000    
     13 F     s      0.9881 *    3.1933 *    2.8723 *  -1.59000    1.000000    
     14 F     s     -1.6768 *    2.7547 *    2.1599 *  -1.59000    1.000000    
     15 F     s     -0.5441 *   -0.1419 *    2.7397 *  -1.59000    1.000000    
     16 F     s      2.1350 *    0.8370 *    1.8402 *  -1.59000    1.000000    
     17 F     s      3.0445 *    1.7796 *    0.0373 *  -1.59000    1.000000    
     18 F     s      1.0325 *    3.0183 *   -2.4505 *  -1.59000    1.000000    
     19 F     s      1.8199 *    4.0469 *    0.8018 *  -1.59000    1.000000    
     20 F     s      4.0034 *    3.0723 *    2.3991 *  -1.59000    1.000000    
     21 F     s     -0.1740 *    1.7219 *   -0.1838 *  -1.59000    1.000000    
--------------------------------------------------------------------------------


  Brillouin zone sampling points :

--------------------------------------------------------------------------------
  Point number          x          y          z            Weight
--------------------------------------------------------------------------------
        1           0.000000   0.000000   0.000000     1.00000000
--------------------------------------------------------------------------------


********************************************************************************
*  General input information                                                   *
********************************************************************************

  Species output for all configurations : 

--------------------------------------------------------------------------------
  Species    Type    Atomic    Atomic    Charge       Radii (Angs)     Library
                     Number     Mass       (e)     Cova   Ionic  VDW   Symbol
--------------------------------------------------------------------------------
    Al       Core       13      26.98   3.000000   1.350  0.000  2.050          
    F        Core        9      19.00   0.590000   0.710  0.000  1.300          
    F        Shell       9       0.00  -1.590000   0.710  0.000  1.300          
--------------------------------------------------------------------------------


  Accuracy factor for short range sums = 12.000

  Time limit = Infinity

  Maximum range for interatomic potentials =    100000.000000 Angstroms

  General interatomic potentials :

--------------------------------------------------------------------------------
Atom  Types   Potential      Parameter       Value         Units   Cutoffs(Ang)
  1     2                                                            Min /  Max 
--------------------------------------------------------------------------------
Al   c F    s Buckingham    Buckingham A     3760.0008    eV        0.000 10.000
                            Buckingham rho  0.22200000    Ang       
                            Buckingham C     0.0000000    eV*Ang^6  
--------------------------------------------------------------------------------
F    s F    s Buck 4 range  Buck4 A          1127.7000    eV        0.000 12.000
                            Buck4 rho       0.27530000    Ang       
                            Buck4 C          15.830000    eV*Ang^6  
                            Buck4 minimum    2.7900000    Ang       
--------------------------------------------------------------------------------
F    c F    s Spring (c-s)  Spring k 2       20.770000    eV*Ang^-2 0.000  0.800
                            Spring k 4       0.0000000    eV*Ang^-4 
--------------------------------------------------------------------------------

********************************************************************************
*  Output for configuration   1                                                *
********************************************************************************


  Components of energy : 

--------------------------------------------------------------------------------
  Interatomic potentials     =           9.39309942 eV    
  Monopole - monopole (real) =        -170.16255337 eV    
--------------------------------------------------------------------------------
  Total lattice energy       =        -160.76945395 eV    
--------------------------------------------------------------------------------
  Total lattice energy       =          -15511.7947 kJ/mol
--------------------------------------------------------------------------------


  Number of variables =       27

  Maximum number of calculations  =          2000
  Maximum Hessian update interval =            10
  Maximum step size               =   1.000000000
  Maximum parameter tolerance     =   0.000001000
  Maximum function  tolerance     =   0.000010000
  Maximum gradient  tolerance     =   0.000000010
  Maximum gradient  component     =   0.010000000

  Symmetry not applied to optimisation

  Newton-Raphson optimiser to be used

  BFGS hessian update to be used

  Lower half triangular hessian to be used

  Minimiser to switch to RFO
  When gradient norm is less than     0.010000

  Shell only optimisation

  Start of cluster optimisation :

  Cycle:      0 Energy:      -160.769454  Gnorm:      1.567046  CPU:    0.005
  ** Hessian calculated **
  Cycle:      1 Energy:      -181.947926  Gnorm:      0.628697  CPU:    0.006
  ** Hessian calculated **
  Cycle:      2 Energy:      -183.689705  Gnorm:      0.041062  CPU:    0.009
  Cycle:      3 Energy:      -183.700777  Gnorm:      0.007024  CPU:    0.011
  ** Hessian has required structure
  Cycle:      4 Energy:      -183.701168  Gnorm:      0.001664  CPU:    0.013
  ** Hessian has required structure
  Cycle:      5 Energy:      -183.701186  Gnorm:      0.000673  CPU:    0.015
  ** Hessian has required structure
  Cycle:      6 Energy:      -183.701190  Gnorm:      0.000395  CPU:    0.017
  ** Hessian has required structure
  Cycle:      7 Energy:      -183.701191  Gnorm:      0.000211  CPU:    0.019
  ** Hessian has required structure
  Cycle:      8 Energy:      -183.701191  Gnorm:      0.000151  CPU:    0.021
  ** Hessian has required structure
  Cycle:      9 Energy:      -183.701192  Gnorm:      0.000110  CPU:    0.022
  ** Hessian has required structure
  Cycle:     10 Energy:      -183.701192  Gnorm:      0.000086  CPU:    0.024
  ** Hessian has required structure
  Cycle:     11 Energy:      -183.701192  Gnorm:      0.000076  CPU:    0.026
  ** Hessian has required structure

  XYZ File written as 004/4/sp_mod_80/sp_mod_80_eig.xyz



  **** Optimisation achieved ****


  Final energy =    -183.70119164 eV
  Final Gnorm  =       0.00000000

  Components of energy : 

--------------------------------------------------------------------------------
  Interatomic potentials     =          40.23374735 eV    
  Monopole - monopole (real) =        -223.93493899 eV    
--------------------------------------------------------------------------------
  Total lattice energy       =        -183.70119164 eV    
--------------------------------------------------------------------------------
  Total lattice energy       =          -17724.3569 kJ/mol
--------------------------------------------------------------------------------

  Final cartesian coordinates of atoms :

--------------------------------------------------------------------------------
   No.  Atomic        x           y          z          Radius
        Label       (Angs)      (Angs)     (Angs)       (Angs) 
--------------------------------------------------------------------------------
     1  Al    c    -0.123915    1.714027    2.567902    0.000000
     2  Al    c     2.472530    2.622958    1.661069    0.000000
     3  Al    c     1.467579    2.718862   -0.687423    0.000000
     4  F     c     0.988050    3.193281    2.872290    0.000000
     5  F     c    -1.676795    2.754666    2.159897    0.000000
     6  F     c    -0.544130   -0.141933    2.739710    0.000000
     7  F     c     2.135049    0.837018    1.840169    0.000000
     8  F     c     3.044545    1.779620    0.037308    0.000000
     9  F     c     1.032490    3.018256   -2.450458    0.000000
    10  F     c     1.819854    4.046855    0.801831    0.000000
    11  F     c     4.003437    3.072269    2.399070    0.000000
    12  F     c    -0.174045    1.721889   -0.183764    0.000000
    13  F     s     1.015082    2.912481    2.731830    0.000000
    14  F     s    -1.405324    2.584724    2.249126    0.000000
    15  F     s    -0.448627    0.196083    2.745380    0.000000
    16  F     s     2.001042    1.112493    1.888507    0.000000
    17  F     s     2.796038    2.015313    0.030314    0.000000
    18  F     s     1.156946    3.002987   -2.169463    0.000000
    19  F     s     1.812877    3.756616    0.666881    0.000000
    20  F     s     3.790499    3.033631    2.306215    0.000000
    21  F     s     0.153692    1.901120   -0.121638    0.000000
--------------------------------------------------------------------------------


  Final Cartesian derivatives :

--------------------------------------------------------------------------------
   No.  Atomic          x             y             z           Radius
        Label       (eV/Angs)     (eV/Angs)    (eV/Angs)      (eV/Angs)
--------------------------------------------------------------------------------
      1 Al    c       0.000000      0.000000      0.000000      0.000000
      2 Al    c       0.000000      0.000000      0.000000      0.000000
      3 Al    c       0.000000      0.000000      0.000000      0.000000
      4 F     c       0.000000      0.000000      0.000000      0.000000
      5 F     c       0.000000      0.000000      0.000000      0.000000
      6 F     c       0.000000      0.000000      0.000000      0.000000
      7 F     c       0.000000      0.000000      0.000000      0.000000
      8 F     c       0.000000      0.000000      0.000000      0.000000
      9 F     c       0.000000      0.000000      0.000000      0.000000
     10 F     c       0.000000      0.000000      0.000000      0.000000
     11 F     c       0.000000      0.000000      0.000000      0.000000
     12 F     c       0.000000      0.000000      0.000000      0.000000
     13 F     s      -0.000000      0.000000      0.000000      0.000000
     14 F     s      -0.000000      0.000000     -0.000000      0.000000
     15 F     s      -0.000000     -0.000000     -0.000000      0.000000
     16 F     s       0.000000      0.000000      0.000000      0.000000
     17 F     s      -0.000000     -0.000000     -0.000000      0.000000
     18 F     s      -0.000000      0.000000     -0.000000      0.000000
     19 F     s       0.000000      0.000000      0.000000      0.000000
     20 F     s      -0.000000     -0.000000     -0.000000      0.000000
     21 F     s      -0.000000     -0.000000     -0.000000      0.000000
--------------------------------------------------------------------------------
  Maximum abs         0.000000      0.000000      0.000000      0.000000
--------------------------------------------------------------------------------


  Born effective charge tensors : 

-------------------------------------------------------------------------------
  Atom             x           y             z
-------------------------------------------------------------------------------
    1 Al    x       1.5743     -0.0528     -0.3327
            y      -0.0461      0.7268      0.0467
            z      -0.3540      0.0472      1.8411
-------------------------------------------------------------------------------
    2 Al    x       0.8017     -0.1593     -0.3399
            y      -0.1576      0.5566      0.1736
            z      -0.3301      0.2358      1.1672
-------------------------------------------------------------------------------
    3 Al    x       1.0176     -0.0541     -0.0464
            y      -0.0244      1.2753      0.0936
            z      -0.0365      0.0835      0.8672
-------------------------------------------------------------------------------
    4 F     x      -0.3857      0.1485      0.1791
            y       0.0516     -0.2244     -0.0034
            z       0.1457     -0.0101     -0.4306
-------------------------------------------------------------------------------
    5 F     x      -0.2774     -0.2271      0.1103
            y      -0.1934     -0.3559     -0.0494
            z       0.1142     -0.0127     -0.5316
-------------------------------------------------------------------------------
    6 F     x      -0.5348      0.0791      0.0207
            y       0.1011     -0.0435     -0.0238
            z       0.0238     -0.0668     -0.5415
-------------------------------------------------------------------------------
    7 F     x      -0.7971      0.2475      0.0876
            y       0.2064     -0.1139     -0.0330
            z       0.0982     -0.0915     -0.5012
-------------------------------------------------------------------------------
    8 F     x      -0.2043     -0.0707      0.0705
            y      -0.0395     -0.2690     -0.0485
            z       0.0280     -0.0347     -0.3943
-------------------------------------------------------------------------------
    9 F     x      -0.4951     -0.0079      0.0909
            y      -0.0298     -0.5283     -0.1145
            z       0.1635     -0.0606     -0.0170
-------------------------------------------------------------------------------
   10 F     x      -0.2836     -0.0744      0.0522
            y      -0.0732     -0.1991     -0.0805
            z       0.0335     -0.1119     -0.3015
-------------------------------------------------------------------------------
   11 F     x      -0.0750      0.1164      0.2345
            y       0.1536     -0.4697      0.0556
            z       0.2417      0.0745     -0.4581
-------------------------------------------------------------------------------
   12 F     x      -0.3404      0.0548     -0.1267
            y       0.0513     -0.3550     -0.0162
            z      -0.1280     -0.0527     -0.6997
-------------------------------------------------------------------------------




  Moment of inertia tensor (10^-46 x kgm^2): 

-------------------------------------------------------------------------------
                x           y           z           Principal axis system
-------------------------------------------------------------------------------
       x        149.64      -19.57       13.15          123.712828
       y        -19.57      199.90       18.34          159.795612
       z         13.15       18.34      143.39          209.425486
-------------------------------------------------------------------------------
  Centre of mass (Ang) =     1.210215     2.285160     1.149702
-------------------------------------------------------------------------------


  Vibrational Frequency Calculation : 

--------------------------------------------------------------------------------

  Frequencies (cm-1) and Eigenvectors : 

  Frequency    -199.3022 -116.4724  -60.1480  -39.2130   -0.0000   -0.0000
  IR Intensity    0.0578    0.0263    0.0009    0.0004    0.0000    0.0000
     in X         0.0528    0.0007    0.0007    0.0000    0.0000    0.0000
     in Y         0.0013    0.0006    0.0002    0.0004    0.0000    0.0000
     in Z         0.0037    0.0250    0.0001    0.0000    0.0000    0.0000
  Raman Intsty    0.1216    0.0646    0.0015    0.0002    0.0000    0.0000

     1 x      -0.397379  0.045887  0.198827 -0.155280  0.011909  0.073592
     1 y       0.181891  0.036117  0.045270  0.150978  0.033703 -0.317429
     1 z       0.114729  0.537710 -0.026132 -0.018479 -0.325286 -0.030194
     2 x       0.132295 -0.048851  0.104799 -0.086869  0.011909  0.073592
     2 y      -0.210528 -0.014298  0.175208  0.110449  0.033703 -0.317429
     2 z      -0.069320 -0.120272 -0.037045  0.082366 -0.325286 -0.030194
     3 x      -0.028250 -0.032824 -0.250083  0.233933  0.011909  0.073592
     3 y       0.056942 -0.057784 -0.237080 -0.302186  0.033703 -0.317429
     3 z       0.012777 -0.216097  0.064520 -0.073369 -0.325286 -0.030194
     4 x       0.035171  0.093882  0.098356 -0.163330  0.009994  0.061757
     4 y      -0.192858  0.038343  0.097784  0.171505  0.028283 -0.266381
     4 z      -0.098045  0.095841  0.036411 -0.118123 -0.272974 -0.025338
     5 x      -0.255409  0.058834  0.145714 -0.141821  0.009994  0.061757
     5 y       0.155573 -0.013856  0.027142  0.100335  0.028283 -0.266381
     5 z       0.054227  0.233774  0.018387 -0.037533 -0.272974 -0.025338
     6 x      -0.013442  0.064660  0.151713 -0.106446  0.009994  0.061757
     6 y       0.074231  0.014340  0.039839  0.121075  0.028283 -0.266381
     6 z      -0.051259  0.331668 -0.015162 -0.021611 -0.272974 -0.025338
     7 x       0.654177  0.003941  0.149632 -0.005572  0.009994  0.061757
     7 y      -0.251055  0.002406  0.148054  0.092058  0.028283 -0.266381
     7 z       0.007067  0.060801  0.167472  0.178279 -0.272974 -0.025338
     8 x       0.007028 -0.065046 -0.120307  0.137737  0.009994  0.061757
     8 y       0.019937 -0.044759 -0.068221 -0.138677  0.028283 -0.266381
     8 z      -0.133749 -0.067714 -0.003562  0.212562 -0.272974 -0.025338
     9 x      -0.065201  0.203018 -0.299230  0.279179  0.009994  0.061757
     9 y       0.018382  0.152143 -0.272942 -0.419670  0.028283 -0.266381
     9 z       0.015020 -0.190743  0.060235 -0.110757 -0.272974 -0.025338
    10 x       0.002830 -0.195071 -0.245863  0.085136  0.009994  0.061757
    10 y      -0.073690 -0.093101 -0.062402 -0.045157  0.028283 -0.266381
    10 z       0.110374 -0.082939 -0.088976 -0.244590 -0.272974 -0.025338
    11 x      -0.016336 -0.048605  0.202454 -0.192603  0.009994  0.061757
    11 y       0.199765  0.077425  0.318038  0.287854  0.028283 -0.266381
    11 z      -0.029369 -0.131615 -0.380177  0.193863 -0.272974 -0.025338
    12 x       0.000730 -0.072966 -0.146273  0.117509  0.009994  0.061757
    12 y       0.015986 -0.090083 -0.207508 -0.120754  0.028283 -0.266381
    12 z       0.056398 -0.489001  0.203771 -0.040791 -0.272974 -0.025338


  Frequency       0.0000   44.1353   58.3444  108.9376  123.7459  134.1510
  IR Intensity    0.0000    0.0014    0.0011    0.0091    0.0065    0.0138
     in X         0.0000    0.0001    0.0001    0.0001    0.0008    0.0063
     in Y         0.0000    0.0014    0.0001    0.0029    0.0009    0.0062
     in Z         0.0000    0.0000    0.0009    0.0061    0.0048    0.0013
  Raman Intsty    0.0000    0.0057    0.0298    0.0036    0.0059    0.0014

     1 x       0.318640 -0.072048  0.067204  0.080145 -0.019578 -0.064163
     1 y       0.072053  0.270592 -0.206170  0.019848 -0.064467 -0.044516
     1 z       0.019131  0.071329  0.058696  0.118016 -0.007495 -0.008165
     2 x       0.318640  0.061279 -0.090249  0.005081 -0.021936 -0.044701
     2 y       0.072053 -0.151119  0.023906  0.038489  0.050191 -0.004481
     2 z       0.019131 -0.048991 -0.043642 -0.170815  0.080619  0.034106
     3 x       0.318640 -0.013254  0.007393 -0.066336 -0.012949 -0.036692
     3 y       0.072053 -0.042356  0.191527  0.033165  0.081197  0.191605
     3 z       0.019131 -0.003069 -0.048093 -0.076617  0.046935  0.042427
     4 x       0.267397  0.091428 -0.197260  0.090672  0.000215 -0.034168
     4 y       0.060466  0.140191  0.111917  0.024246 -0.095507 -0.086998
     4 z       0.016055 -0.091326 -0.325350 -0.086645  0.171155  0.103838
     5 x       0.267397 -0.006570 -0.096908 -0.025596 -0.064741 -0.018424
     5 y       0.060466  0.331105 -0.324762 -0.019787  0.040217 -0.166850
     5 z       0.016055  0.120006  0.232900  0.383830  0.431658 -0.467599
     6 x       0.267397 -0.182459  0.157962  0.193912 -0.039609  0.014360
     6 y       0.060466  0.257357 -0.206433 -0.000533 -0.112610 -0.004827
     6 z       0.016055  0.089760 -0.008189  0.182680 -0.552898  0.447772
     7 x       0.267397 -0.169397  0.134162 -0.017154 -0.029407  0.050308
     7 y       0.060466 -0.050341  0.007384  0.012216  0.032298 -0.026183
     7 z       0.016055  0.123084  0.350641 -0.363825 -0.030464 -0.009081
     8 x       0.267397 -0.143595 -0.223256  0.110514 -0.030590 -0.077455
     8 y       0.060466 -0.279236 -0.192180  0.209344  0.092159  0.094085
     8 z       0.016055 -0.029310  0.043342 -0.196591  0.047382 -0.011121
     9 x       0.267397 -0.017561 -0.050109 -0.238852  0.400565  0.294900
     9 y       0.060466 -0.127805  0.080731 -0.459889 -0.253614 -0.401040
     9 z       0.016055 -0.017929 -0.042151 -0.117035 -0.110673 -0.140432
    10 x       0.267397  0.285688  0.347501  0.062942 -0.168969 -0.029039
    10 y       0.060466 -0.028360  0.171365  0.091624  0.021942  0.088704
    10 z       0.016055 -0.070057 -0.152990 -0.108797  0.150273  0.148727
    11 x       0.267397  0.251988 -0.048806 -0.168303  0.131551  0.079035
    11 y       0.060466 -0.464472  0.112738 -0.098278 -0.019327  0.028148
    11 z       0.016055 -0.237874 -0.136471  0.281140 -0.196902 -0.225065
    12 x       0.267397 -0.080892 -0.004635 -0.030645 -0.134114 -0.106068
    12 y       0.060466  0.129665  0.228202  0.132020  0.214696  0.305024
    12 z       0.016055  0.090686  0.077639  0.179461 -0.052597  0.071491


  Frequency     152.4006  170.2683  196.5058  217.9800  234.1878  249.8448
  IR Intensity    0.0031    0.0114    0.0072    0.0089    0.0079    0.0523
     in X         0.0011    0.0019    0.0005    0.0016    0.0016    0.0488
     in Y         0.0009    0.0092    0.0066    0.0028    0.0015    0.0006
     in Z         0.0012    0.0003    0.0002    0.0045    0.0048    0.0029
  Raman Intsty    0.0473    0.0532    0.0004    0.0871    0.0524    0.2734

     1 x       0.192629  0.005251 -0.042216  0.139206 -0.013561 -0.070429
     1 y      -0.005106 -0.127161  0.108565 -0.151859 -0.177406 -0.053047
     1 z      -0.008725  0.037641 -0.154986 -0.114107  0.009494 -0.053889
     2 x       0.063640 -0.132458  0.165438  0.093279  0.042750 -0.353392
     2 y      -0.124383 -0.144892 -0.085152 -0.088258  0.315844  0.059199
     2 z      -0.074517 -0.013202 -0.001281 -0.086201  0.070250 -0.008383
     3 x      -0.194836  0.171145 -0.084635 -0.128777 -0.092837  0.005567
     3 y       0.084642  0.075006 -0.180065  0.096989 -0.210560 -0.058773
     3 z      -0.003554 -0.051261  0.166958  0.122054  0.045781 -0.057290
     4 x       0.232675  0.128541  0.038215 -0.094182 -0.041172 -0.115453
     4 y      -0.060523 -0.222442  0.018346  0.109064 -0.165043 -0.046662
     4 z       0.077254  0.228317 -0.107454 -0.551696  0.068078  0.046449
     5 x       0.350133  0.148625 -0.231285  0.223891  0.089561  0.215086
     5 y       0.196223  0.138404 -0.094396  0.118079 -0.007788  0.393584
     5 z      -0.175811  0.137689  0.109414  0.184930  0.044843  0.015649
     6 x      -0.015761 -0.339150  0.300263 -0.394201 -0.425496  0.360443
     6 y       0.016879 -0.041362  0.059409 -0.006753 -0.077866 -0.120477
     6 z      -0.192718  0.075340  0.139806  0.199713  0.120584  0.079364
     7 x       0.040115 -0.232632 -0.254363 -0.011003  0.365868  0.166204
     7 y      -0.095389 -0.125876 -0.022049 -0.071136  0.179104 -0.075309
     7 z       0.138208 -0.161035 -0.401796  0.045547 -0.303739 -0.106865
     8 x      -0.314214  0.076140 -0.067879  0.041215 -0.076406 -0.117335
     8 y      -0.249854 -0.066856 -0.259855  0.137351 -0.024009 -0.064819
     8 z      -0.040978 -0.009192 -0.006888 -0.123297  0.120351  0.099816
     9 x       0.070131 -0.150172  0.306573  0.291010  0.074477  0.240981
     9 y      -0.077400  0.002004  0.224011  0.010405  0.103043  0.169190
     9 z      -0.086919  0.010284  0.148453  0.015249  0.066107 -0.063101
    10 x       0.083828  0.246185  0.079457 -0.209493  0.197976 -0.160925
    10 y      -0.031894  0.029541 -0.119567 -0.026955  0.129397  0.072836
    10 z       0.018706 -0.056162  0.008343  0.177297 -0.303225 -0.163429
    11 x      -0.273182 -0.137726  0.034343 -0.010783  0.153797 -0.215170
    11 y       0.174097  0.461947  0.304069  0.079482 -0.093557 -0.202652
    11 z       0.421570 -0.335463 -0.007278  0.016831  0.089029 -0.136351
    12 x      -0.246931  0.207829 -0.251308  0.039965 -0.262759  0.124577
    12 y       0.181301  0.059450  0.076704 -0.178981  0.042663 -0.062984
    12 z      -0.055883  0.142185  0.104659  0.128676 -0.051609  0.370945


  Frequency     258.4084  273.6860  281.4352  300.0339  355.8887  376.0885
  IR Intensity    0.0125    0.0647    0.0866    0.0554    0.0025    0.0104
     in X         0.0001    0.0232    0.0088    0.0008    0.0001    0.0046
     in Y         0.0006    0.0081    0.0186    0.0021    0.0001    0.0010
     in Z         0.0117    0.0334    0.0592    0.0524    0.0022    0.0049
  Raman Intsty    0.0008    0.0254    0.0020    0.0110    0.7092    0.6490

     1 x      -0.079085  0.091144 -0.055732  0.088526  0.256070  0.058385
     1 y      -0.108682 -0.033996 -0.027492  0.062789  0.107235 -0.044275
     1 z      -0.109937 -0.198987  0.399809  0.432521 -0.265118 -0.089006
     2 x      -0.016073  0.004205 -0.065707 -0.045853 -0.283957  0.098698
     2 y      -0.019450 -0.011001 -0.113536  0.011985 -0.132952 -0.069296
     2 z       0.232808 -0.014847  0.011249  0.015316  0.149271  0.161028
     3 x       0.115955  0.268450 -0.095436  0.139530 -0.059961 -0.029891
     3 y       0.052233 -0.173350 -0.235096  0.040360 -0.012412 -0.006161
     3 z       0.081023 -0.174524  0.098688  0.021362  0.042120 -0.150971
     4 x      -0.226390  0.045397 -0.107986 -0.055640  0.163274 -0.516913
     4 y       0.000956 -0.022711  0.114221  0.320734  0.289013  0.361823
     4 z      -0.227667 -0.039162 -0.128898 -0.155018  0.088855  0.359909
     5 x       0.202003  0.016870  0.174581  0.099991 -0.005264  0.087153
     5 y       0.365559 -0.040824  0.055993 -0.197126 -0.220476  0.031412
     5 z       0.044508  0.098788 -0.233115 -0.183545  0.113262  0.065429
     6 x       0.229693 -0.106550  0.056840 -0.139034 -0.046509 -0.039921
     6 y      -0.149637  0.038732 -0.125150  0.048463  0.286877 -0.026591
     6 z       0.105104  0.132780 -0.211017 -0.234818  0.019824  0.040331
     7 x       0.001373  0.080209 -0.103357  0.111806  0.224223  0.098480
     7 y      -0.076161 -0.022986 -0.096896 -0.061298 -0.369953 -0.048523
     7 z      -0.159746  0.145095  0.080094 -0.449117 -0.066758 -0.083802
     8 x      -0.003204  0.239182  0.379654 -0.127375  0.008678 -0.102831
     8 y      -0.020070 -0.129459  0.330502 -0.298359  0.236114  0.024274
     8 z       0.240429  0.079864 -0.114742  0.172672  0.236513 -0.316796
     9 x      -0.269805 -0.156935  0.045932 -0.076050  0.026636 -0.013655
     9 y      -0.174881  0.144191  0.070923 -0.051817  0.002157  0.051866
     9 z       0.124263 -0.029788  0.137998  0.060479  0.039727 -0.232126
    10 x       0.052817 -0.415548  0.189753 -0.199237  0.127957  0.150632
    10 y      -0.024758 -0.262046 -0.101831  0.022612 -0.028252 -0.339275
    10 z       0.175659 -0.060978 -0.141232  0.162161 -0.037955  0.075110
    11 x       0.099594 -0.017676 -0.050739 -0.012653 -0.225266  0.147050
    11 y       0.073913 -0.032536  0.024840 -0.014582 -0.064690  0.082744
    11 z      -0.050996  0.038526 -0.112595 -0.042627 -0.166403  0.092714
    12 x      -0.110864 -0.118466 -0.326242  0.181070 -0.169046  0.038435
    12 y       0.095525  0.587830  0.175603  0.094174 -0.085354  0.004948
    12 z      -0.494524  0.097658  0.116074  0.110699 -0.139209  0.093312


  Frequency     406.4546  464.3511  502.7254  503.8424  533.1871  571.6406
  IR Intensity    0.0050    0.0291    0.0031    0.0190    0.0131    0.0901
     in X         0.0022    0.0002    0.0007    0.0048    0.0006    0.0101
     in Y         0.0005    0.0091    0.0003    0.0021    0.0118    0.0295
     in Z         0.0023    0.0197    0.0021    0.0121    0.0007    0.0504
  Raman Intsty    0.0229    0.9325    1.7449    0.7508    0.5709    0.5077

     1 x       0.047330  0.021594  0.097128  0.026494 -0.003299 -0.039474
     1 y      -0.014504  0.008085  0.069447  0.009702  0.002616 -0.008588
     1 z      -0.107857 -0.008252  0.079468  0.015923  0.002829  0.036861
     2 x      -0.081492 -0.000275 -0.055930  0.250371 -0.014701 -0.260950
     2 y       0.017182  0.018907  0.027844 -0.129318  0.049396  0.125018
     2 z      -0.233240 -0.090895  0.062866 -0.297392  0.150808  0.477255
     3 x       0.091087 -0.011977  0.032366 -0.150913  0.158949  0.057705
     3 y      -0.056946 -0.268588 -0.069700  0.267608 -0.370668  0.333173
     3 z       0.190527 -0.219058 -0.002928  0.061414 -0.098337  0.069383
     4 x      -0.175990 -0.045382 -0.383255 -0.335707  0.021142  0.144299
     4 y       0.135859 -0.051067 -0.514440 -0.027549  0.026392 -0.057022
     4 z       0.223839 -0.032778 -0.115498  0.182708 -0.016968 -0.116606
     5 x       0.031542  0.024430  0.254633  0.045331 -0.001824  0.029657
     5 y       0.003195 -0.003265 -0.193348 -0.005548 -0.002626 -0.043930
     5 z       0.046158  0.010889  0.060019  0.015791 -0.003530 -0.005218
     6 x      -0.018787  0.004938  0.107222  0.018704  0.001086  0.026807
     6 y       0.019201  0.042131  0.609087  0.093136 -0.003993  0.087083
     6 z       0.028739  0.002015 -0.080571 -0.007726 -0.001064 -0.022149
     7 x       0.135977  0.016815 -0.023578 -0.072734 -0.119681 -0.004825
     7 y       0.078823  0.082261  0.064878 -0.323296 -0.487891 -0.077373
     7 z       0.053543  0.000687  0.005833  0.007899  0.065620 -0.012741
     8 x       0.256243  0.211481 -0.102408  0.276086 -0.260062  0.305057
     8 y      -0.337724 -0.090784  0.052557 -0.120435  0.132463 -0.319419
     8 z      -0.419683  0.192139 -0.088557  0.365042 -0.243322 -0.296708
     9 x       0.056980 -0.088317  0.010831 -0.014822 -0.005922 -0.043569
     9 y      -0.086652  0.126658 -0.012929  0.000382  0.025523  0.017051
     9 z       0.376252 -0.452199  0.076059 -0.094764  0.031648 -0.241914
    10 x      -0.038278  0.170848  0.034117 -0.160473 -0.141019 -0.080730
    10 y       0.320605  0.295394 -0.065637  0.238092  0.506799  0.018236
    10 z       0.145568  0.567923  0.018606 -0.311593 -0.032540 -0.139054
    11 x      -0.241488 -0.053584 -0.043802  0.176645  0.279847  0.164739
    11 y      -0.077203  0.006909 -0.014113  0.041067  0.104204  0.037235
    11 z      -0.094506 -0.034788 -0.027682  0.080571  0.145936  0.072219
    12 x      -0.074032 -0.252362  0.058578 -0.083116  0.058472 -0.252203
    12 y       0.008562 -0.120342  0.041067 -0.072201  0.078851 -0.197626
    12 z      -0.180486  0.125295 -0.014331  0.024299 -0.011678  0.066851


  Frequency     644.7894  682.6628  754.8485  779.6225  814.5631  889.6552
  IR Intensity    0.0476    0.0369    0.0292    0.0234    0.0051    0.0034
     in X         0.0388    0.0360    0.0120    0.0037    0.0003    0.0019
     in Y         0.0018    0.0001    0.0097    0.0174    0.0027    0.0001
     in Z         0.0070    0.0008    0.0074    0.0023    0.0022    0.0014
  Raman Intsty    0.0024    0.0191    0.0001    0.0017    0.1182    0.7651

     1 x       0.015706  0.624880  0.104724 -0.069438 -0.257491 -0.058947
     1 y      -0.029698 -0.139406 -0.041250 -0.510092 -0.547690 -0.086688
     1 z      -0.025164  0.158820  0.018267  0.024533  0.046742  0.007262
     2 x      -0.094070 -0.017310  0.279187 -0.308096  0.310824  0.373156
     2 y       0.082197  0.126584 -0.500548 -0.381506  0.363555 -0.003488
     2 z       0.135193  0.020246  0.318042 -0.106349 -0.060429  0.403497
     3 x      -0.616686  0.024466  0.123659 -0.075062  0.135277 -0.261566
     3 y      -0.212344  0.030445 -0.101081 -0.009145 -0.008126  0.083702
     3 z       0.214258 -0.023638  0.302174 -0.179645  0.221935 -0.616344
     4 x       0.045602 -0.134119 -0.041905  0.112462  0.122241  0.016820
     4 y      -0.004069 -0.164914  0.018701  0.158025  0.167435  0.028779
     4 z      -0.028199 -0.039880  0.001438  0.027224  0.037852 -0.011849
     5 x      -0.034364 -0.566822 -0.067808 -0.104528 -0.028060  0.001162
     5 y       0.015615  0.355195  0.042159  0.104266  0.060082  0.005411
     5 z       0.001144 -0.147188 -0.018756 -0.027295 -0.014960  0.000240
     6 x       0.010427 -0.027603 -0.004583  0.078142  0.077434  0.009943
     6 y       0.036976  0.022716  0.015863  0.346648  0.341350  0.042314
     6 z      -0.001004 -0.015962 -0.003151 -0.031984 -0.030769 -0.002323
     7 x       0.018865  0.023172  0.052730  0.068085 -0.065015 -0.026267
     7 y      -0.067768 -0.123679  0.317189  0.267036 -0.205251 -0.009279
     7 z      -0.002410 -0.008949 -0.041787 -0.025441  0.033536 -0.009789
     8 x       0.236341  0.007130 -0.092008  0.028686 -0.058015  0.110593
     8 y      -0.148142 -0.013440  0.074426  0.016783  0.014473 -0.071480
     8 z      -0.019024 -0.030246 -0.043869  0.049054 -0.026353  0.023333
     9 x      -0.010037  0.001238 -0.073543  0.036429 -0.042137  0.080281
     9 y       0.041982 -0.009531  0.054195 -0.021098  0.025650 -0.055797
     9 z      -0.195002  0.031889 -0.291088  0.143940 -0.158712  0.318623
    10 x       0.042252  0.026125 -0.147671 -0.017602  0.018546 -0.032168
    10 y       0.021498 -0.065369  0.273858  0.078531 -0.096426  0.138537
    10 z       0.023805  0.033566 -0.218420  0.001717  0.016439 -0.011683
    11 x       0.019647 -0.044603 -0.233942  0.330837 -0.228748 -0.239352
    11 y       0.005342 -0.007997 -0.054659  0.108156 -0.073271 -0.066633
    11 z       0.001480 -0.022557 -0.116743  0.160387 -0.107469 -0.115361
    12 x       0.499516 -0.037674  0.003893  0.006820 -0.021001  0.016257
    12 y       0.289042 -0.013982  0.024348  0.015011 -0.004935 -0.004137
    12 z      -0.167222  0.014114 -0.028465  0.013965  0.002282  0.053792




--------------------------------------------------------------------------------
  Vibrational properties (for cluster):  Temperature  =       0.000 K
--------------------------------------------------------------------------------
  Zero point energy            =        0.687149 eV
--------------------------------------------------------------------------------

  Phonon density of states : 

--------------------------------------------------------------------------------
 Frequency (cm-1) Density of States                                             
--------------------------------------------------------------------------------
    0.00000 |******************************                                0.033
   13.90086 |                                                              0.000
   27.80173 |                                                              0.000
   41.70259 |******************************                                0.033
   55.60346 |******************************                                0.033
   69.50432 |                                                              0.000
   83.40519 |                                                              0.000
   97.30605 |******************************                                0.033
  111.20691 |******************************                                0.033
  125.10778 |******************************                                0.033
  139.00864 |******************************                                0.033
  152.90951 |                                                              0.000
  166.81037 |******************************                                0.033
  180.71124 |                                                              0.000
  194.61210 |******************************                                0.033
  208.51296 |******************************                                0.033
  222.41383 |******************************                                0.033
  236.31469 |******************************                                0.033
  250.21556 |******************************                                0.033
  264.11642 |******************************                                0.033
  278.01728 |******************************                                0.033
  291.91815 |******************************                                0.033
  305.81901 |                                                              0.000
  319.71988 |                                                              0.000
  333.62074 |                                                              0.000
  347.52161 |******************************                                0.033
  361.42247 |                                                              0.000
  375.32333 |******************************                                0.033
  389.22420 |                                                              0.000
  403.12506 |******************************                                0.033
  417.02593 |                                                              0.000
  430.92679 |                                                              0.000
  444.82766 |                                                              0.000
  458.72852 |******************************                                0.033
  472.62938 |                                                              0.000
  486.53025 |                                                              0.000
  500.43111 |************************************************************  0.067
  514.33198 |                                                              0.000
  528.23284 |******************************                                0.033
  542.13371 |                                                              0.000
  556.03457 |                                                              0.000
  569.93543 |******************************                                0.033
  583.83630 |                                                              0.000
  597.73716 |                                                              0.000
  611.63803 |                                                              0.000
  625.53889 |                                                              0.000
  639.43975 |******************************                                0.033
  653.34062 |                                                              0.000
  667.24148 |                                                              0.000
  681.14235 |******************************                                0.033
  695.04321 |                                                              0.000
  708.94408 |                                                              0.000
  722.84494 |                                                              0.000
  736.74580 |                                                              0.000
  750.64667 |******************************                                0.033
  764.54753 |                                                              0.000
  778.44840 |******************************                                0.033
  792.34926 |                                                              0.000
  806.25013 |******************************                                0.033
  820.15099 |                                                              0.000
  834.05185 |                                                              0.000
  847.95272 |                                                              0.000
  861.85358 |                                                              0.000
  875.75445 |******************************                                0.033
--------------------------------------------------------------------------------



  Time to end of optimisation =       0.0361 seconds


  Peak dynamic memory used =       0.65 MB 


  Timing analysis for GULP :

--------------------------------------------------------------------------------
  Task / Subroutine                                          Time (Seconds)
--------------------------------------------------------------------------------
  Calculation of real space energy and derivatives                0.0021
  Calculation of phonons                                          0.0017
  Calculation and manipulation of Hessian matrix                  0.0012
--------------------------------------------------------------------------------
  Total CPU time                                                  0.0361
--------------------------------------------------------------------------------


  Job Finished at 14:39.55 25th May        2022                               

