12
Properties=species:S:1:pos:R:3:forces:R:3 energy=-186.51507750 pbc="F F F"
Al    -0.532936338    0.54553626    -1.769397836    0.604255    -0.478412    0.161187
Al    -0.632091814    0.864796353    1.3276458359999999    -0.006481    0.161618    -0.001503
Al    -3.2819643189999996    0.3990918889999999    -1.778512942    -0.581308    0.223369    -0.075549
F    -3.760871561    0.209988808    -3.525086608    -0.0172    -0.04101    -0.119842
F    -1.736410157    -0.834901201    -1.692045445    0.248656    -0.246019    0.00933
F    -1.945669787    1.867321203    -1.933751983    -0.355504    0.487762    -0.060645
F    -2.232845325    0.697116539    0.510557324    -0.19244    -0.026135    -0.05942
F    0.47788072699999995    0.8388070430000001    -0.263983611    0.145355    0.021858    -0.069564
F    -0.23356137500000002    2.5941607970000002    1.911094547    0.029553    0.257039    0.091624
F    0.01275631499999999    -0.586616858    2.1956044450000003    0.115209    -0.356726    0.187978
F    -4.537964592    0.42433387    -0.503183465    -0.178595    -0.038173    0.157348
F    0.642744727    0.584303537    -3.200540029    0.188497    0.034829    -0.220944
