------------------------------------------------------------
          Invoking FHI-aims ...

          When using FHI-aims, please cite the following reference:

            Volker Blum, Ralf Gehrke, Felix Hanke, Paula Havu,
            Ville Havu, Xinguo Ren, Karsten Reuter, and Matthias Scheffler,
            'Ab Initio Molecular Simulations with Numeric Atom-Centered Orbitals',
            Computer Physics Communications 180, 2175-2196 (2009)

          In addition, many other developments in FHI-aims are likely important for
          your particular application. A partial list of references is given at the end of
          this file. Thank you for giving credit to the authors of these developments.

          For any questions about FHI-aims, please visit our slack channel at

            https://fhi-aims.slack.com

          and our main development and support site at

            https://aims-git.rz-berlin.mpg.de .

          The latter site, in particular, has a wiki to collect information, as well
          as an issue tracker to log discussions, suggest improvements, and report issues
          or bugs. https://aims-git.rz-berlin.mpg.de is also the main development site
          of the project and all new and updated code versions can be obtained there.
          Please send an email to aims-coordinators@fhi-berlin.mpg.de and we will add
          you to these sites. They are for you and everyone is welcome there.

------------------------------------------------------------



  Date     :  20220516, Time     :  172431.507
  Time zero on CPU 1             :   0.102879000000000E+00  s.
  Internal wall clock time zero  :           421953871.507  s.

  FHI-aims created a unique identifier for this run for later identification
  aims_uuid : EEBEBB41-E0AD-452C-A041-3F949C128180

  Build configuration of the current instance of FHI-aims
  -------------------------------------------------------
  FHI-aims version      : 210914
  Commit number         : GITDIR-NOTFOUND
  CMake host system     : Linux-3.10.0-693.17.1.el7.x86_64
  CMake version         : 3.21.1
  Fortran compiler      : /shared/ucl/apps/intel/2018.Update3/impi/2018.3.222/intel64/bin/mpiifort (Intel) version 18.0.3.20180410
  Fortran compiler flags: -O3 -ip -fp-model precise
  C compiler            : /shared/ucl/apps/intel/2018.Update3/compilers_and_libraries_2018.3.222/linux/bin/intel64/icc (Intel) version 18.0.3.20180410
  C compiler flags      : -O3 -ip -fp-model precise -std=gnu99
  ELPA2 kernel          : AVX2
  Using MPI
  Using ScaLAPACK
  Using LibXC
  Using i-PI
  Using RLSY
  Linking against: /shared/ucl/apps/intel/2019.Update5/compilers_and_libraries_2019.5.281/linux/mkl/lib/intel64/libmkl_intel_lp64.so
                   /shared/ucl/apps/intel/2019.Update5/compilers_and_libraries_2019.5.281/linux/mkl/lib/intel64/libmkl_sequential.so
                   /shared/ucl/apps/intel/2019.Update5/compilers_and_libraries_2019.5.281/linux/mkl/lib/intel64/libmkl_core.so
                   /shared/ucl/apps/intel/2019.Update5/compilers_and_libraries_2019.5.281/linux/mkl/lib/intel64/libmkl_blacs_intelmpi_lp64.so
                   /shared/ucl/apps/intel/2019.Update5/compilers_and_libraries_2019.5.281/linux/mkl/lib/intel64/libmkl_scalapack_lp64.so

  Using       24 parallel tasks.
  Task        0 on host node-k98a-015 reporting.
  Task        1 on host node-k98a-015 reporting.
  Task        2 on host node-k98a-015 reporting.
  Task        3 on host node-k98a-015 reporting.
  Task        4 on host node-k98a-015 reporting.
  Task        5 on host node-k98a-015 reporting.
  Task        6 on host node-k98a-015 reporting.
  Task        7 on host node-k98a-015 reporting.
  Task        8 on host node-k98a-015 reporting.
  Task        9 on host node-k98a-015 reporting.
  Task       10 on host node-k98a-015 reporting.
  Task       11 on host node-k98a-015 reporting.
  Task       12 on host node-k98a-015 reporting.
  Task       13 on host node-k98a-015 reporting.
  Task       14 on host node-k98a-015 reporting.
  Task       15 on host node-k98a-015 reporting.
  Task       16 on host node-k98a-015 reporting.
  Task       17 on host node-k98a-015 reporting.
  Task       18 on host node-k98a-015 reporting.
  Task       19 on host node-k98a-015 reporting.
  Task       20 on host node-k98a-015 reporting.
  Task       21 on host node-k98a-015 reporting.
  Task       22 on host node-k98a-015 reporting.
  Task       23 on host node-k98a-015 reporting.

  Performing system and environment tests:
  | Environment variable OMP_NUM_THREADS correctly set to 1.
  | Checking for ScaLAPACK...
  | Testing pdtran()...
  | All pdtran() tests passed.

  Obtaining array dimensions for all initial allocations:
  
  -----------------------------------------------------------------------
  Parsing control.in (first pass over file, find array dimensions only).
  The contents of control.in will be repeated verbatim below
  unless switched off by setting 'verbatim_writeout .false.' .
  in the first line of control.in .
  -----------------------------------------------------------------------
  
  #########################################################################################  Physical model
  #########################################################################################
  xc                 pbesol
  spin               none
  relativistic       atomic_zora scalar
  charge             0.0
  #  SCF convergence
  occupation_type    gaussian 0.01
  mixer              pulay
  n_max_pulay        10
  charge_mix_param   0.5
  sc_accuracy_rho    1E-5
  sc_accuracy_eev    1E-3
  sc_accuracy_etot   1E-6
  sc_accuracy_forces 1E-4
  sc_iter_limit      1500
  #  Relaxation
  #relax_geometry   bfgs 1.e-3
  
  ################################################################################
  #
  #  FHI-aims code project
  #  VB, Fritz-Haber Institut, 2009
  #
  #  Suggested "light" defaults for Al atom (to be pasted into control.in file)
  #  Be sure to double-check any results obtained with these settings for post-processing,
  #  e.g., with the "tight" defaults and larger basis sets.
  #
  ################################################################################
    species        Al
  #     global species definitions
      nucleus             13
      mass                26.9815386
  #
      l_hartree           4
  #
      cut_pot             3.5          1.5  1.0
      basis_dep_cutoff    1e-4
  #
      radial_base         41 5.0
      radial_multiplier   1
      angular_grids       specified
        division   0.6594  110
        division   0.8170  194
        division   0.9059  302
  #      division   1.0363  434
  #      division   1.1443  590
  #      division   1.2621  770
  #      division   2.8177  974
  #      outer_grid   974
        outer_grid   302
  ################################################################################
  #
  #  Definition of "minimal" basis
  #
  ################################################################################
  #     valence basis states
      valence      3  s   2.
      valence      3  p   1.
  #     ion occupancy
      ion_occ      3  s   1.
      ion_occ      2  p   6.
  ################################################################################
  #
  #  Suggested additional basis functions. For production calculations,
  #  uncomment them one after another (the most important basis functions are
  #  listed first).
  #
  #  Constructed for dimers: 2.0 A, 2.5 A, 3.0 A, 3.75 A, 4.5 A
  #
  ################################################################################
  #  "First tier" - improvements: -199.47 meV to -10.63 meV
       ionic 3 d auto
       ionic 3 p auto
  #     hydro 4 f 4.7
       ionic 3 s auto
  #  "Second tier" - improvements: -5.35 meV to -1.57 meV
  #     hydro 5 g 7
  #     hydro 3 d 6
  #     hydro 2 s 11.6
  #     hydro 2 p 0.9
  #  "Third tier" - improvements: -0.63 meV to -0.20 meV
  #     hydro 5 f 7.6
  #     hydro 4 p 7.2
  #     hydro 4 s 3.7
  #     hydro 4 d 7.6
  #  "Fourth tier" - improvements: -0.17 meV to -0.08 meV
  #     hydro 4 d 13.6
  #     hydro 5 g 11.2
  #     hydro 4 d 0.9
  #     hydro 1 s 0.4
  #     hydro 4 p 0.1
  #     hydro 5 f 9.8
  #  Further basis functions that fell out of the optimization - noise level...
  #     hydro 4 p 5
  
  ################################################################################
  #
  #  FHI-aims code project
  #  VB, Fritz-Haber Institut, 2009
  #
  #  Suggested "light" defaults for F atom (to be pasted into control.in file)
  #  Be sure to double-check any results obtained with these settings for post-processing,
  #  e.g., with the "tight" defaults and larger basis sets.
  #
  ################################################################################
    species        F
  #     global species definitions
      nucleus             9
      mass                18.9984032
  #
      l_hartree           4
  #
      cut_pot             3.5  1.5  1.0
      basis_dep_cutoff    1e-4
  #
      radial_base         37 5.0
      radial_multiplier   1
      angular_grids specified
        division   0.4014  110
        division   0.5291  194
        division   0.6019  302
  #      division   0.6814  434
  #      division   0.7989  590
  #      division   0.8965  770
  #      division   1.3427  974
  #      outer_grid   974
        outer_grid   302
  ################################################################################
  #
  #  Definition of "minimal" basis
  #
  ################################################################################
  #     valence basis states
      valence      2  s   2.
      valence      2  p   5.
  #     ion occupancy
      ion_occ      2  s   1.
      ion_occ      2  p   4.
  ################################################################################
  #
  #  Suggested additional basis functions. For production calculations,
  #  uncomment them one after another (the most important basis functions are
  #  listed first).
  #
  #  Constructed for dimers: 1.2 A, 1.418 A, 1.75 A, 2.25 A, 3.25 A
  #
  ################################################################################
  #  "First tier" - improvements: -149.44 meV to -45.88 meV
       hydro 2 p 1.7
       hydro 3 d 7.4
       hydro 3 s 6.8
  #  "Second tier" - improvements: -12.96 meV to -1.56 meV
  #     hydro 4 f 11.2
  #     ionic 2 p auto
  #     hydro 1 s 0.75
  #     hydro 4 d 8.8
  #     hydro 5 g 16.8
  #  "Third tier" - improvements: -0.58 meV to -0.05 meV
  #     hydro 3 p 6.2
  #     hydro 3 s 3.2
  #     hydro 4 f 9.6
  #     hydro 3 s 19.6
  #     hydro 4 d 8.6
  #     hydro 5 g 14.4
  # Further basis functions: -0.05 meV and below
  #     hydro 3 p 4.2
  
  -----------------------------------------------------------------------
  Completed first pass over input file control.in .
  -----------------------------------------------------------------------
  
  
  -----------------------------------------------------------------------
  Parsing geometry.in (first pass over file, find array dimensions only).
  The contents of geometry.in will be repeated verbatim below
  unless switched off by setting 'verbatim_writeout .false.' .
  in the first line of geometry.in .
  -----------------------------------------------------------------------
  
  atom 0.0000  0.0000  0.0000 Al
  
  -----------------------------------------------------------------------
  Completed first pass over input file geometry.in .
  -----------------------------------------------------------------------
  

  Basic array size parameters:
  | Number of species                 :        2
  | Number of atoms                   :        1
  | Max. basis fn. angular momentum   :        2
  | Max. atomic/ionic basis occupied n:        3
  | Max. number of basis fn. types    :        3
  | Max. radial fns per species/type  :        5
  | Max. logarithmic grid size        :     1340
  | Max. radial integration grid size :       41
  | Max. angular integration grid size:      302
  | Max. angular grid division number :        8
  | Radial grid for Hartree potential :     1340
  | Number of spin channels           :        1

------------------------------------------------------------
          Reading file control.in.
------------------------------------------------------------
  XC: Using PBEsol gradient-corrected functionals.
  Spin treatment: No spin polarisation.
  Scalar relativistic treatment of kinetic energy: on-site free-atom approximation to ZORA.
  Charge =   0.000000E+00: Neutral system requested explicitly.
  Occupation type: Gaussian broadening, width =   0.100000E-01 eV.
  Using pulay charge density mixing.
  Pulay mixing - number of memorized iterations:   10
  Charge density mixing - mixing parameter:     0.5000
  Convergence accuracy of self-consistent charge density:  0.1000E-04
  Convergence accuracy of sum of eigenvalues:  0.1000E-02
  Convergence accuracy of total energy:  0.1000E-05
  Convergence accuracy of forces:  0.1000E-03
  Maximum number of s.-c. iterations  :  1500
 
  Reading configuration options for species Al                  .
  | Found nuclear charge :  13.0000
  | Found atomic mass :    26.9815386000000      amu
  | Found l_max for Hartree potential  :   4
  | Found cutoff potl. onset [A], width [A], scale factor :    3.50000    1.50000    1.00000
  | Threshold for basis-dependent cutoff potential is   0.100000E-03
  | Found data for basic radial integration grid :    41 points, outermost radius =    5.000 A
  | Found multiplier for basic radial grid :   1
  | Found angular grid specification: user-specified.
  | Specified grid contains     4 separate shells.
  | Check grid settings after all constraints further below.
  | Found free-atom valence shell :  3 s   2.000
  | Found free-atom valence shell :  3 p   1.000
  | Found free-ion valence shell :  3 s   1.000
  | Found free-ion valence shell :  2 p   6.000
  | Found ionic basis function :  3 d , default cutoff radius.
  | Found ionic basis function :  3 p , default cutoff radius.
  | Found ionic basis function :  3 s , default cutoff radius.
  Species Al                  : Missing cutoff potential type.
  Defaulting to exp(1/x)/(1-x)^2 type cutoff potential.
  Species Al: No 'logarithmic' tag. Using default grid for free atom:
  | Default logarithmic grid data [bohr] : 0.1000E-03 0.1000E+03 0.1012E+01
  | Will include ionic basis functions of  2.0-fold positive Al                   ion.
  Species Al: On-site basis accuracy parameter (for Gram-Schmidt orthonormalisation) not specified.
  Using default value basis_acc =  0.1000000E-03.
  Species Al                  : Using default innermost maximum threshold i_radial=  2 for radial functions.
  Species Al                  : Default cutoff onset for free atom density etc. : 0.35000000E+01 AA.
  Species Al                  : Basic radial grid will be enhanced according to radial_multiplier =   1, to contain    41 grid points.
 
  Reading configuration options for species F                   .
  | Found nuclear charge :   9.0000
  | Found atomic mass :    18.9984032000000      amu
  | Found l_max for Hartree potential  :   4
  | Found cutoff potl. onset [A], width [A], scale factor :    3.50000    1.50000    1.00000
  | Threshold for basis-dependent cutoff potential is   0.100000E-03
  | Found data for basic radial integration grid :    37 points, outermost radius =    5.000 A
  | Found multiplier for basic radial grid :   1
  | Found angular grid specification: user-specified.
  | Specified grid contains     4 separate shells.
  | Check grid settings after all constraints further below.
  | Found free-atom valence shell :  2 s   2.000
  | Found free-atom valence shell :  2 p   5.000
  | Found free-ion valence shell :  2 s   1.000
  | Found free-ion valence shell :  2 p   4.000
  | Found hydrogenic basis function :  2 p   1.700
  | Found hydrogenic basis function :  3 d   7.400
  | Found hydrogenic basis function :  3 s   6.800
  Species F                   : Missing cutoff potential type.
  Defaulting to exp(1/x)/(1-x)^2 type cutoff potential.
  Species F : No 'logarithmic' tag. Using default grid for free atom:
  | Default logarithmic grid data [bohr] : 0.1000E-03 0.1000E+03 0.1012E+01
  Species F : On-site basis accuracy parameter (for Gram-Schmidt orthonormalisation) not specified.
  Using default value basis_acc =  0.1000000E-03.
  Species F                   : Using default innermost maximum threshold i_radial=  2 for radial functions.
  Species F                   : Default cutoff onset for free atom density etc. : 0.35000000E+01 AA.
  Species F                   : Basic radial grid will be enhanced according to radial_multiplier =   1, to contain    37 grid points.
 
  Finished reading input file 'control.in'.
 
------------------------------------------------------------


------------------------------------------------------------
          Reading geometry description geometry.in.
------------------------------------------------------------
  | Isolated single atom, no quantum-mechanical atoms close by.
  Input structure read successfully.
  The structure contains        1 atoms,  and a total of         13.000 electrons.

  Input geometry:
  | No unit cell requested.
  | Atomic structure:
  |       Atom                x [A]            y [A]            z [A]
  |    1: Species Al            0.00000000        0.00000000        0.00000000

 
  Finished reading input file 'control.in'.
 

------------------------------------------------------------
          Reading geometry description geometry.in.
------------------------------------------------------------
 
  Consistency checks for stacksize environment parameter are next.
 
  | Maximum stacksize for task 0: unlimited
  | Maximum stacksize for task 1: unlimited
  | Maximum stacksize for task 2: unlimited
  | Maximum stacksize for task 3: unlimited
  | Maximum stacksize for task 4: unlimited
  | Maximum stacksize for task 5: unlimited
  | Maximum stacksize for task 6: unlimited
  | Maximum stacksize for task 7: unlimited
  | Maximum stacksize for task 8: unlimited
  | Maximum stacksize for task 9: unlimited
  | Maximum stacksize for task 10: unlimited
  | Maximum stacksize for task 11: unlimited
  | Maximum stacksize for task 12: unlimited
  | Maximum stacksize for task 13: unlimited
  | Maximum stacksize for task 14: unlimited
  | Maximum stacksize for task 15: unlimited
  | Maximum stacksize for task 16: unlimited
  | Maximum stacksize for task 17: unlimited
  | Maximum stacksize for task 18: unlimited
  | Maximum stacksize for task 19: unlimited
  | Maximum stacksize for task 20: unlimited
  | Maximum stacksize for task 21: unlimited
  | Maximum stacksize for task 22: unlimited
  | Maximum stacksize for task 23: unlimited
  | Current stacksize for task 0: unlimited
  | Current stacksize for task 1: unlimited
  | Current stacksize for task 2: unlimited
  | Current stacksize for task 3: unlimited
  | Current stacksize for task 4: unlimited
  | Current stacksize for task 5: unlimited
  | Current stacksize for task 6: unlimited
  | Current stacksize for task 7: unlimited
  | Current stacksize for task 8: unlimited
  | Current stacksize for task 9: unlimited
  | Current stacksize for task 10: unlimited
  | Current stacksize for task 11: unlimited
  | Current stacksize for task 12: unlimited
  | Current stacksize for task 13: unlimited
  | Current stacksize for task 14: unlimited
  | Current stacksize for task 15: unlimited
  | Current stacksize for task 16: unlimited
  | Current stacksize for task 17: unlimited
  | Current stacksize for task 18: unlimited
  | Current stacksize for task 19: unlimited
  | Current stacksize for task 20: unlimited
  | Current stacksize for task 21: unlimited
  | Current stacksize for task 22: unlimited
  | Current stacksize for task 23: unlimited
 
  Consistency checks for the contents of control.in are next.
 
  MPI_IN_PLACE appears to work with this MPI implementation.
  | Keeping use_mpi_in_place .true. (see manual).
  Target number of points in a grid batch is not set. Defaulting to  100
  Method for grid partitioning is not set. Defaulting to parallel hash+maxmin partitioning.
  Batch size limit is not set. Defaulting to    200
  By default, will store active basis functions for each batch.
  If in need of memory, prune_basis_once .false. can be used to disable this option.
  communication_type for Hartree potential was not specified.
  Defaulting to calc_hartree .
  Pulay mixer: Number of initial linear mixing iterations not set.
  Defaulting to    0 iterations.
  Work space size for distributed Hartree potential not set.
  Defaulting to   0.200000E+03 MB.
  Algorithm-dependent basis array size parameters:
  | n_max_pulay                         :       10
  Presetting      1001 iterations before the initial mixing cycle
  is restarted anyway using the sc_init_iter criterion / keyword.
  Presetting a factor      1.000 between actual scf density residual
  and density convergence criterion sc_accuracy_rho below which sc_init_iter
  takes no effect.
  Geometry relaxation not requested: no relaxation will be performed.
  Forces evaluation will include force correction term due to incomplete self-consistency (default).
  Handling of forces: Unphysical translation and rotation will be removed from forces.
  No accuracy limit for integral partition fn. given. Defaulting to  0.1000E-14.
  No threshold value for u(r) in integrations given. Defaulting to  0.1000E-05.
  No accuracy for occupation numbers given. Defaulting to  0.1000E-12.
  No threshold value for occupation numbers given. Defaulting to  0.0000E+00.
  No accuracy for fermi level given. Defaulting to  0.1000E-19.
  Maximum # of iterations to find E_F not set. Defaulting to  200.
  Preferred method for the eigenvalue solver ('KS_method') not specified in 'control.in'.
  Calling BLACS routine to test compilation state
  Since ScaLAPACK support is enabled, defaulting to ELPA (via ELSI).
  Will not use alltoall communication since running on < 1024 CPUs.
  Threshold for basis singularities not set.
  Default threshold for basis singularities:  0.1000E-04
  partition_type (choice of integration weights) for integrals was not specified.
  | Using a version of the partition function of Stratmann and coworkers ('stratmann_sparse').
  | At each grid point, the set of atoms used to build the partition table is smoothly restricted to
  | only those atoms whose free-atom density would be non-zero at that grid point.
  Partitioning for Hartree potential was not defined. Using partition_type for integrals.
  | Adjusted default value of keyword multip_moments_threshold to:       0.10000000E-11
  | This value may affect high angular momentum components of the Hartree potential in periodic systems.
  No q(lm)/r^(l+1) cutoff set for long-range Hartree potential.
  | Using default value of  0.100000E-09 .
  | Verify using the multipole_threshold keyword.
  Defaulting to new monopole extrapolation.
  Density update method: automatic selection selected.
  Charge integration errors on the 3D integration grid will be compensated
  by explicit normalization and distribution of residual charges.
  Use the "compensate_multipole_errors" flag to change this behaviour.
  Set 'collect_eigenvectors' to be '.true.' for use_density_matrix .false.
 
  Consistency checks for the contents of geometry.in are next.
 
  Number of empty states per atom not set in control.in - providing a guess from actual geometry.
  | Total number of empty states used during s.c.f. cycle:        3
  If you use a very high smearing, use empty_states (per atom!) in control.in to increase this value.

  Structure-dependent array size parameters: 
  | Maximum number of distinct radial functions  :       14
  | Maximum number of basis functions            :       18
  | Number of Kohn-Sham states (occupied + empty):       10
------------------------------------------------------------

------------------------------------------------------------
          Preparing all fixed parts of the calculation.
------------------------------------------------------------
  Determining machine precision:
    2.225073858507201E-308
  Setting up grids for atomic and cluster calculations.

  Creating wave function, potential, and density for free atoms.

  Species: Al

  List of occupied orbitals and eigenvalues:
    n    l              occ      energy [Ha]    energy [eV]
    1    0           2.0000       -55.621123     -1513.5278
    2    0           2.0000        -3.957030      -107.6763
    3    0           2.0000        -0.272233        -7.4078
    2    1           6.0000        -2.540949       -69.1427
    3    1           1.0000        -0.083300        -2.2667


  Species: F

  List of occupied orbitals and eigenvalues:
    n    l              occ      energy [Ha]    energy [eV]
    1    0           2.0000       -24.399611      -663.9472
    2    0           2.0000        -1.098702       -29.8972
    2    1           5.0000        -0.408210       -11.1080


  Adding cutoff potential to free-atom effective potential.
  Creating fixed part of basis set: Ionic, confined, hydrogenic.
 
  Al                   ion:

  List of free ionic orbitals and eigenvalues:
    n    l      energy [Ha]    energy [eV]
    1    0       -56.418846     -1535.2349
    2    0        -4.732717      -128.7838
    3    0        -0.872690       -23.7471
    2    1        -3.317230       -90.2664


  List of ionic basis orbitals and eigenvalues:
    n    l      energy [Ha]    energy [eV]    outer radius [A]
    3    2        -0.346815        -9.4373       4.594041
    3    1        -0.631870       -17.1940       4.538221
    3    0        -0.872657       -23.7462       4.538221

 
  F                    hydrogenic:
 
  List of hydrogenic basis orbitals: 
    n    l      effective z      eigenvalue [eV]  inner max. [A]     outer max. [A]     outer radius [A]   
    2    1         1.700000        -9.7616           1.243167           1.243167           4.598524
    3    2         7.400000       -82.7828           0.642437           0.642437           3.305741
    3    0         6.800000       -69.9026           0.057798           1.022307           3.781556
 
  Creating atomic-like basis functions for current effective potential.

  Species Al                  :

  List of atomic basis orbitals and eigenvalues:
    n    l      energy [Ha]    energy [eV]    outer radius [A]
    1    0       -55.621123     -1513.5278       0.850197
    2    0        -3.957030      -107.6763       3.144911
    3    0        -0.272233        -7.4078       4.594041
    2    1        -2.540949       -69.1427       3.731966
    3    1        -0.083300        -2.2667       4.594041


  Species F                   :

  List of atomic basis orbitals and eigenvalues:
    n    l      energy [Ha]    energy [eV]    outer radius [A]
    1    0       -24.399611      -663.9472       1.258458
    2    0        -1.098702       -29.8972       4.325857
    2    1        -0.408210       -11.1080       4.487453

  Assembling full basis from fixed parts.
  | Species Al :   atomic orbital   1 s accepted.
  | Species Al :   atomic orbital   2 s accepted.
  | Species Al :    ionic orbital   3 s accepted.
  | Species Al :   atomic orbital   3 s accepted.
  | Species Al :   atomic orbital   2 p accepted.
  | Species Al :    ionic orbital   3 p accepted.
  | Species Al :   atomic orbital   3 p accepted.
  | Species Al :    ionic orbital   3 d accepted.
  | Species F :   atomic orbital   1 s accepted.
  | Species F :    hydro orbital   3 s accepted.
  | Species F :   atomic orbital   2 s accepted.
  | Species F :   atomic orbital   2 p accepted.
  | Species F :    hydro orbital   2 p accepted.
  | Species F :    hydro orbital   3 d accepted.
 
  Basis size parameters after reduction:
  | Total number of radial functions:       14
  | Total number of basis functions :       18
 
  Per-task memory consumption for arrays in subroutine allocate_ext:
  |           4.803824MB.
  Testing on-site integration grid accuracy.
  |  Species  Function  <phi|h_atom|phi> (log., in eV)  <phi|h_atom|phi> (rad., in eV)
           1        1              -1513.5277717935              -1513.5271881332
           1        2               -107.6762691836               -107.6762662489
           1        3                 -6.9467474784                 -6.9471269649
           1        4                  5.5771951849                  5.4862107220 ***
           1        5                -69.1427313144                -69.1427312731
           1        6                 -1.5197375330                 -1.5230432022
           1        7                  6.8210948310                  6.5529872240 ***
           1        8                  4.3216540965                  4.2851170187 ***
           2        9               -663.9471986398               -663.9470363334
           2       10                 16.8514011578                 16.8512525338
           2       11                -28.4490593856                -28.4490661472
           2       12                -11.1080115307                -11.1080620173
           2       13                  7.1940182175                  7.1685154137
           2       14                 44.8544281765                 44.8543763625
 * Note: Onsite integrals marked "***" above are less accurate than
 * onsite_accuracy_threshold =    0.03000 eV. Usually, this is harmless.
 * When in doubt, tighten the "radial" and/or "radial_multiplier" flags to check.

  Preparing densities etc. for the partition functions (integrals / Hartree potential).

  Preparations completed.
  max(cpu_time)          :      0.184 s.
  Wall clock time (cpu1) :      0.184 s.
------------------------------------------------------------

------------------------------------------------------------
          Begin self-consistency loop: Initialization.

          Date     :  20220516, Time     :  172431.832
------------------------------------------------------------

  Initializing index lists of integration centers etc. from given atomic structure:
  | Number of centers in hartree potential         :         1
  | Number of centers in hartree multipole         :         1
  | Number of centers in electron density summation:         1
  | Number of centers in basis integrals           :         1
  | Number of centers in integrals                 :         1
  | Number of centers in hamiltonian               :         1
  * Using 24 tasks for Scalapack Eigenvalue solver.
  Detailed listing of tasks and assigned k-points:
  (for non-periodic systems, the "k-point" denotes an internal label only)
   Task     0 k-point     1 on node-k98a-015
   Task     1 k-point     1 on node-k98a-015
   Task     2 k-point     1 on node-k98a-015
   Task     3 k-point     1 on node-k98a-015
   Task     4 k-point     1 on node-k98a-015
   Task     5 k-point     1 on node-k98a-015
   Task     6 k-point     1 on node-k98a-015
   Task     7 k-point     1 on node-k98a-015
   Task     8 k-point     1 on node-k98a-015
   Task     9 k-point     1 on node-k98a-015
   Task    10 k-point     1 on node-k98a-015
   Task    11 k-point     1 on node-k98a-015
   Task    12 k-point     1 on node-k98a-015
   Task    13 k-point     1 on node-k98a-015
   Task    14 k-point     1 on node-k98a-015
   Task    15 k-point     1 on node-k98a-015
   Task    16 k-point     1 on node-k98a-015
   Task    17 k-point     1 on node-k98a-015
   Task    18 k-point     1 on node-k98a-015
   Task    19 k-point     1 on node-k98a-015
   Task    20 k-point     1 on node-k98a-015
   Task    21 k-point     1 on node-k98a-015
   Task    22 k-point     1 on node-k98a-015
   Task    23 k-point     1 on node-k98a-015
  Tasks:    24 split into      6 X      4 BLACS grid
  Calculating block size based on n_basis =           18  max_nprow =            6  max_npcol =            4
  ScaLAPACK block size set to:            2
  Allocating        0.000 MB for ovlp
  Allocating        0.000 MB for ham
  Allocating        0.000 MB for eigenvec
  Required Scalapack workspace - INTEGER:            1  REAL:             1
  Partitioning the integration grid into batches with parallel hashing+maxmin method.
  | Number of batches:      116
  | Maximal batch size:     101
  | Minimal batch size:      14
  | Average batch size:      65.155
  | Standard deviation of batch sizes:      20.692

  Integration load balanced across    24 MPI tasks.
  Work distribution over tasks is as follows:
  Task     0 has        338 integration points.
  Task     1 has        318 integration points.
  Task     2 has        300 integration points.
  Task     3 has        291 integration points.
  Task     4 has        312 integration points.
  Task     5 has        319 integration points.
  Task     6 has        298 integration points.
  Task     7 has        307 integration points.
  Task     8 has        295 integration points.
  Task     9 has        303 integration points.
  Task    10 has        345 integration points.
  Task    11 has        317 integration points.
  Task    12 has        289 integration points.
  Task    13 has        287 integration points.
  Task    14 has        355 integration points.
  Task    15 has        314 integration points.
  Task    16 has        328 integration points.
  Task    17 has        310 integration points.
  Task    18 has        341 integration points.
  Task    19 has        353 integration points.
  Task    20 has        289 integration points.
  Task    21 has        311 integration points.
  Task    22 has        332 integration points.
  Task    23 has        306 integration points.
  Initializing partition tables, free-atom densities, potentials, etc. across the integration grid (initialize_grid_storage).
  | initialize_grid_storage: Actual outermost partition radius vs. multipole_radius_free
  | (-- VB: in principle, multipole_radius_free should be larger, hence this output)
  | Species        1: Confinement radius =              4.999999999999999 AA, multipole_radius_free =              5.004487022111096 AA.
  | Species        1: outer_partition_radius set to              5.004487022111096 AA .
  | Species        2: Confinement radius =              4.999999999999999 AA, multipole_radius_free =              5.009370088163274 AA.
  | Species        2: outer_partition_radius set to              5.009370088163274 AA .
  | The sparse table of interatomic distances needs          0.01 kbyte instead of         0.01 kbyte of memory.
  | Net number of integration points:     7558
  | of which are non-zero points    :     7558
  Renormalizing the initial density to the exact electron count on the 3D integration grid.
  | Initial density: Formal number of electrons (from input files) :      13.0000000000
  | Integrated number of electrons on 3D grid     :      12.9991415970
  | Charge integration error                      :      -0.0008584030
  | Normalization factor for density and gradient :       1.0000660354
  Renormalizing the free-atom superposition density to the exact electron count on the 3D integration grid.
  | Formal number of electrons (from input files) :      13.0000000000
  | Integrated number of electrons on 3D grid     :      12.9991415970
  | Charge integration error                      :      -0.0008584030
  | Normalization factor for density and gradient :       1.0000660354
  Obtaining max. number of non-zero basis functions in each batch (get_n_compute_maxes).
  | Maximal number of non-zero basis functions:       18 in task     0
  | Maximal number of non-zero basis functions:       18 in task     1
  | Maximal number of non-zero basis functions:       18 in task     2
  | Maximal number of non-zero basis functions:       18 in task     3
  | Maximal number of non-zero basis functions:       18 in task     4
  | Maximal number of non-zero basis functions:       18 in task     5
  | Maximal number of non-zero basis functions:       18 in task     6
  | Maximal number of non-zero basis functions:       18 in task     7
  | Maximal number of non-zero basis functions:       18 in task     8
  | Maximal number of non-zero basis functions:       18 in task     9
  | Maximal number of non-zero basis functions:       18 in task    10
  | Maximal number of non-zero basis functions:       18 in task    11
  | Maximal number of non-zero basis functions:       18 in task    12
  | Maximal number of non-zero basis functions:       18 in task    13
  | Maximal number of non-zero basis functions:       18 in task    14
  | Maximal number of non-zero basis functions:       18 in task    15
  | Maximal number of non-zero basis functions:       18 in task    16
  | Maximal number of non-zero basis functions:       18 in task    17
  | Maximal number of non-zero basis functions:       18 in task    18
  | Maximal number of non-zero basis functions:       18 in task    19
  | Maximal number of non-zero basis functions:       18 in task    20
  | Maximal number of non-zero basis functions:       18 in task    21
  | Maximal number of non-zero basis functions:       18 in task    22
  | Maximal number of non-zero basis functions:       18 in task    23
  Selecting the method for density update.
  Loop over occupied states selected for charge density update.
  Allocating        0.001 MB for KS_eigenvector
  Integrating Hamiltonian matrix: batch-based integration.
  Time summed over all CPUs for integration: real work        0.024 s, elapsed        0.030 s
  Integrating overlap matrix.
  Time summed over all CPUs for integration: real work        0.010 s, elapsed        0.019 s
  Deallocating overlap matrix.

  Updating Kohn-Sham eigenvalues and eigenvectors using ELSI and the ELPA eigensolver.
  Overlap matrix is not singular
  | Lowest and highest eigenvalues :  0.9954E+00,  0.1000E+01
  Finished singularity check of overlap matrix
  | Time :     0.004 s
  Starting ELPA eigensolver
  Finished Cholesky decomposition
  | Time :     0.001 s
  Finished transformation to standard eigenproblem
  | Time :     0.001 s
  Finished solving standard eigenproblem
  | Time :     0.000 s
  Finished back-transformation of eigenvectors
  | Time :     0.001 s

  Obtaining occupation numbers and chemical potential using ELSI.
  | Chemical potential (Fermi level):    -2.31688680 eV
  Writing Kohn-Sham eigenvalues.

  State    Occupation    Eigenvalue [Ha]    Eigenvalue [eV]
      1       2.00000         -55.477814        -1509.62813
      2       2.00000          -3.939496         -107.19913
      3       2.00000          -2.530907          -68.86948
      4       2.00000          -2.530907          -68.86948
      5       2.00000          -2.530907          -68.86948
      6       2.00000          -0.270918           -7.37205
      7       0.33333          -0.084893           -2.31005
      8       0.33333          -0.084893           -2.31005
      9       0.33333          -0.084893           -2.31005
     10       0.00000           0.158086            4.30174

  Highest occupied state (VBM) at     -7.37205035 eV
  | Occupation number:      2.00000000

  Lowest unoccupied state (CBM) at    -2.31004610 eV
  | Occupation number:      0.33333333

  Overall HOMO-LUMO gap:      5.06200425 eV.
  This system has fractional occupation numbers. Thus, it is a degenerate system
  within the approximate finite broadening function (occupation_type)
  applied to determine the occupation numbers.
  This may not be harmful. However, for some systems (free atoms), a different, non-degenerate
  ground state might exist by using a smaller broadening (see keyword occupation_type).
  Calculating total energy contributions from superposition of free atom densities.

  Total energy components:
  | Sum of eigenvalues            :        -134.64679017 Ha       -3663.92557908 eV
  | XC energy correction          :         -17.97080368 Ha        -489.01044871 eV
  | XC potential correction       :          23.42887744 Ha         637.53219254 eV
  | Free-atom electrostatic energy:        -113.24346790 Ha       -3081.51154718 eV
  | Hartree energy correction     :           0.00000000 Ha           0.00000000 eV
  | Entropy correction            :          -0.00019478 Ha          -0.00530014 eV
  | ---------------------------
  | Total energy                  :        -242.43218431 Ha       -6596.91538243 eV
  | Total energy, T -> 0          :        -242.43237909 Ha       -6596.92068257 eV  <-- do not rely on this value for anything but (periodic) metals
  | Electronic free energy        :        -242.43257386 Ha       -6596.92598271 eV

  Derived energy quantities:
  | Kinetic energy                :         243.41332409 Ha        6623.61355417 eV
  | Electrostatic energy          :        -467.87470472 Ha      -12731.51848789 eV
  | Energy correction for multipole
  | error in Hartree potential    :           0.00000000 Ha           0.00000000 eV
  | Sum of eigenvalues per atom                           :       -3663.92557908 eV
  | Total energy (T->0) per atom                          :       -6596.92068257 eV  <-- do not rely on this value for anything but (periodic) metals
  | Electronic free energy per atom                       :       -6596.92598271 eV
  Initialize hartree_potential_storage
  Max. number of atoms included in rho_multipole:            1

  End scf initialization - timings             :  max(cpu_time)    wall_clock(cpu1)
  | Time for scf. initialization                :        0.015 s           0.019 s
  | Boundary condition initialization           :        0.000 s           0.000 s
  | Integration                                 :        0.003 s           0.003 s
  | Solution of K.-S. eqns.                     :        0.005 s           0.008 s
  | Grid partitioning                           :        0.003 s           0.003 s
  | Preloading free-atom quantities on grid     :        0.002 s           0.002 s
  | Free-atom superposition energy              :        0.000 s           0.000 s
  | Total energy evaluation                     :        0.000 s           0.000 s

  Partial memory accounting:
  | Current value for overall tracked memory usage:
  |   Minimum:        0.003 MB (on task 13)
  |   Maximum:        0.004 MB (on task  0)
  |   Average:        0.003 MB
  | Peak value for overall tracked memory usage:
  |   Minimum:        0.049 MB (on task 13 after allocating wave)
  |   Maximum:        0.066 MB (on task 10 after allocating grid_partition)
  |   Average:        0.050 MB
  | Largest tracked array allocation so far:
  |   Minimum:        0.014 MB (H_times_psi on task  0)
  |   Maximum:        0.043 MB (all_coords on task 10)
  |   Average:        0.018 MB
  Note:  These values currently only include a subset of arrays which are explicitly tracked.
  The "true" memory usage will be greater.
------------------------------------------------------------
  Evaluating new KS density.
  Integration grid: deviation in total charge (<rho> - N_e) =   8.526513E-14

  Time for density update prior                :  max(cpu_time)    wall_clock(cpu1)
  | self-consistency iterative process          :        0.001 s           0.001 s

------------------------------------------------------------
          Begin self-consistency iteration #    1

  Date     :  20220516, Time     :  172431.852
------------------------------------------------------------
  Pulay mixing of updated and previous charge densities.
  Renormalizing the density to the exact electron count on the 3D integration grid.
  | Formal number of electrons (from input files) :      13.0000000000
  | Integrated number of electrons on 3D grid     :      13.0000000000
  | Charge integration error                      :       0.0000000000
  | Normalization factor for density and gradient :       1.0000000000

  Evaluating partitioned Hartree potential by multipole expansion.
  | Original multipole sum: apparent total charge =   0.506644E-15
  | Sum of charges compensated after spline to logarithmic grids =  -0.696082E-04
  | Analytical far-field extrapolation by fixed multipoles:
  | Hartree multipole sum: apparent total charge =   0.511109E-15
  Summing up the Hartree potential.
  Time summed over all CPUs for potential: real work        0.016 s, elapsed        0.018 s
  | RMS charge density error from multipole expansion :   0.246159E-13

  Integrating Hamiltonian matrix: batch-based integration.
  Time summed over all CPUs for integration: real work        0.012 s, elapsed        0.014 s

  Updating Kohn-Sham eigenvalues and eigenvectors using ELSI and the ELPA eigensolver.
  Starting ELPA eigensolver
  Finished transformation to standard eigenproblem
  | Time :     0.000 s
  Finished solving standard eigenproblem
  | Time :     0.000 s
  Finished back-transformation of eigenvectors
  | Time :     0.000 s

  Obtaining occupation numbers and chemical potential using ELSI.
  | Chemical potential (Fermi level):    -2.36237098 eV
  Writing Kohn-Sham eigenvalues.

  State    Occupation    Eigenvalue [Ha]    Eigenvalue [eV]
      1       2.00000         -55.488479        -1509.91833
      2       2.00000          -3.946449         -107.38833
      3       2.00000          -2.538055          -69.06399
      4       2.00000          -2.538055          -69.06399
      5       2.00000          -2.538055          -69.06399
      6       2.00000          -0.273045           -7.42994
      7       0.33333          -0.086564           -2.35553
      8       0.33333          -0.086564           -2.35553
      9       0.33333          -0.086564           -2.35553
     10       0.00000           0.156487            4.25822

  Highest occupied state (VBM) at     -7.42993864 eV
  | Occupation number:      2.00000000

  Lowest unoccupied state (CBM) at    -2.35553028 eV
  | Occupation number:      0.33333333

  Overall HOMO-LUMO gap:      5.07440836 eV.
  This system has fractional occupation numbers. Thus, it is a degenerate system
  within the approximate finite broadening function (occupation_type)
  applied to determine the occupation numbers.
  This may not be harmful. However, for some systems (free atoms), a different, non-degenerate
  ground state might exist by using a smaller broadening (see keyword occupation_type).

  Total energy components:
  | Sum of eigenvalues            :        -134.73083956 Ha       -3666.21267927 eV
  | XC energy correction          :         -17.96323269 Ha        -488.80443170 eV
  | XC potential correction       :          23.41889697 Ha         637.26061013 eV
  | Free-atom electrostatic energy:        -113.24346790 Ha       -3081.51154718 eV
  | Hartree energy correction     :           0.08649679 Ha           2.35369743 eV
  | Entropy correction            :          -0.00019478 Ha          -0.00530014 eV
  | ---------------------------
  | Total energy                  :        -242.43214639 Ha       -6596.91435060 eV
  | Total energy, T -> 0          :        -242.43234117 Ha       -6596.91965074 eV  <-- do not rely on this value for anything but (periodic) metals
  | Electronic free energy        :        -242.43253594 Ha       -6596.92495088 eV

  Derived energy quantities:
  | Kinetic energy                :         243.33691968 Ha        6621.53448441 eV
  | Electrostatic energy          :        -467.80583337 Ha      -12729.64440331 eV
  | Energy correction for multipole
  | error in Hartree potential    :           0.00000000 Ha           0.00000000 eV
  | Sum of eigenvalues per atom                           :       -3666.21267927 eV
  | Total energy (T->0) per atom                          :       -6596.91965074 eV  <-- do not rely on this value for anything but (periodic) metals
  | Electronic free energy per atom                       :       -6596.92495088 eV
  Evaluating new KS density.
  Integration grid: deviation in total charge (<rho> - N_e) =  -4.973799E-14

  Self-consistency convergence accuracy:
  | Change of charge density      :  0.7529E-02
  | Change of sum of eigenvalues  : -0.2287E+01 eV
  | Change of total energy        :  0.1032E-02 eV


------------------------------------------------------------
  End self-consistency iteration #     1       :  max(cpu_time)    wall_clock(cpu1)
  | Time for this iteration                     :        0.004 s           0.004 s
  | Charge density update                       :        0.000 s           0.001 s
  | Density mixing                              :        0.000 s           0.000 s
  | Hartree multipole update                    :        0.001 s           0.000 s
  | Hartree multipole summation                 :        0.001 s           0.002 s
  | Integration                                 :        0.001 s           0.000 s
  | Solution of K.-S. eqns.                     :        0.001 s           0.001 s
  | Total energy evaluation                     :        0.000 s           0.000 s

  Partial memory accounting:
  | Current value for overall tracked memory usage:
  |   Minimum:        0.003 MB (on task 13)
  |   Maximum:        0.004 MB (on task  0)
  |   Average:        0.003 MB
  | Peak value for overall tracked memory usage:
  |   Minimum:        0.059 MB (on task 13 after allocating gradient_basis_wave)
  |   Maximum:        0.066 MB (on task 10 after allocating grid_partition)
  |   Average:        0.059 MB
  | Largest tracked array allocation so far:
  |   Minimum:        0.042 MB (gradient_basis_wave on task  0)
  |   Maximum:        0.043 MB (all_coords on task 10)
  |   Average:        0.042 MB
  Note:  These values currently only include a subset of arrays which are explicitly tracked.
  The "true" memory usage will be greater.
------------------------------------------------------------

------------------------------------------------------------
          Begin self-consistency iteration #    2

  Date     :  20220516, Time     :  172431.861
------------------------------------------------------------
  Pulay mixing of updated and previous charge densities.
  Renormalizing the density to the exact electron count on the 3D integration grid.
  | Formal number of electrons (from input files) :      13.0000000000
  | Integrated number of electrons on 3D grid     :      13.0000000000
  | Charge integration error                      :      -0.0000000000
  | Normalization factor for density and gradient :       1.0000000000

  Evaluating partitioned Hartree potential by multipole expansion.
  | Original multipole sum: apparent total charge =   0.851986E-15
  | Sum of charges compensated after spline to logarithmic grids =  -0.103679E-03
  | Analytical far-field extrapolation by fixed multipoles:
  | Hartree multipole sum: apparent total charge =   0.843225E-15
  Summing up the Hartree potential.
  Time summed over all CPUs for potential: real work        0.014 s, elapsed        0.015 s
  | RMS charge density error from multipole expansion :   0.837311E-12

  Integrating Hamiltonian matrix: batch-based integration.
  Time summed over all CPUs for integration: real work        0.012 s, elapsed        0.014 s

  Updating Kohn-Sham eigenvalues and eigenvectors using ELSI and the ELPA eigensolver.
  Starting ELPA eigensolver
  Finished transformation to standard eigenproblem
  | Time :     0.004 s
  Finished solving standard eigenproblem
  | Time :     0.002 s
  Finished back-transformation of eigenvectors
  | Time :     0.002 s

  Obtaining occupation numbers and chemical potential using ELSI.
  | Chemical potential (Fermi level):    -2.38217462 eV
  Highest occupied state (VBM) at     -7.45497853 eV
  | Occupation number:      2.00000000

  Lowest unoccupied state (CBM) at    -2.37533391 eV
  | Occupation number:      0.33333333

  Overall HOMO-LUMO gap:      5.07964461 eV.
  This system has fractional occupation numbers. Thus, it is a degenerate system
  within the approximate finite broadening function (occupation_type)
  applied to determine the occupation numbers.
  This may not be harmful. However, for some systems (free atoms), a different, non-degenerate
  ground state might exist by using a smaller broadening (see keyword occupation_type).

  Checking to see if s.c.f. parameters should be adjusted.

  Total energy components:
  | Sum of eigenvalues            :        -134.76574641 Ha       -3667.16254301 eV
  | XC energy correction          :         -17.96007698 Ha        -488.71856033 eV
  | XC potential correction       :          23.41474100 Ha         637.14752029 eV
  | Free-atom electrostatic energy:        -113.24346790 Ha       -3081.51154718 eV
  | Hartree energy correction     :           0.12240501 Ha           3.33080974 eV
  | Entropy correction            :          -0.00019478 Ha          -0.00530014 eV
  | ---------------------------
  | Total energy                  :        -242.43214528 Ha       -6596.91432050 eV
  | Total energy, T -> 0          :        -242.43234006 Ha       -6596.91962064 eV  <-- do not rely on this value for anything but (periodic) metals
  | Electronic free energy        :        -242.43253484 Ha       -6596.92492078 eV

  Derived energy quantities:
  | Kinetic energy                :         243.30366630 Ha        6620.62961386 eV
  | Electrostatic energy          :        -467.77573460 Ha      -12728.82537402 eV
  | Energy correction for multipole
  | error in Hartree potential    :          -0.00000000 Ha          -0.00000000 eV
  | Sum of eigenvalues per atom                           :       -3667.16254301 eV
  | Total energy (T->0) per atom                          :       -6596.91962064 eV  <-- do not rely on this value for anything but (periodic) metals
  | Electronic free energy per atom                       :       -6596.92492078 eV
  Evaluating new KS density.
  Integration grid: deviation in total charge (<rho> - N_e) =   6.039613E-14

  Self-consistency convergence accuracy:
  | Change of charge density      :  0.2266E-02
  | Change of sum of eigenvalues  : -0.9499E+00 eV
  | Change of total energy        :  0.3010E-04 eV


------------------------------------------------------------
  End self-consistency iteration #     2       :  max(cpu_time)    wall_clock(cpu1)
  | Time for this iteration                     :        0.015 s           0.013 s
  | Charge density update                       :        0.001 s           0.001 s
  | Density mixing                              :        0.004 s           0.001 s
  | Hartree multipole update                    :        0.000 s           0.001 s
  | Hartree multipole summation                 :        0.001 s           0.001 s
  | Integration                                 :        0.001 s           0.000 s
  | Solution of K.-S. eqns.                     :        0.008 s           0.008 s
  | Total energy evaluation                     :        0.001 s           0.000 s

  Partial memory accounting:
  | Current value for overall tracked memory usage:
  |   Minimum:        0.004 MB (on task 13)
  |   Maximum:        0.005 MB (on task  0)
  |   Average:        0.004 MB
  | Peak value for overall tracked memory usage:
  |   Minimum:        0.060 MB (on task 13 after allocating gradient_basis_wave)
  |   Maximum:        0.066 MB (on task 10 after allocating grid_partition)
  |   Average:        0.060 MB
  | Largest tracked array allocation so far:
  |   Minimum:        0.042 MB (all_coords on task  0)
  |   Maximum:        0.043 MB (all_coords on task 10)
  |   Average:        0.042 MB
  Note:  These values currently only include a subset of arrays which are explicitly tracked.
  The "true" memory usage will be greater.
------------------------------------------------------------

------------------------------------------------------------
          Begin self-consistency iteration #    3

  Date     :  20220516, Time     :  172431.881
------------------------------------------------------------
  Pulay mixing of updated and previous charge densities.
  Renormalizing the density to the exact electron count on the 3D integration grid.
  | Formal number of electrons (from input files) :      13.0000000000
  | Integrated number of electrons on 3D grid     :      13.0000000000
  | Charge integration error                      :       0.0000000000
  | Normalization factor for density and gradient :       1.0000000000

  Evaluating partitioned Hartree potential by multipole expansion.
  | Original multipole sum: apparent total charge =  -0.110310E-14
  | Sum of charges compensated after spline to logarithmic grids =  -0.108656E-03
  | Analytical far-field extrapolation by fixed multipoles:
  | Hartree multipole sum: apparent total charge =  -0.112118E-14
  Summing up the Hartree potential.
  Time summed over all CPUs for potential: real work        0.014 s, elapsed        0.016 s
  | RMS charge density error from multipole expansion :   0.440919E-10

  Integrating Hamiltonian matrix: batch-based integration.
  Time summed over all CPUs for integration: real work        0.012 s, elapsed        0.014 s

  Updating Kohn-Sham eigenvalues and eigenvectors using ELSI and the ELPA eigensolver.
  Starting ELPA eigensolver
  Finished transformation to standard eigenproblem
  | Time :     0.002 s
  Finished solving standard eigenproblem
  | Time :     0.003 s
  Finished back-transformation of eigenvectors
  | Time :     0.001 s

  Obtaining occupation numbers and chemical potential using ELSI.
  | Chemical potential (Fermi level):    -2.38302973 eV
  Highest occupied state (VBM) at     -7.45591431 eV
  | Occupation number:      2.00000000

  Lowest unoccupied state (CBM) at    -2.37618903 eV
  | Occupation number:      0.33333335

  Overall HOMO-LUMO gap:      5.07972528 eV.
  This system has fractional occupation numbers. Thus, it is a degenerate system
  within the approximate finite broadening function (occupation_type)
  applied to determine the occupation numbers.
  This may not be harmful. However, for some systems (free atoms), a different, non-degenerate
  ground state might exist by using a smaller broadening (see keyword occupation_type).

  Total energy components:
  | Sum of eigenvalues            :        -134.76587886 Ha       -3667.16614712 eV
  | XC energy correction          :         -17.96004010 Ha        -488.71755679 eV
  | XC potential correction       :          23.41469662 Ha         637.14631260 eV
  | Free-atom electrostatic energy:        -113.24346790 Ha       -3081.51154718 eV
  | Hartree energy correction     :           0.12254465 Ha           3.33460961 eV
  | Entropy correction            :          -0.00019478 Ha          -0.00530014 eV
  | ---------------------------
  | Total energy                  :        -242.43214559 Ha       -6596.91432889 eV
  | Total energy, T -> 0          :        -242.43234037 Ha       -6596.91962903 eV  <-- do not rely on this value for anything but (periodic) metals
  | Electronic free energy        :        -242.43253515 Ha       -6596.92492917 eV

  Derived energy quantities:
  | Kinetic energy                :         243.30194482 Ha        6620.58277019 eV
  | Electrostatic energy          :        -467.77405032 Ha      -12728.77954229 eV
  | Energy correction for multipole
  | error in Hartree potential    :           0.00000000 Ha           0.00000000 eV
  | Sum of eigenvalues per atom                           :       -3667.16614712 eV
  | Total energy (T->0) per atom                          :       -6596.91962903 eV  <-- do not rely on this value for anything but (periodic) metals
  | Electronic free energy per atom                       :       -6596.92492917 eV
  Evaluating new KS density.
  Integration grid: deviation in total charge (<rho> - N_e) =   1.421085E-14

  Self-consistency convergence accuracy:
  | Change of charge density      :  0.2352E-03
  | Change of sum of eigenvalues  : -0.3604E-02 eV
  | Change of total energy        : -0.8386E-05 eV


------------------------------------------------------------
  End self-consistency iteration #     3       :  max(cpu_time)    wall_clock(cpu1)
  | Time for this iteration                     :        0.018 s           0.015 s
  | Charge density update                       :        0.001 s           0.001 s
  | Density mixing                              :        0.005 s           0.003 s
  | Hartree multipole update                    :        0.002 s           0.001 s
  | Hartree multipole summation                 :        0.002 s           0.002 s
  | Integration                                 :        0.002 s           0.001 s
  | Solution of K.-S. eqns.                     :        0.007 s           0.007 s
  | Total energy evaluation                     :        0.000 s           0.000 s

  Partial memory accounting:
  | Current value for overall tracked memory usage:
  |   Minimum:        0.004 MB (on task 13)
  |   Maximum:        0.005 MB (on task  0)
  |   Average:        0.004 MB
  | Peak value for overall tracked memory usage:
  |   Minimum:        0.060 MB (on task 13 after allocating gradient_basis_wave)
  |   Maximum:        0.066 MB (on task 10 after allocating grid_partition)
  |   Average:        0.060 MB
  | Largest tracked array allocation so far:
  |   Minimum:        0.042 MB (all_coords on task  0)
  |   Maximum:        0.043 MB (all_coords on task 10)
  |   Average:        0.042 MB
  Note:  These values currently only include a subset of arrays which are explicitly tracked.
  The "true" memory usage will be greater.
------------------------------------------------------------

------------------------------------------------------------
          Begin self-consistency iteration #    4

  Date     :  20220516, Time     :  172431.903
------------------------------------------------------------
  Pulay mixing of updated and previous charge densities.
  Renormalizing the density to the exact electron count on the 3D integration grid.
  | Formal number of electrons (from input files) :      13.0000000000
  | Integrated number of electrons on 3D grid     :      13.0000000000
  | Charge integration error                      :       0.0000000000
  | Normalization factor for density and gradient :       1.0000000000

  Evaluating partitioned Hartree potential by multipole expansion.
  | Original multipole sum: apparent total charge =   0.502717E-15
  | Sum of charges compensated after spline to logarithmic grids =  -0.108624E-03
  | Analytical far-field extrapolation by fixed multipoles:
  | Hartree multipole sum: apparent total charge =   0.509631E-15
  Summing up the Hartree potential.
  Time summed over all CPUs for potential: real work        0.015 s, elapsed        0.025 s
  | RMS charge density error from multipole expansion :   0.290640E-09

  Integrating Hamiltonian matrix: batch-based integration.
  Time summed over all CPUs for integration: real work        0.012 s, elapsed        0.021 s => Consider using load balancing!

  Updating Kohn-Sham eigenvalues and eigenvectors using ELSI and the ELPA eigensolver.
  Starting ELPA eigensolver
  Finished transformation to standard eigenproblem
  | Time :     0.002 s
  Finished solving standard eigenproblem
  | Time :     0.000 s
  Finished back-transformation of eigenvectors
  | Time :     0.000 s

  Obtaining occupation numbers and chemical potential using ELSI.
  | Chemical potential (Fermi level):    -2.38293262 eV
  Highest occupied state (VBM) at     -7.45579315 eV
  | Occupation number:      2.00000000

  Lowest unoccupied state (CBM) at    -2.37609192 eV
  | Occupation number:      0.33333347

  Overall HOMO-LUMO gap:      5.07970122 eV.
  This system has fractional occupation numbers. Thus, it is a degenerate system
  within the approximate finite broadening function (occupation_type)
  applied to determine the occupation numbers.
  This may not be harmful. However, for some systems (free atoms), a different, non-degenerate
  ground state might exist by using a smaller broadening (see keyword occupation_type).

  Total energy components:
  | Sum of eigenvalues            :        -134.76579158 Ha       -3667.16377210 eV
  | XC energy correction          :         -17.96004088 Ha        -488.71757806 eV
  | XC potential correction       :          23.41469786 Ha         637.14634648 eV
  | Free-atom electrostatic energy:        -113.24346790 Ha       -3081.51154718 eV
  | Hartree energy correction     :           0.12245691 Ha           3.33222206 eV
  | Entropy correction            :          -0.00019478 Ha          -0.00530014 eV
  | ---------------------------
  | Total energy                  :        -242.43214559 Ha       -6596.91432880 eV
  | Total energy, T -> 0          :        -242.43234037 Ha       -6596.91962894 eV  <-- do not rely on this value for anything but (periodic) metals
  | Electronic free energy        :        -242.43253514 Ha       -6596.92492908 eV

  Derived energy quantities:
  | Kinetic energy                :         243.30187563 Ha        6620.58088736 eV
  | Electrostatic energy          :        -467.77398034 Ha      -12728.77763810 eV
  | Energy correction for multipole
  | error in Hartree potential    :           0.00000000 Ha           0.00000000 eV
  | Sum of eigenvalues per atom                           :       -3667.16377210 eV
  | Total energy (T->0) per atom                          :       -6596.91962894 eV  <-- do not rely on this value for anything but (periodic) metals
  | Electronic free energy per atom                       :       -6596.92492908 eV
  Evaluating new KS density.
  Integration grid: deviation in total charge (<rho> - N_e) =   3.197442E-14

  Self-consistency convergence accuracy:
  | Change of charge density      :  0.8829E-05
  | Change of sum of eigenvalues  :  0.2375E-02 eV
  | Change of total energy        :  0.8591E-07 eV


------------------------------------------------------------
  End self-consistency iteration #     4       :  max(cpu_time)    wall_clock(cpu1)
  | Time for this iteration                     :        0.013 s           0.008 s
  | Charge density update                       :        0.000 s           0.000 s
  | Density mixing                              :        0.007 s           0.002 s
  | Hartree multipole update                    :        0.000 s           0.001 s
  | Hartree multipole summation                 :        0.002 s           0.001 s
  | Integration                                 :        0.001 s           0.001 s
  | Solution of K.-S. eqns.                     :        0.002 s           0.003 s
  | Total energy evaluation                     :        0.000 s           0.000 s

  Partial memory accounting:
  | Current value for overall tracked memory usage:
  |   Minimum:        0.004 MB (on task 13)
  |   Maximum:        0.005 MB (on task  0)
  |   Average:        0.004 MB
  | Peak value for overall tracked memory usage:
  |   Minimum:        0.060 MB (on task 13 after allocating gradient_basis_wave)
  |   Maximum:        0.066 MB (on task 10 after allocating grid_partition)
  |   Average:        0.060 MB
  | Largest tracked array allocation so far:
  |   Minimum:        0.042 MB (all_coords on task  0)
  |   Maximum:        0.043 MB (all_coords on task 10)
  |   Average:        0.042 MB
  Note:  These values currently only include a subset of arrays which are explicitly tracked.
  The "true" memory usage will be greater.
------------------------------------------------------------

------------------------------------------------------------
          Begin self-consistency iteration #    5

  Date     :  20220516, Time     :  172431.918
------------------------------------------------------------
  Pulay mixing of updated and previous charge densities.
  Renormalizing the density to the exact electron count on the 3D integration grid.
  | Formal number of electrons (from input files) :      13.0000000000
  | Integrated number of electrons on 3D grid     :      13.0000000000
  | Charge integration error                      :       0.0000000000
  | Normalization factor for density and gradient :       1.0000000000

  Evaluating partitioned Hartree potential by multipole expansion.
  | Original multipole sum: apparent total charge =  -0.725909E-16
  | Sum of charges compensated after spline to logarithmic grids =  -0.108628E-03
  | Analytical far-field extrapolation by fixed multipoles:
  | Hartree multipole sum: apparent total charge =  -0.849008E-16
  Summing up the Hartree potential.
  Time summed over all CPUs for potential: real work        0.014 s, elapsed        0.015 s
  | RMS charge density error from multipole expansion :   0.529114E-11

  Integrating Hamiltonian matrix: batch-based integration.
  Time summed over all CPUs for integration: real work        0.012 s, elapsed        0.014 s

  Updating Kohn-Sham eigenvalues and eigenvectors using ELSI and the ELPA eigensolver.
  Starting ELPA eigensolver
  Finished transformation to standard eigenproblem
  | Time :     0.000 s
  Finished solving standard eigenproblem
  | Time :     0.000 s
  Finished back-transformation of eigenvectors
  | Time :     0.000 s

  Obtaining occupation numbers and chemical potential using ELSI.
  | Chemical potential (Fermi level):    -2.38293158 eV
  Highest occupied state (VBM) at     -7.45579206 eV
  | Occupation number:      2.00000000

  Lowest unoccupied state (CBM) at    -2.37609088 eV
  | Occupation number:      0.33333367

  Overall HOMO-LUMO gap:      5.07970118 eV.
  This system has fractional occupation numbers. Thus, it is a degenerate system
  within the approximate finite broadening function (occupation_type)
  applied to determine the occupation numbers.
  This may not be harmful. However, for some systems (free atoms), a different, non-degenerate
  ground state might exist by using a smaller broadening (see keyword occupation_type).

  Total energy components:
  | Sum of eigenvalues            :        -134.76579640 Ha       -3667.16390330 eV
  | XC energy correction          :         -17.96004004 Ha        -488.71755515 eV
  | XC potential correction       :          23.41469676 Ha         637.14631654 eV
  | Free-atom electrostatic energy:        -113.24346790 Ha       -3081.51154718 eV
  | Hartree energy correction     :           0.12246199 Ha           3.33236028 eV
  | Entropy correction            :          -0.00019478 Ha          -0.00530014 eV
  | ---------------------------
  | Total energy                  :        -242.43214559 Ha       -6596.91432881 eV
  | Total energy, T -> 0          :        -242.43234037 Ha       -6596.91962895 eV  <-- do not rely on this value for anything but (periodic) metals
  | Electronic free energy        :        -242.43253514 Ha       -6596.92492909 eV

  Derived energy quantities:
  | Kinetic energy                :         243.30186442 Ha        6620.58058232 eV
  | Electrostatic energy          :        -467.77396997 Ha      -12728.77735598 eV
  | Energy correction for multipole
  | error in Hartree potential    :          -0.00000000 Ha          -0.00000000 eV
  | Sum of eigenvalues per atom                           :       -3667.16390330 eV
  | Total energy (T->0) per atom                          :       -6596.91962895 eV  <-- do not rely on this value for anything but (periodic) metals
  | Electronic free energy per atom                       :       -6596.92492909 eV
  Evaluating new KS density.
  Integration grid: deviation in total charge (<rho> - N_e) =  -7.105427E-15

  Self-consistency convergence accuracy:
  | Change of charge density      :  0.8809E-06
  | Change of sum of eigenvalues  : -0.1312E-03 eV
  | Change of total energy        : -0.9763E-08 eV

  Electronic self-consistency reached - switching on the force computation.


------------------------------------------------------------
  End self-consistency iteration #     5       :  max(cpu_time)    wall_clock(cpu1)
  | Time for this iteration                     :        0.006 s           0.003 s
  | Charge density & force component update     :        0.000 s           0.001 s
  | Density mixing                              :        0.003 s           0.000 s
  | Hartree multipole update                    :        0.000 s           0.000 s
  | Hartree multipole summation                 :        0.001 s           0.001 s
  | Hartree pot. SCF incomplete forces          :        0.000 s           0.000 s
  | Integration                                 :        0.001 s           0.001 s
  | Solution of K.-S. eqns.                     :        0.001 s           0.000 s
  | Total energy evaluation                     :        0.000 s           0.000 s

  Partial memory accounting:
  | Current value for overall tracked memory usage:
  |   Minimum:        0.004 MB (on task 13)
  |   Maximum:        0.005 MB (on task  0)
  |   Average:        0.004 MB
  | Peak value for overall tracked memory usage:
  |   Minimum:        0.060 MB (on task 13 after allocating gradient_basis_wave)
  |   Maximum:        0.066 MB (on task 10 after allocating grid_partition)
  |   Average:        0.060 MB
  | Largest tracked array allocation so far:
  |   Minimum:        0.042 MB (all_coords on task  0)
  |   Maximum:        0.043 MB (all_coords on task 10)
  |   Average:        0.042 MB
  Note:  These values currently only include a subset of arrays which are explicitly tracked.
  The "true" memory usage will be greater.
------------------------------------------------------------

------------------------------------------------------------
          Begin self-consistency iteration #    6

  Date     :  20220516, Time     :  172431.927
------------------------------------------------------------
  Pulay mixing of updated and previous charge densities.
  Renormalizing the density to the exact electron count on the 3D integration grid.
  | Formal number of electrons (from input files) :      13.0000000000
  | Integrated number of electrons on 3D grid     :      13.0000000000
  | Charge integration error                      :      -0.0000000000
  | Normalization factor for density and gradient :       1.0000000000

  Evaluating partitioned Hartree potential by multipole expansion.
  | Original multipole sum: apparent total charge =  -0.157050E-15
  | Sum of charges compensated after spline to logarithmic grids =  -0.108629E-03
  | Analytical far-field extrapolation by fixed multipoles:
  | Hartree multipole sum: apparent total charge =  -0.146531E-15
  Summing up the Hartree potential.
  Time summed over all CPUs for potential: real work        0.032 s, elapsed        0.032 s
  | RMS charge density error from multipole expansion :   0.488035E-14

  Integrating Hamiltonian matrix: batch-based integration.
  Time summed over all CPUs for integration: real work        0.012 s, elapsed        0.014 s

  Updating Kohn-Sham eigenvalues and eigenvectors using ELSI and the ELPA eigensolver.
  Starting ELPA eigensolver
  Finished transformation to standard eigenproblem
  | Time :     0.000 s
  Finished solving standard eigenproblem
  | Time :     0.000 s
  Finished back-transformation of eigenvectors
  | Time :     0.000 s

  Obtaining occupation numbers and chemical potential using ELSI.
  | Chemical potential (Fermi level):    -2.38293180 eV
  Highest occupied state (VBM) at     -7.45579230 eV
  | Occupation number:      2.00000000

  Lowest unoccupied state (CBM) at    -2.37609113 eV
  | Occupation number:      0.33333541

  Overall HOMO-LUMO gap:      5.07970117 eV.
  This system has fractional occupation numbers. Thus, it is a degenerate system
  within the approximate finite broadening function (occupation_type)
  applied to determine the occupation numbers.
  This may not be harmful. However, for some systems (free atoms), a different, non-degenerate
  ground state might exist by using a smaller broadening (see keyword occupation_type).

  Total energy components:
  | Sum of eigenvalues            :        -134.76579652 Ha       -3667.16390651 eV
  | XC energy correction          :         -17.96004003 Ha        -488.71755482 eV
  | XC potential correction       :          23.41469675 Ha         637.14631613 eV
  | Free-atom electrostatic energy:        -113.24346790 Ha       -3081.51154718 eV
  | Hartree energy correction     :           0.12246211 Ha           3.33236358 eV
  | Entropy correction            :          -0.00019478 Ha          -0.00530014 eV
  | ---------------------------
  | Total energy                  :        -242.43214559 Ha       -6596.91432881 eV
  | Total energy, T -> 0          :        -242.43234037 Ha       -6596.91962895 eV  <-- do not rely on this value for anything but (periodic) metals
  | Electronic free energy        :        -242.43253514 Ha       -6596.92492909 eV

  Derived energy quantities:
  | Kinetic energy                :         243.30186441 Ha        6620.58058206 eV
  | Electrostatic energy          :        -467.77396997 Ha      -12728.77735606 eV
  | Energy correction for multipole
  | error in Hartree potential    :           0.00000000 Ha           0.00000000 eV
  | Sum of eigenvalues per atom                           :       -3667.16390651 eV
  | Total energy (T->0) per atom                          :       -6596.91962895 eV  <-- do not rely on this value for anything but (periodic) metals
  | Electronic free energy per atom                       :       -6596.92492909 eV
  Evaluating new KS density and force components.
  Integration grid: deviation in total charge (<rho> - N_e) =  -2.131628E-14

  atomic forces [eV/Ang]:
  -----------------------
  atom #    1
   Hellmann-Feynman              :  0.194446E-13  0.362029E-11 -0.181977E-11
   Ionic forces                  :  0.000000E+00  0.000000E+00  0.000000E+00
   Multipole                     :  0.333271E-12  0.530494E-12  0.153547E-12
   Hartree pot. SCF incomplete   : -0.245795E-13 -0.109708E-11  0.236078E-12
   Pulay + GGA                   :  0.799259E-13 -0.733035E-11  0.174809E-10
   ----------------------------------------------------------------
   Total forces(   1)            :  0.408062E-12 -0.427664E-11  0.160508E-10


  Self-consistency convergence accuracy:
  | Change of charge density      :  0.7011E-07
  | Change of sum of eigenvalues  : -0.3218E-05 eV
  | Change of total energy        : -0.1518E-08 eV
  | Change of forces              :  0.1666E-10 eV/A

  Writing Kohn-Sham eigenvalues.

  State    Occupation    Eigenvalue [Ha]    Eigenvalue [eV]
      1       2.00000         -55.492912        -1510.03896
      2       2.00000          -3.949324         -107.46658
      3       2.00000          -2.541002          -69.14419
      4       2.00000          -2.541002          -69.14419
      5       2.00000          -2.541002          -69.14419
      6       2.00000          -0.273995           -7.45579
      7       0.33334          -0.087320           -2.37609
      8       0.33333          -0.087320           -2.37609
      9       0.33333          -0.087320           -2.37609
     10       0.00000           0.155760            4.23845

  Highest occupied state (VBM) at     -7.45579230 eV
  | Occupation number:      2.00000000

  Lowest unoccupied state (CBM) at    -2.37609113 eV
  | Occupation number:      0.33333541

  Overall HOMO-LUMO gap:      5.07970117 eV.
  This system has fractional occupation numbers. Thus, it is a degenerate system
  within the approximate finite broadening function (occupation_type)
  applied to determine the occupation numbers.
  This may not be harmful. However, for some systems (free atoms), a different, non-degenerate
  ground state might exist by using a smaller broadening (see keyword occupation_type).
  | Chemical Potential                          :    -2.38293180 eV

  Self-consistency cycle converged.


------------------------------------------------------------
  End self-consistency iteration #     6       :  max(cpu_time)    wall_clock(cpu1)
  | Time for this iteration                     :        0.010 s           0.007 s
  | Charge density & force component update     :        0.001 s           0.002 s
  | Density mixing                              :        0.004 s           0.001 s
  | Hartree multipole update                    :        0.000 s           0.000 s
  | Hartree multipole summation                 :        0.001 s           0.002 s
  | Hartree pot. SCF incomplete forces          :        0.001 s           0.001 s
  | Integration                                 :        0.001 s           0.001 s
  | Solution of K.-S. eqns.                     :        0.001 s           0.000 s
  | Total energy evaluation                     :        0.000 s           0.000 s

  Partial memory accounting:
  | Current value for overall tracked memory usage:
  |   Minimum:        0.004 MB (on task 13)
  |   Maximum:        0.005 MB (on task  0)
  |   Average:        0.004 MB
  | Peak value for overall tracked memory usage:
  |   Minimum:        0.157 MB (on task 13 after allocating hessian_basis_wave)
  |   Maximum:        0.157 MB (on task  0 after allocating hessian_basis_wave)
  |   Average:        0.157 MB
  | Largest tracked array allocation so far:
  |   Minimum:        0.083 MB (hessian_basis_wave on task  0)
  |   Maximum:        0.083 MB (hessian_basis_wave on task  0)
  |   Average:        0.083 MB
  Note:  These values currently only include a subset of arrays which are explicitly tracked.
  The "true" memory usage will be greater.
------------------------------------------------------------
  Removing unitary transformations (pure translations, rotations) from forces on atoms.
  Atomic forces before filtering:
  | Net force on center of mass :   0.408062E-12 -0.427664E-11  0.160508E-10 eV/A
  | Net torque on center of mass:   0.000000E+00  0.000000E+00  0.000000E+00 eV
  Atomic forces after filtering:
  | Net force on center of mass :   0.000000E+00  0.000000E+00  0.000000E+00 eV/A
  | Net torque on center of mass:   0.000000E+00  0.000000E+00  0.000000E+00 eV

  Energy and forces in a compact form:
  | Total energy uncorrected      :         -0.659691432881340E+04 eV
  | Total energy corrected        :         -0.659691962895223E+04 eV  <-- do not rely on this value for anything but (periodic) metals
  | Electronic free energy        :         -0.659692492909106E+04 eV
  Total atomic forces (unitary forces cleaned) [eV/Ang]:
  |    1          0.000000000000000E+00          0.000000000000000E+00          0.000000000000000E+00

  ------------------------------------ 
  Start decomposition of the XC Energy 
  ------------------------------------ 
  X and C from original XC functional choice 
  Hartree-Fock Energy :          0.000000000 Ha              0.000000000 eV
  X Energy            :        -17.430065492 Ha           -474.296213965 eV
  C Energy            :         -0.529974535 Ha            -14.421340858 eV
  Total XC Energy     :        -17.960040027 Ha           -488.717554823 eV
  ------------------------------------ 
  LDA X and C from self-consistent density 
  X Energy LDA        :        -16.558533266 Ha           -450.580615468 eV
  C Energy LDA        :         -0.967899897 Ha            -26.337896255 eV
  ------------------------------------ 
  End decomposition of the XC Energy 
  ------------------------------------ 

------------------------------------------------------------

------------------------------------------------------------------------------
  Final output of selected total energy values:

  The following output summarizes some interesting total energy values
  at the end of a run (AFTER all relaxation, molecular dynamics, etc.).

  | Total energy of the DFT / Hartree-Fock s.c.f. calculation      :          -6596.914328813 eV
  | Final zero-broadening corrected energy (caution - metals only) :          -6596.919628952 eV
  | For reference only, the value of 1 Hartree used in FHI-aims is :             27.211384500 eV

  Before relying on these values, please be sure to understand exactly which
  total energy value is referred to by a given number. Different objects may
  all carry the same name 'total energy'. Definitions:

  Total energy of the DFT / Hartree-Fock s.c.f. calculation:
  | Note that this energy does not include ANY quantities calculated after the
  | s.c.f. cycle, in particular not ANY RPA, MP2, etc. many-body perturbation terms.

  Final zero-broadening corrected energy:
  | For metallic systems only, a broadening of the occupation numbers at the Fermi
  | level can be extrapolated back to zero broadening by an electron-gas inspired
  | formula. For all systems that are not real metals, this value can be
  | meaningless and should be avoided.

------------------------------------------------------------------------------
  Methods described in the following list of references were used in this FHI-aims run.
  If you publish the results, please make sure to cite these reference if they apply.
  FHI-aims is an academic code, and for our developers (often, Ph.D. students
  and postdocs), scientific credit in the community is essential.
  Thank you for helping us!

  For any use of FHI-aims, please cite:

    Volker Blum, Ralf Gehrke, Felix Hanke, Paula Havu, Ville Havu,
    Xinguo Ren, Karsten Reuter, and Matthias Scheffler
    'Ab initio molecular simulations with numeric atom-centered orbitals'
    Computer Physics Communications 180, 2175-2196 (2009)
    http://dx.doi.org/10.1016/j.cpc.2009.06.022


  The ELSI infrastructure was used in your run to solve the Kohn-Sham electronic structure.
  Please check out http://elsi-interchange.org to learn more.
  If scalability is important for your project, please acknowledge ELSI by citing:

    V. W-z. Yu, F. Corsetti, A. Garcia, W. P. Huhn, M. Jacquelin, W. Jia,
    B. Lange, L. Lin, J. Lu, W. Mi, A. Seifitokaldani, A. Vazquez-Mayagoitia,
    C. Yang, H. Yang, and V. Blum
    'ELSI: A unified software interface for Kohn-Sham electronic structure solvers'
    Computer Physics Communications 222, 267-285 (2018).
    http://dx.doi.org/10.1016/j.cpc.2017.09.007


  For the real-space grid partitioning and parallelization used in this calculation, please cite:

    Ville Havu, Volker Blum, Paula Havu, and Matthias Scheffler,
    'Efficient O(N) integration for all-electron electronic structure calculation'
    'using numerically tabulated basis functions'
    Journal of Computational Physics 228, 8367-8379 (2009).
    http://dx.doi.org/10.1016/j.jcp.2009.08.008

  Of course, there are many other important community references, e.g., those cited in the
  above references. Our list is limited to references that describe implementations in the
  FHI-aims code. The reason is purely practical (length of this list) - please credit others as well.

------------------------------------------------------------
          Leaving FHI-aims.
          Date     :  20220516, Time     :  172431.945

          Computational steps:
          | Number of self-consistency cycles          :            6
          | Number of SCF (re)initializations          :            1

          Detailed time accounting                     :  max(cpu_time)    wall_clock(cpu1)
          | Total time                                  :        0.401 s           0.438 s
          | Preparation time                            :        0.184 s           0.184 s
          | Boundary condition initalization            :        0.000 s           0.000 s
          | Grid partitioning                           :        0.003 s           0.003 s
          | Preloading free-atom quantities on grid     :        0.002 s           0.002 s
          | Free-atom superposition energy              :        0.000 s           0.000 s
          | Total time for integrations                 :        0.008 s           0.007 s
          | Total time for solution of K.-S. equations  :        0.024 s           0.027 s
          | Total time for density & force components   :        0.005 s           0.007 s
          | Total time for mixing                       :        0.023 s           0.007 s
          | Total time for Hartree multipole update     :        0.004 s           0.003 s
          | Total time for Hartree multipole sum        :        0.008 s           0.009 s
          | Total time for total energy evaluation      :        0.001 s           0.000 s
          | Total time NSC force correction             :        0.001 s           0.001 s
          | Total time for scaled ZORA corrections      :        0.000 s           0.000 s

          Partial memory accounting:
          | Residual value for overall tracked memory usage across tasks:     0.000000 MB (should be 0.000000 MB)
          | Peak values for overall tracked memory usage:
          |   Minimum:        0.157 MB (on task 13 after allocating hessian_basis_wave)
          |   Maximum:        0.157 MB (on task  0 after allocating hessian_basis_wave)
          |   Average:        0.157 MB
          | Largest tracked array allocation:
          |   Minimum:        0.083 MB (hessian_basis_wave on task  0)
          |   Maximum:        0.083 MB (hessian_basis_wave on task  0)
          |   Average:        0.083 MB
          Note:  These values currently only include a subset of arrays which are explicitly tracked.
          The "true" memory usage will be greater.

          Have a nice day.
------------------------------------------------------------
