********************************************************************************
*                       GENERAL UTILITY LATTICE PROGRAM                        *
*                                 Julian Gale                                  *
*                       Curtin Institute for Computation                       *
*                           Department of Chemistry                            *
*                    Curtin University, Western Australia                      *
********************************************************************************
* Version = 5.1.1 * Last modified =  24th November 2018                        *
********************************************************************************
*  optimise     - perform optimisation run                                     *
*  conp         - constant pressure calculation                                *
*  property     - calculate properties for final geometry                      *
*  phonon       - calculate phonons for final geometry                         *
*  eigenvectors - output phonon eigenvectors                                   *
*  conjugate    - use conjugate gradients minimiser                            *
********************************************************************************

  Job Started  at 10:12.16 23rd May        2022                               

  Number of CPUs =     1

  Host name      = login03                                 


  Total number of configurations input =      1

********************************************************************************
*  Input for Configuration =   1                                               *
********************************************************************************

  Formula = Al                                                          

  Number of irreducible atoms/shells =       1


  Total number atoms/shells =       1

  Dimensionality = 0               :  Cluster


  Charge on cluster =   3.000000


  Initial cluster dipoles : x =      0.000000 e.Angs
                            y =      0.000000 e.Angs
                            z =      0.000000 e.Angs

  Temperature of configuration =  0.000     K 

  Symmetry number =      1

  Cartesian coordinates of cluster :

--------------------------------------------------------------------------------
   No.  Atomic       x           y          z         Charge      Occupancy
        Label      (Angs)      (Angs)     (Angs)        (e)         (Frac)  
--------------------------------------------------------------------------------
      1 Al    c      0.0000      0.0000      0.0000     3.00000    1.000000    
--------------------------------------------------------------------------------


  Brillouin zone sampling points :

--------------------------------------------------------------------------------
  Point number          x          y          z            Weight
--------------------------------------------------------------------------------
        1           0.000000   0.000000   0.000000     1.00000000
--------------------------------------------------------------------------------


********************************************************************************
*  General input information                                                   *
********************************************************************************

  Species output for all configurations : 

--------------------------------------------------------------------------------
  Species    Type    Atomic    Atomic    Charge       Radii (Angs)     Library
                     Number     Mass       (e)     Cova   Ionic  VDW   Symbol
--------------------------------------------------------------------------------
    Al       Core       13      26.98   3.000000   1.350  0.000  2.050          
    F        Core        9      19.00   0.590000   0.710  0.000  0.000          
    F        Shell       9       0.00  -1.590000   0.710  0.000  0.000          
--------------------------------------------------------------------------------


  Accuracy factor for short range sums = 12.000

  Time limit = Infinity

  Maximum range for interatomic potentials =    100000.000000 Angstroms

  General interatomic potentials :

--------------------------------------------------------------------------------
Atom  Types   Potential      Parameter       Value         Units   Cutoffs(Ang)
  1     2                                                            Min /  Max 
--------------------------------------------------------------------------------
Al   c F    s Buckingham    Buckingham A     3760.0008    eV        0.000 10.000
                            Buckingham rho  0.22200000    Ang       
                            Buckingham C     0.0000000    eV*Ang^6  
--------------------------------------------------------------------------------
F    s F    s Buck 4 range  Buck4 A          1127.7000    eV        0.000 12.000
                            Buck4 rho       0.27530000    Ang       
                            Buck4 C          15.830000    eV*Ang^6  
                            Buck4 minimum    2.7900000    Ang       
--------------------------------------------------------------------------------
F    c F    s Spring (c-s)  Spring k 2       20.770000    eV*Ang^-2 0.000  0.800
                            Spring k 4       0.0000000    eV*Ang^-4 
--------------------------------------------------------------------------------

********************************************************************************
*  Output for configuration   1                                                *
********************************************************************************



!!!!!!!!!!!!!!!!!!!!!!!!!!!!!!!!!!!!!!!!!!!!!!!!!!!!!!!!!!!!!!!!!!!!!!!!!!!!!!!!
!! WARNING : No variables to optimise - single point performed
!!!!!!!!!!!!!!!!!!!!!!!!!!!!!!!!!!!!!!!!!!!!!!!!!!!!!!!!!!!!!!!!!!!!!!!!!!!!!!!!


  Components of energy : 

--------------------------------------------------------------------------------
  Interatomic potentials     =           0.00000000 eV    
  Monopole - monopole (real) =           0.00000000 eV    
--------------------------------------------------------------------------------
  Total lattice energy       =           0.00000000 eV    
--------------------------------------------------------------------------------
  Total lattice energy       =               0.0000 kJ/mol
--------------------------------------------------------------------------------

  Born effective charge tensors : 

-------------------------------------------------------------------------------
  Atom             x           y             z
-------------------------------------------------------------------------------
    1 Al    x       3.0000      0.0000      0.0000
            y       0.0000      3.0000      0.0000
            z       0.0000      0.0000      3.0000
-------------------------------------------------------------------------------



  Vibrational Frequency Calculation : 

--------------------------------------------------------------------------------

  Frequencies (cm-1) and Eigenvectors : 

  Frequency       0.0000    0.0000    0.0000
  IR Intensity    0.3336    0.3336    0.3336
     in X         0.3336    0.0000    0.0000
     in Y         0.0000    0.3336    0.0000
     in Z         0.0000    0.0000    0.3336
  Raman Intsty    0.0000    0.0000    0.0000

     1 x       1.000000 -0.000000  0.000000
     1 y       0.000000  1.000000  0.000000
     1 z       0.000000  0.000000  1.000000


--------------------------------------------------------------------------------
  Vibrational properties (for cluster):  Temperature  =       0.000 K
--------------------------------------------------------------------------------
  Zero point energy            =        0.000000 eV
--------------------------------------------------------------------------------

  Phonon density of states : 

--------------------------------------------------------------------------------
 Frequency (cm-1) Density of States                                             
--------------------------------------------------------------------------------
    0.00000 |                                                              0.000
    0.00000 |                                                              0.000
    0.00000 |                                                              0.000
    0.00000 |                                                              0.000
    0.00000 |                                                              0.000
    0.00000 |                                                              0.000
    0.00001 |                                                              0.000
    0.00001 |                                                              0.000
    0.00001 |                                                              0.000
    0.00001 |                                                              0.000
    0.00001 |                                                              0.000
    0.00001 |                                                              0.000
    0.00001 |                                                              0.000
    0.00001 |                                                              0.000
    0.00001 |                                                              0.000
    0.00001 |                                                              0.000
    0.00002 |                                                              0.000
    0.00002 |                                                              0.000
    0.00002 |                                                              0.000
    0.00002 |                                                              0.000
    0.00002 |                                                              0.000
    0.00002 |                                                              0.000
    0.00002 |                                                              0.000
    0.00002 |                                                              0.000
    0.00002 |                                                              0.000
    0.00002 |                                                              0.000
    0.00003 |                                                              0.000
    0.00003 |                                                              0.000
    0.00003 |                                                              0.000
    0.00003 |                                                              0.000
    0.00003 |                                                              0.000
    0.00003 |                                                              0.000
    0.00003 |                                                              0.000
    0.00003 |                                                              0.000
    0.00003 |                                                              0.000
    0.00003 |                                                              0.000
    0.00004 |                                                              0.000
    0.00004 |                                                              0.000
    0.00004 |                                                              0.000
    0.00004 |                                                              0.000
    0.00004 |                                                              0.000
    0.00004 |                                                              0.000
    0.00004 |                                                              0.000
    0.00004 |                                                              0.000
    0.00004 |                                                              0.000
    0.00004 |                                                              0.000
    0.00005 |                                                              0.000
    0.00005 |                                                              0.000
    0.00005 |                                                              0.000
    0.00005 |                                                              0.000
    0.00005 |                                                              0.000
    0.00005 |                                                              0.000
    0.00005 |                                                              0.000
    0.00005 |                                                              0.000
    0.00005 |                                                              0.000
    0.00005 |                                                              0.000
    0.00006 |                                                              0.000
    0.00006 |                                                              0.000
    0.00006 |                                                              0.000
    0.00006 |                                                              0.000
    0.00006 |                                                              0.000
    0.00006 |                                                              0.000
    0.00006 |                                                              0.000
    0.00006 |                                                              0.000
--------------------------------------------------------------------------------



  XYZ File written as Al_atom.xyz


  Time to end of properties =       0.0118 seconds


  Peak dynamic memory used =       0.51 MB 


  Timing analysis for GULP :

--------------------------------------------------------------------------------
  Task / Subroutine                                          Time (Seconds)
--------------------------------------------------------------------------------
  Calculation of phonons                                          0.0011
--------------------------------------------------------------------------------
  Total CPU time                                                  0.0119
--------------------------------------------------------------------------------



  **** GULP has completed with 1 warning - beware! ****

  Job Finished at 10:12.16 23rd May        2022                               

