********************************************************************************
*                       GENERAL UTILITY LATTICE PROGRAM                        *
*                                 Julian Gale                                  *
*                       Curtin Institute for Computation                       *
*                           Department of Chemistry                            *
*                    Curtin University, Western Australia                      *
********************************************************************************
* Version = 5.1.1 * Last modified =  11th January 2019                         *
********************************************************************************
*  single       - perform a single point run                                   *
*  phonon       - calculate phonons for final geometry                         *
*  eigenvectors - output phonon eigenvectors                                   *
********************************************************************************

  Job Started  at 10:29.41 17th May        2022                               

  Number of CPUs =     1

  Host name      = login04                                 


  Total number of configurations input =      1

********************************************************************************
*  Input for Configuration =   1                                               *
********************************************************************************

  Formula = Al3F9                                                       

  Number of irreducible atoms/shells =      21


  Total number atoms/shells =      21

  Dimensionality = 0               :  Cluster


  Charge on cluster =  -0.000000


  Initial cluster dipoles : x =      0.783712 e.Angs
                            y =     -1.374483 e.Angs
                            z =     -0.490297 e.Angs

  Temperature of configuration =  0.000     K 

  Symmetry number =      1

  Cartesian coordinates of cluster :

--------------------------------------------------------------------------------
   No.  Atomic       x           y          z         Charge      Occupancy
        Label      (Angs)      (Angs)     (Angs)        (e)         (Frac)  
--------------------------------------------------------------------------------
      1 Al    c      1.4857     -0.1878      2.3365     3.00000    1.000000    
      2 Al    c      1.1099      1.3839      0.0052     3.00000    1.000000    
      3 Al    c     -0.1161      0.5990     -2.4296     3.00000    1.000000    
      4 F     c     -1.7938     -0.2262     -2.1536     0.59000    1.000000    
      5 F     c      2.0794     -0.3172      0.5420     0.59000    1.000000    
      6 F     c     -0.0661      1.9556     -3.7366     0.59000    1.000000    
      7 F     c     -0.4344      1.8815     -0.9657     0.59000    1.000000    
      8 F     c      2.6465      2.3526     -0.3513     0.59000    1.000000    
      9 F     c      1.4053      0.0139     -1.4638     0.59000    1.000000    
     10 F     c      0.4923      1.4262      1.7917     0.59000    1.000000    
     11 F     c      2.4282      0.7303      3.6855     0.59000    1.000000    
     12 F     c     -0.1027     -1.0569      2.8784     0.59000    1.000000    
     13 F     s     -1.7938     -0.2262     -2.1536    -1.59000    1.000000    
     14 F     s      2.0794     -0.3172      0.5420    -1.59000    1.000000    
     15 F     s     -0.0661      1.9556     -3.7366    -1.59000    1.000000    
     16 F     s     -0.4344      1.8815     -0.9657    -1.59000    1.000000    
     17 F     s      2.6465      2.3526     -0.3513    -1.59000    1.000000    
     18 F     s      1.4053      0.0139     -1.4638    -1.59000    1.000000    
     19 F     s      0.4923      1.4262      1.7917    -1.59000    1.000000    
     20 F     s      2.4282      0.7303      3.6855    -1.59000    1.000000    
     21 F     s     -0.1027     -1.0569      2.8784    -1.59000    1.000000    
--------------------------------------------------------------------------------


  Brillouin zone sampling points :

--------------------------------------------------------------------------------
  Point number          x          y          z            Weight
--------------------------------------------------------------------------------
        1           0.000000   0.000000   0.000000     1.00000000
--------------------------------------------------------------------------------


********************************************************************************
*  General input information                                                   *
********************************************************************************

  Species output for all configurations : 

--------------------------------------------------------------------------------
  Species    Type    Atomic    Atomic    Charge       Radii (Angs)     Library
                     Number     Mass       (e)     Cova   Ionic  VDW   Symbol
--------------------------------------------------------------------------------
    Al       Core       13      26.98   3.000000   1.350  0.000  2.050          
    F        Core        9      19.00   0.590000   0.710  0.000  1.300          
    F        Shell       9       0.00  -1.590000   0.710  0.000  1.300          
--------------------------------------------------------------------------------


  Accuracy factor for short range sums = 12.000

  Time limit = Infinity

  Maximum range for interatomic potentials =    100000.000000 Angstroms

  General interatomic potentials :

--------------------------------------------------------------------------------
Atom  Types   Potential      Parameter       Value         Units   Cutoffs(Ang)
  1     2                                                            Min /  Max 
--------------------------------------------------------------------------------
Al   c F    s Buckingham    Buckingham A     3760.0008    eV        0.000 10.000
                            Buckingham rho  0.22200000    Ang       
                            Buckingham C     0.0000000    eV*Ang^6  
--------------------------------------------------------------------------------
F    s F    s Buck 4 range  Buck4 A          1127.7000    eV        0.000 12.000
                            Buck4 rho       0.27530000    Ang       
                            Buck4 C          15.830000    eV*Ang^6  
                            Buck4 minimum    2.7900000    Ang       
--------------------------------------------------------------------------------
F    c F    s Spring (c-s)  Spring k 2       20.770000    eV*Ang^-2 0.000  0.800
                            Spring k 4       0.0000000    eV*Ang^-4 
--------------------------------------------------------------------------------

********************************************************************************
*  Output for configuration   1                                                *
********************************************************************************


  Components of energy : 

--------------------------------------------------------------------------------
  Interatomic potentials     =           8.89100415 eV    
  Monopole - monopole (real) =        -173.34606618 eV    
--------------------------------------------------------------------------------
  Total lattice energy       =        -164.45506204 eV    
--------------------------------------------------------------------------------
  Total lattice energy       =          -15867.3996 kJ/mol
--------------------------------------------------------------------------------

  Born effective charge tensors : 

-------------------------------------------------------------------------------
  Atom             x           y             z
-------------------------------------------------------------------------------
    1 Al    x       2.3608      0.3856      0.1667
            y       0.3770      2.1882     -0.1121
            z      -0.0174     -0.0326      2.8536
-------------------------------------------------------------------------------
    2 Al    x       2.3286     -0.0792      0.1049
            y       0.0019      2.1565     -0.0870
            z       0.1183     -0.0597      2.6301
-------------------------------------------------------------------------------
    3 Al    x       2.5276      0.2527      0.1890
            y       0.2398      2.2806     -0.2875
            z       0.3696     -0.3742      2.5943
-------------------------------------------------------------------------------
    4 F     x      -1.3247     -0.3594      0.0646
            y      -0.4329     -0.6857      0.0545
            z      -0.0731     -0.0296     -0.5800
-------------------------------------------------------------------------------
    5 F     x      -0.5721      0.3003     -0.0682
            y       0.2639     -0.7855      0.0991
            z      -0.0134      0.2827     -0.9883
-------------------------------------------------------------------------------
    6 F     x      -0.5207     -0.0092     -0.0466
            y       0.0069     -0.9731      0.4329
            z      -0.0507      0.5908     -1.1451
-------------------------------------------------------------------------------
    7 F     x      -0.6956      0.1250     -0.2353
            y       0.1790     -0.6125     -0.1493
            z      -0.1846     -0.2119     -0.8728
-------------------------------------------------------------------------------
    8 F     x      -1.0584     -0.3548      0.1005
            y      -0.4491     -0.7514      0.1235
            z       0.0850      0.0918     -0.5984
-------------------------------------------------------------------------------
    9 F     x      -0.6581      0.1121     -0.1554
            y       0.2088     -0.6452     -0.1477
            z      -0.2002     -0.3111     -1.0426
-------------------------------------------------------------------------------
   10 F     x      -0.5134      0.2058      0.0676
            y       0.2243     -0.7184      0.1028
            z       0.0288      0.1898     -0.9490
-------------------------------------------------------------------------------
   11 F     x      -0.7548     -0.2696     -0.4149
            y      -0.1656     -0.7039     -0.2417
            z      -0.3910     -0.3593     -1.1801
-------------------------------------------------------------------------------
   12 F     x      -1.1191     -0.3091      0.2270
            y      -0.4540     -0.7497      0.2125
            z       0.3287      0.2233     -0.7216
-------------------------------------------------------------------------------




  Moment of inertia tensor (10^-46 x kgm^2): 

-------------------------------------------------------------------------------
                x           y           z           Principal axis system
-------------------------------------------------------------------------------
       x        242.26       -6.85      -55.10           81.660602
       y         -6.85      262.69       32.19          247.222626
       z        -55.10       32.19      105.49          281.566868
-------------------------------------------------------------------------------
  Centre of mass (Ang) =     0.767382     0.702014     0.007673
-------------------------------------------------------------------------------


  Vibrational Frequency Calculation : 

--------------------------------------------------------------------------------

  Frequencies (cm-1) and Eigenvectors : 

  Frequency    -364.5968 -287.1523  -79.0483  -23.7900  -17.6945   -0.0000
  IR Intensity    0.0040    0.0415    0.0059    0.1769    0.0049    0.0000
     in X         0.0012    0.0041    0.0006    0.0175    0.0039    0.0000
     in Y         0.0024    0.0010    0.0001    0.0042    0.0008    0.0000
     in Z         0.0004    0.0364    0.0051    0.1552    0.0003    0.0000
  Raman Intsty    1.0818    0.0000    0.0000    0.0000    0.4696    0.0000

     1 x      -0.227509  0.324181 -0.316432  0.188821 -0.299691  0.311811
     1 y       0.244865 -0.336924 -0.343607 -0.179023 -0.136042 -0.081485
     1 z       0.214309 -0.225654  0.005072 -0.014649 -0.213896  0.056775
     2 x       0.508218 -0.005635  0.055387  0.074075  0.371022  0.311811
     2 y      -0.554879  0.002768 -0.027205 -0.036358  0.340935 -0.081485
     2 z      -0.262401 -0.016763  0.164802  0.220347 -0.068420  0.056775
     3 x      -0.284941 -0.360188  0.290170 -0.142644 -0.127454  0.311811
     3 y       0.273079  0.354612  0.356502  0.156303 -0.220666 -0.081485
     3 z       0.043417  0.118507 -0.083202  0.152140  0.298546  0.056775
     4 x      -0.063582 -0.060957  0.101179 -0.372623 -0.026586  0.261666
     4 y      -0.007994  0.033843  0.194330  0.049996 -0.136618 -0.068380
     4 z      -0.008637  0.002442 -0.041320  0.087742  0.235928  0.047644
     5 x      -0.001504  0.237148 -0.269872 -0.121791  0.087025  0.261666
     5 y       0.056818 -0.357850 -0.154025  0.328240  0.061956 -0.068380
     5 z       0.043417  0.103280  0.034753 -0.009238 -0.051386  0.047644
     6 x      -0.025460 -0.049219  0.176444 -0.168979 -0.102017  0.261666
     6 y       0.042979  0.055790  0.226838  0.218550 -0.094671 -0.068380
     6 z      -0.038819 -0.006119 -0.071454 -0.023631  0.177466  0.047644
     7 x       0.019392 -0.123160  0.144512  0.086424  0.095937  0.261666
     7 y      -0.054859  0.080339  0.069156 -0.193137 -0.001304 -0.068380
     7 z      -0.056904 -0.056200 -0.028138 -0.084541  0.100830  0.047644
     8 x       0.093733  0.004996  0.030437  0.027807  0.258419  0.261666
     8 y      -0.003537 -0.002455 -0.014950 -0.013639  0.212547 -0.068380
     8 z      -0.032084  0.014867  0.090562  0.082691 -0.051764  0.047644
     9 x      -0.021270 -0.094458  0.251885  0.060285  0.106093  0.261666
     9 y       0.066529  0.287755  0.162862 -0.298013  0.052617 -0.068380
     9 z      -0.015399  0.321306 -0.088277 -0.173813  0.005413  0.047644
    10 x       0.043756  0.057813 -0.139201 -0.100341  0.017380  0.261666
    10 y      -0.066828 -0.048238 -0.071765  0.199981  0.037270 -0.068380
    10 z       0.015592 -0.138246  0.043942  0.043109 -0.132972  0.047644
    11 x       0.006650  0.030432 -0.205689  0.100278 -0.195644  0.261666
    11 y       0.027205 -0.046561 -0.212472 -0.184821 -0.048654 -0.068380
    11 z       0.056727 -0.049784 -0.015557 -0.180733 -0.101075  0.047644
    12 x      -0.046672  0.047026 -0.124402  0.345644 -0.173729  0.261666
    12 y      -0.016300 -0.027001 -0.182921 -0.036758 -0.064347 -0.068380
    12 z       0.041679 -0.043892 -0.027794 -0.167997 -0.201782  0.047644


  Frequency      -0.0000   -0.0000  130.7674  135.8143  137.8099  151.1046
  IR Intensity    0.0000    0.0000    0.0091    0.0161    0.1020    0.0000
     in X         0.0000    0.0000    0.0009    0.0016    0.0532    0.0000
     in Y         0.0000    0.0000    0.0002    0.0004    0.0471    0.0000
     in Z         0.0000    0.0000    0.0080    0.0141    0.0017    0.0000
  Raman Intsty    0.0000    0.0000    0.0000    0.0000    0.0049    0.0000

     1 x       0.098558  0.012223  0.127390 -0.002862  0.052159 -0.004134
     1 y       0.230865  0.217142  0.083921 -0.032444  0.050006 -0.007892
     1 z      -0.209944  0.244518  0.004564  0.015566 -0.011469  0.008681
     2 x       0.098558  0.012223  0.000196  0.009316  0.029895  0.001232
     2 y       0.230865  0.217142 -0.000091 -0.004564  0.018070 -0.000605
     2 z      -0.209944  0.244518  0.000570  0.027686 -0.007074  0.003666
     3 x       0.098558  0.012223 -0.107616  0.014671  0.053461  0.009200
     3 y       0.230865  0.217142 -0.093615  0.026703  0.049367  0.005404
     3 z      -0.209944  0.244518  0.054232  0.019439 -0.007640  0.006393
     4 x       0.082708  0.010257  0.299790  0.322717 -0.435140 -0.015093
     4 y       0.193738  0.182221 -0.222806  0.026638  0.215017  0.045692
     4 z      -0.176181  0.205195  0.042561 -0.028636  0.006921  0.409680
     5 x       0.082708  0.010257 -0.277559  0.359398  0.013311 -0.012555
     5 y       0.193738  0.182221 -0.158741  0.286177 -0.000618  0.001738
     5 z      -0.176181  0.205195 -0.068042  0.088440 -0.013590  0.004082
     6 x       0.082708  0.010257 -0.385722 -0.085638  0.383053 -0.099183
     6 y       0.193738  0.182221  0.190109  0.319750 -0.291994 -0.265344
     6 z      -0.176181  0.205195 -0.076056 -0.067079  0.152288 -0.249407
     7 x       0.082708  0.010257 -0.018240  0.128174 -0.002147  0.223897
     7 y       0.193738  0.182221 -0.051396  0.154961 -0.036702  0.279774
     7 z      -0.176181  0.205195  0.008830 -0.052636  0.028100 -0.237043
     8 x       0.082708  0.010257  0.082883 -0.056662  0.025349  0.022134
     8 y       0.193738  0.182221 -0.040709  0.027855  0.036342 -0.010873
     8 z      -0.176181  0.205195  0.246616 -0.168630 -0.002473  0.065861
     9 x       0.082708  0.010257  0.197918 -0.263898  0.018777  0.012303
     9 y       0.193738  0.182221  0.197871 -0.333081 -0.003028 -0.001615
     9 z      -0.176181  0.205195 -0.168960  0.195681  0.002114 -0.004826
    10 x       0.082708  0.010257  0.024831 -0.148906 -0.021751 -0.346500
    10 y       0.193738  0.182221  0.048153 -0.144803 -0.026919 -0.219541
    10 z      -0.176181  0.205195  0.010783 -0.009031 -0.030545 -0.127781
    11 x       0.082708  0.010257  0.246004 -0.001857  0.188918 -0.041662
    11 y       0.193738  0.182221 -0.121503 -0.276851 -0.196434  0.334525
    11 z      -0.176181  0.205195 -0.339875 -0.193971 -0.424989 -0.169703
    12 x       0.082708  0.010257 -0.193702 -0.278502 -0.331853  0.249153
    12 y       0.193738  0.182221  0.170683 -0.048365  0.164386 -0.160670
    12 z      -0.176181  0.205195  0.273401  0.161157  0.313374  0.286807


  Frequency     152.8395  155.1750  156.0330  169.6121  173.2671  179.8070
  IR Intensity    0.0008    0.0008    0.0013    0.0005    0.0493    0.0149
     in X         0.0005    0.0001    0.0005    0.0004    0.0049    0.0110
     in Y         0.0003    0.0000    0.0007    0.0001    0.0012    0.0032
     in Z         0.0000    0.0007    0.0000    0.0000    0.0432    0.0007
  Raman Intsty    0.3053    0.0000    0.3136    1.1266    0.0000    0.1276

     1 x      -0.016930 -0.006408  0.000124 -0.007817 -0.002827 -0.047066
     1 y       0.043502 -0.053053 -0.053400 -0.087653  0.079478  0.013418
     1 z      -0.079024  0.032656  0.051733 -0.012813 -0.052071  0.057234
     2 x      -0.005382 -0.023002  0.072462  0.111670 -0.031393 -0.038228
     2 y      -0.055777  0.011294  0.109162  0.172588  0.015414  0.048088
     2 z      -0.007400 -0.068436 -0.006334 -0.009039 -0.093407  0.020781
     3 x       0.037242  0.029555 -0.035591 -0.007249 -0.036157 -0.070175
     3 y       0.016892  0.041687 -0.035851 -0.087936 -0.060320  0.024763
     3 z       0.082169  0.036215 -0.054545 -0.011117 -0.063947 -0.011533
     4 x       0.080346  0.015246 -0.057939 -0.245016 -0.049487  0.151000
     4 y      -0.091290  0.054445 -0.131614  0.206404  0.429179 -0.100235
     4 z      -0.083227  0.305690 -0.394549 -0.361823 -0.014983 -0.248115
     5 x       0.007696 -0.139894  0.199403 -0.001423  0.036039 -0.158231
     5 y      -0.037788 -0.075346  0.177416 -0.173877  0.014098  0.260822
     5 z      -0.028852 -0.072303  0.027377 -0.029590 -0.236151  0.067978
     6 x       0.225373 -0.100014 -0.053602 -0.267366 -0.220743  0.056970
     6 y       0.359581  0.089567 -0.075899  0.176683  0.023195 -0.238195
     6 z       0.384702  0.161130 -0.080720  0.044289  0.201132  0.030726
     7 x      -0.167304 -0.066462 -0.121930  0.152726  0.006526 -0.184042
     7 y      -0.251003 -0.010760 -0.190162 -0.021914  0.239115  0.176945
     7 z       0.199731  0.127248  0.048411 -0.027214  0.233957  0.159304
     8 x      -0.000628 -0.244424 -0.196803  0.296599  0.089185  0.423414
     8 y      -0.116481  0.120054  0.525268 -0.218474 -0.043807 -0.286474
     8 z      -0.019023 -0.727339  0.152820 -0.135735  0.265456 -0.189580
     9 x       0.019502  0.076877  0.161037 -0.000630 -0.169470 -0.141589
     9 y      -0.043586  0.106279  0.196278 -0.174271  0.051452  0.252647
     9 z       0.006274 -0.115162 -0.086824 -0.027209 -0.160921  0.117534
    10 x      -0.276332  0.129371 -0.144808  0.136384  0.109418 -0.224259
    10 y      -0.197451 -0.020118 -0.178919 -0.013902 -0.296082  0.196686
    10 z      -0.124677  0.059896 -0.019693 -0.075848  0.111029  0.039608
    11 x      -0.011055  0.166472 -0.002773 -0.223290  0.293335  0.004405
    11 y       0.475728 -0.122211 -0.100868  0.155040 -0.058844 -0.212373
    11 z      -0.318828  0.036605  0.070493  0.175376  0.014831 -0.125729
    12 x       0.104611  0.162657  0.173330  0.036898 -0.010937  0.257595
    12 y      -0.103211 -0.141823 -0.245228  0.067887 -0.399504 -0.152623
    12 z      -0.011030  0.223717  0.293584  0.477040 -0.164790  0.069051


  Frequency     189.1117  190.9769  201.7007  214.5367  228.9119  247.6099
  IR Intensity    0.0123    0.0051    0.0003    0.0601    0.0004    0.0013
     in X         0.0012    0.0037    0.0000    0.0348    0.0000    0.0001
     in Y         0.0003    0.0012    0.0000    0.0239    0.0003    0.0000
     in Z         0.0108    0.0002    0.0002    0.0014    0.0000    0.0012
  Raman Intsty    0.0000    0.0006    0.0000    0.0125    2.6557    0.0000

     1 x       0.052777  0.114225  0.039465 -0.085408 -0.075547  0.350487
     1 y       0.067864  0.041326  0.012687 -0.024789 -0.059406  0.195114
     1 z      -0.053107 -0.002089  0.065160 -0.039736 -0.000072 -0.011097
     2 x      -0.058543 -0.083406  0.018045  0.151685  0.018695 -0.038320
     2 y       0.028762 -0.051304 -0.008861  0.104690  0.241073  0.018829
     2 z      -0.174210  0.019556  0.053688 -0.033692  0.033516 -0.114036
     3 x      -0.080237  0.096845  0.005526 -0.047465 -0.066327 -0.306566
     3 y      -0.054380  0.049859 -0.034794 -0.043412 -0.063927 -0.216664
     3 z      -0.028585 -0.053792  0.068730  0.073123  0.027381  0.141728
     4 x      -0.049450 -0.030314 -0.099033  0.172299 -0.248380  0.194408
     4 y      -0.211061  0.202425 -0.110533  0.285699 -0.235517  0.361983
     4 z       0.194629  0.207022 -0.301640  0.007736  0.073972 -0.014798
     5 x      -0.018331  0.345964 -0.111964 -0.270503 -0.014112 -0.199823
     5 y       0.014572  0.190997 -0.064380 -0.199552  0.123720  0.017193
     5 z      -0.231230  0.025908  0.160916 -0.057866  0.035072  0.164277
     6 x       0.299346 -0.211101 -0.168594  0.106031  0.220809  0.204981
     6 y       0.260982 -0.053535 -0.077092 -0.012843  0.266323  0.016392
     6 z       0.281295 -0.101151  0.325062 -0.302296 -0.373887  0.011302
     7 x      -0.027377 -0.159417  0.302075 -0.113580 -0.093802  0.051683
     7 y       0.179937 -0.267241  0.228198 -0.192241 -0.066243 -0.120898
     7 z      -0.207464  0.185107 -0.185737  0.243640 -0.134328 -0.185632
     8 x       0.063863  0.126475 -0.061255  0.115579  0.147015 -0.015027
     8 y      -0.031366 -0.275757  0.030094  0.230494 -0.183871  0.007404
     8 z       0.190044 -0.088026 -0.182278 -0.000784 -0.079760 -0.044759
     9 x      -0.123038  0.280738  0.190900 -0.202240 -0.019948  0.255384
     9 y       0.054856  0.223039  0.025597 -0.233097  0.126575 -0.044515
     9 z      -0.189386 -0.168178  0.073991  0.145309  0.017693  0.001125
    10 x      -0.117843 -0.262969 -0.373938 -0.253393 -0.002478 -0.139122
    10 y      -0.108585 -0.216379 -0.192902 -0.123548 -0.111094  0.163838
    10 z      -0.224687 -0.123009 -0.028076 -0.172437  0.137404 -0.074519
    11 x      -0.099616 -0.114868  0.334335  0.261980  0.423387 -0.159313
    11 y      -0.359092 -0.100826 -0.004324 -0.089450  0.166813 -0.038833
    11 z       0.312999  0.185231  0.168066  0.161717  0.228907  0.124624
    12 x       0.174931 -0.126638 -0.087641  0.161410 -0.265707 -0.199846
    12 y       0.149416  0.249754  0.202245  0.291056 -0.227010 -0.359319
    12 z       0.178743 -0.079617 -0.253829 -0.024655  0.022447 -0.001394


  Frequency     262.4462  265.6891  271.0962  305.4523  324.5640  346.1461
  IR Intensity    0.0001    0.3296    0.1934    0.3664    0.0714    0.0402
     in X         0.0000    0.0327    0.1319    0.1313    0.0621    0.0040
     in Y         0.0000    0.0079    0.0545    0.2333    0.0038    0.0010
     in Z         0.0001    0.2891    0.0070    0.0018    0.0054    0.0353
  Raman Intsty    0.0000    0.0000    0.3411    0.0058    4.3780    0.0000

     1 x       0.252779  0.184578 -0.367037 -0.076189  0.037305 -0.015350
     1 y      -0.231256  0.201276 -0.158853 -0.307104  0.070378 -0.015307
     1 z      -0.135974  0.245666 -0.094590  0.099959 -0.255124  0.122528
     2 x       0.048643  0.048768  0.042624 -0.160856  0.109572 -0.000431
     2 y      -0.023898 -0.023952  0.017343 -0.151162  0.022874  0.000218
     2 z       0.144743  0.145117 -0.011453  0.029102 -0.033047 -0.001289
     3 x      -0.260342 -0.022750 -0.254057 -0.149915  0.187157  0.086029
     3 y       0.234984 -0.280729 -0.214420 -0.270895 -0.003236 -0.019407
     3 z       0.113438  0.235742  0.241738 -0.119394  0.190774  0.087782
     4 x       0.187456 -0.205847  0.130969  0.107093  0.022558 -0.055594
     4 y      -0.132740 -0.029766  0.214972  0.226616  0.070338  0.006468
     4 z      -0.103142 -0.103135 -0.132032  0.054991 -0.049345 -0.022158
     5 x      -0.174018  0.002441  0.223849 -0.016660 -0.286479 -0.172057
     5 y       0.240717 -0.182254  0.040051  0.132587  0.335520  0.157988
     5 z      -0.203564 -0.100200  0.063551  0.099389 -0.252748  0.282473
     6 x       0.156232  0.132405  0.161895  0.054618 -0.077030 -0.035635
     6 y      -0.219410  0.209961  0.002184  0.065756 -0.051864  0.032303
     6 z      -0.025264 -0.311127 -0.067360  0.128897  0.022768 -0.041786
     7 x       0.041520  0.111250  0.025342 -0.112261  0.085842 -0.477219
     7 y       0.171195  0.201574  0.130046 -0.099352 -0.229343  0.335587
     7 z       0.228166  0.184898 -0.002040 -0.374218 -0.200941 -0.040449
     8 x      -0.023765 -0.045164 -0.406306  0.316740 -0.233610  0.009822
     8 y       0.011682  0.022224 -0.344637  0.256402 -0.186706 -0.004827
     8 z      -0.070728 -0.134486  0.079638 -0.064117  0.047685  0.029228
     9 x      -0.003887 -0.043310  0.145947 -0.059041 -0.048079  0.289113
     9 y      -0.153329  0.202307  0.078344  0.153407  0.218408 -0.215496
     9 z      -0.325788 -0.021319 -0.168292 -0.026733  0.456631  0.065831
    10 x       0.084543  0.000163  0.034177  0.120909  0.164968  0.326172
    10 y      -0.233124 -0.256332  0.125673 -0.213896 -0.268213 -0.261390
    10 z       0.146952  0.146635  0.024279  0.319597  0.034509 -0.408989
    11 x      -0.118832 -0.310024  0.169687 -0.025790 -0.080239  0.000797
    11 y       0.201027 -0.122704 -0.001688  0.105253 -0.050288 -0.015193
    11 z       0.136581 -0.217346 -0.044032 -0.110354  0.013220 -0.061872
    12 x      -0.198202  0.107133  0.203766  0.075508  0.054023  0.030890
    12 y       0.138017  0.078212  0.179195  0.242123  0.054881  0.005667
    12 z       0.071162 -0.190511  0.084590 -0.038972  0.044282 -0.051355


  Frequency     357.9064  374.4519  385.5494  423.4807  482.8643  538.6988
  IR Intensity    0.3304    0.6607    0.2014    0.4411    0.0551    0.0058
     in X         0.0078    0.0654    0.0438    0.3802    0.0440    0.0006
     in Y         0.3186    0.0158    0.1401    0.0106    0.0045    0.0001
     in Z         0.0040    0.5795    0.0175    0.0503    0.0066    0.0051
  Raman Intsty    0.1396    0.0000    1.6474    0.4078    1.5633    0.0000

     1 x       0.038329  0.055946  0.078704 -0.283756  0.022405 -0.060937
     1 y      -0.270220 -0.142961 -0.140114  0.245095  0.137159  0.242960
     1 z      -0.021101  0.403066 -0.176975 -0.082617 -0.508385 -0.295465
     2 x      -0.158618  0.076302  0.101606 -0.529317 -0.052362  0.249945
     2 y      -0.373677 -0.037484 -0.294681 -0.148917 -0.236555 -0.122785
     2 z      -0.008385  0.227039 -0.082796  0.153301 -0.021458  0.743736
     3 x       0.016877  0.206657  0.153801 -0.154985  0.331003 -0.148953
     3 y      -0.259683  0.013955 -0.177007  0.181838 -0.014438 -0.139852
     3 z      -0.084933  0.378323  0.046481  0.300551  0.409877 -0.329082
     4 x      -0.106115  0.105225 -0.101108  0.022249 -0.045074  0.030839
     4 y       0.004744  0.098411  0.029740 -0.040520  0.001328  0.033901
     4 z       0.019574 -0.090606 -0.005621 -0.070903 -0.056009  0.035416
     5 x      -0.105740  0.090522  0.074966  0.130198 -0.012644  0.022773
     5 y       0.244592 -0.040534 -0.011606 -0.045470 -0.052530 -0.057331
     5 z       0.052238 -0.331724 -0.395709 -0.280035  0.397689 -0.027851
     6 x       0.028347 -0.047390 -0.039799  0.048170 -0.039206  0.013171
     6 y       0.133360 -0.103922  0.086638 -0.033051  0.004651  0.006868
     6 z      -0.059961  0.043298 -0.045363 -0.070928 -0.058053  0.057089
     7 x       0.337911 -0.173494 -0.331806  0.155310 -0.079297 -0.105122
     7 y       0.048354 -0.065847  0.300434 -0.070837  0.036399  0.038305
     7 z       0.333344 -0.292200  0.020999 -0.026960 -0.061716 -0.086744
     8 x       0.006535 -0.014072  0.028182  0.266135  0.090595 -0.024998
     8 y       0.120272  0.006913  0.099990  0.134717  0.108358  0.012281
     8 z       0.017660 -0.041869  0.007036 -0.067199 -0.012557 -0.074386
     9 x      -0.091774 -0.264194  0.292252  0.265056 -0.249684 -0.029100
     9 y       0.237730  0.125851 -0.118346 -0.111719  0.063914  0.060440
     9 z       0.093773 -0.185048  0.250846  0.121251 -0.307648  0.009024
    10 x       0.079178 -0.026720 -0.249214  0.133540 -0.023664  0.029434
    10 y       0.175451  0.164202  0.259859 -0.060142  0.009069 -0.001123
    10 z      -0.436569 -0.303549  0.266765 -0.091740  0.103825 -0.138474
    11 x       0.071054  0.073640  0.003257  0.077222  0.003234  0.022423
    11 y       0.112377  0.091030  0.065485 -0.047322 -0.016199 -0.024354
    11 z       0.067120  0.034810  0.082757  0.015519  0.068234  0.048825
    12 x      -0.096168 -0.147369 -0.074868  0.055694 -0.002997 -0.007151
    12 y      -0.000140 -0.077708  0.016851 -0.056950 -0.019341 -0.045537
    12 z       0.049165 -0.034793  0.072453  0.028617  0.069190  0.035069




--------------------------------------------------------------------------------
  Vibrational properties (for cluster):  Temperature  =       0.000 K
--------------------------------------------------------------------------------
  Zero point energy            =        0.443459 eV
--------------------------------------------------------------------------------

  Phonon density of states : 

--------------------------------------------------------------------------------
 Frequency (cm-1) Density of States                                             
--------------------------------------------------------------------------------
    0.00000 |                                                              0.000
    8.41717 |                                                              0.000
   16.83434 |                                                              0.000
   25.25151 |                                                              0.000
   33.66868 |                                                              0.000
   42.08585 |                                                              0.000
   50.50302 |                                                              0.000
   58.92019 |                                                              0.000
   67.33736 |                                                              0.000
   75.75453 |                                                              0.000
   84.17170 |                                                              0.000
   92.58887 |                                                              0.000
  101.00604 |                                                              0.000
  109.42321 |                                                              0.000
  117.84038 |                                                              0.000
  126.25755 |********************                                          0.036
  134.67472 |****************************************                      0.071
  143.09189 |********************                                          0.036
  151.50906 |************************************************************  0.107
  159.92623 |                                                              0.000
  168.34340 |****************************************                      0.071
  176.76057 |********************                                          0.036
  185.17774 |****************************************                      0.071
  193.59492 |********************                                          0.036
  202.01209 |                                                              0.000
  210.42926 |********************                                          0.036
  218.84643 |                                                              0.000
  227.26360 |********************                                          0.036
  235.68077 |                                                              0.000
  244.09794 |********************                                          0.036
  252.51511 |                                                              0.000
  260.93228 |****************************************                      0.071
  269.34945 |********************                                          0.036
  277.76662 |                                                              0.000
  286.18379 |                                                              0.000
  294.60096 |                                                              0.000
  303.01813 |********************                                          0.036
  311.43530 |                                                              0.000
  319.85247 |********************                                          0.036
  328.26964 |                                                              0.000
  336.68681 |                                                              0.000
  345.10398 |********************                                          0.036
  353.52115 |********************                                          0.036
  361.93832 |                                                              0.000
  370.35549 |********************                                          0.036
  378.77266 |********************                                          0.036
  387.18983 |                                                              0.000
  395.60700 |                                                              0.000
  404.02417 |                                                              0.000
  412.44134 |                                                              0.000
  420.85851 |********************                                          0.036
  429.27568 |                                                              0.000
  437.69285 |                                                              0.000
  446.11002 |                                                              0.000
  454.52719 |                                                              0.000
  462.94436 |                                                              0.000
  471.36153 |                                                              0.000
  479.77870 |********************                                          0.036
  488.19587 |                                                              0.000
  496.61304 |                                                              0.000
  505.03021 |                                                              0.000
  513.44738 |                                                              0.000
  521.86455 |                                                              0.000
  530.28172 |********************                                          0.036
--------------------------------------------------------------------------------



  XYZ File written as 001/3/sp_mod_-80/sp_mod_-80_eig.xyz


  Time to end of properties =       0.0131 seconds


  Peak dynamic memory used =       0.64 MB 


  Timing analysis for GULP :

--------------------------------------------------------------------------------
  Task / Subroutine                                          Time (Seconds)
--------------------------------------------------------------------------------
  Calculation of phonons                                          0.0038
--------------------------------------------------------------------------------
  Total CPU time                                                  0.0131
--------------------------------------------------------------------------------


  Job Finished at 10:29.41 17th May        2022                               

