------------------------------------------------------------
          Invoking FHI-aims ...

          When using FHI-aims, please cite the following reference:

            Volker Blum, Ralf Gehrke, Felix Hanke, Paula Havu,
            Ville Havu, Xinguo Ren, Karsten Reuter, and Matthias Scheffler,
            'Ab Initio Molecular Simulations with Numeric Atom-Centered Orbitals',
            Computer Physics Communications 180, 2175-2196 (2009)

          In addition, many other developments in FHI-aims are likely important for
          your particular application. A partial list of references is given at the end of
          this file. Thank you for giving credit to the authors of these developments.

          For any questions about FHI-aims, please visit our slack channel at

            https://fhi-aims.slack.com

          and our main development and support site at

            https://aims-git.rz-berlin.mpg.de .

          The latter site, in particular, has a wiki to collect information, as well
          as an issue tracker to log discussions, suggest improvements, and report issues
          or bugs. https://aims-git.rz-berlin.mpg.de is also the main development site
          of the project and all new and updated code versions can be obtained there.
          Please send an email to aims-coordinators@fhi-berlin.mpg.de and we will add
          you to these sites. They are for you and everyone is welcome there.

------------------------------------------------------------



  Date     :  20220517, Time     :  122046.102
  Time zero on CPU 1             :   0.388000000000000E-01  s.
  Internal wall clock time zero  :           422022046.102  s.

  FHI-aims created a unique identifier for this run for later identification
  aims_uuid : BFF0B46D-85BB-4236-A1C4-425BA6D76D0E

  Build configuration of the current instance of FHI-aims
  -------------------------------------------------------
  FHI-aims version      : 210914
  Commit number         : GITDIR-NOTFOUND
  CMake host system     : Linux-3.10.0-693.17.1.el7.x86_64
  CMake version         : 3.21.1
  Fortran compiler      : /shared/ucl/apps/intel/2018.Update3/impi/2018.3.222/intel64/bin/mpiifort (Intel) version 18.0.3.20180410
  Fortran compiler flags: -O3 -ip -fp-model precise
  C compiler            : /shared/ucl/apps/intel/2018.Update3/compilers_and_libraries_2018.3.222/linux/bin/intel64/icc (Intel) version 18.0.3.20180410
  C compiler flags      : -O3 -ip -fp-model precise -std=gnu99
  ELPA2 kernel          : AVX2
  Using MPI
  Using ScaLAPACK
  Using LibXC
  Using i-PI
  Using RLSY
  Linking against: /shared/ucl/apps/intel/2019.Update5/compilers_and_libraries_2019.5.281/linux/mkl/lib/intel64/libmkl_intel_lp64.so
                   /shared/ucl/apps/intel/2019.Update5/compilers_and_libraries_2019.5.281/linux/mkl/lib/intel64/libmkl_sequential.so
                   /shared/ucl/apps/intel/2019.Update5/compilers_and_libraries_2019.5.281/linux/mkl/lib/intel64/libmkl_core.so
                   /shared/ucl/apps/intel/2019.Update5/compilers_and_libraries_2019.5.281/linux/mkl/lib/intel64/libmkl_blacs_intelmpi_lp64.so
                   /shared/ucl/apps/intel/2019.Update5/compilers_and_libraries_2019.5.281/linux/mkl/lib/intel64/libmkl_scalapack_lp64.so

  Using       24 parallel tasks.
  Task        0 on host node-k98a-014 reporting.
  Task        1 on host node-k98a-014 reporting.
  Task        2 on host node-k98a-014 reporting.
  Task        3 on host node-k98a-014 reporting.
  Task        4 on host node-k98a-014 reporting.
  Task        5 on host node-k98a-014 reporting.
  Task        6 on host node-k98a-014 reporting.
  Task        7 on host node-k98a-014 reporting.
  Task        8 on host node-k98a-014 reporting.
  Task        9 on host node-k98a-014 reporting.
  Task       10 on host node-k98a-014 reporting.
  Task       11 on host node-k98a-014 reporting.
  Task       12 on host node-k98a-014 reporting.
  Task       13 on host node-k98a-014 reporting.
  Task       14 on host node-k98a-014 reporting.
  Task       15 on host node-k98a-014 reporting.
  Task       16 on host node-k98a-014 reporting.
  Task       17 on host node-k98a-014 reporting.
  Task       18 on host node-k98a-014 reporting.
  Task       19 on host node-k98a-014 reporting.
  Task       20 on host node-k98a-014 reporting.
  Task       21 on host node-k98a-014 reporting.
  Task       22 on host node-k98a-014 reporting.
  Task       23 on host node-k98a-014 reporting.

  Performing system and environment tests:
  | Environment variable OMP_NUM_THREADS correctly set to 1.
  | Checking for ScaLAPACK...
  | Testing pdtran()...
  | All pdtran() tests passed.

  Obtaining array dimensions for all initial allocations:
  
  -----------------------------------------------------------------------
  Parsing control.in (first pass over file, find array dimensions only).
  The contents of control.in will be repeated verbatim below
  unless switched off by setting 'verbatim_writeout .false.' .
  in the first line of control.in .
  -----------------------------------------------------------------------
  
  #########################################################################################  Physical model
  #########################################################################################
  xc                 pbesol
  spin               none
  relativistic       atomic_zora scalar
  charge             0.0
  #  SCF convergence
  occupation_type    gaussian 0.01
  mixer              pulay
  n_max_pulay        10
  charge_mix_param   0.5
  sc_accuracy_rho    1E-5
  sc_accuracy_eev    1E-3
  sc_accuracy_etot   1E-6
  sc_accuracy_forces 1E-4
  sc_iter_limit      1500
  #  Relaxation
  #relax_geometry   bfgs 1.e-3
  
  ################################################################################
  #
  #  FHI-aims code project
  #  VB, Fritz-Haber Institut, 2009
  #
  #  Suggested "light" defaults for Al atom (to be pasted into control.in file)
  #  Be sure to double-check any results obtained with these settings for post-processing,
  #  e.g., with the "tight" defaults and larger basis sets.
  #
  ################################################################################
    species        Al
  #     global species definitions
      nucleus             13
      mass                26.9815386
  #
      l_hartree           4
  #
      cut_pot             3.5          1.5  1.0
      basis_dep_cutoff    1e-4
  #
      radial_base         41 5.0
      radial_multiplier   1
      angular_grids       specified
        division   0.6594  110
        division   0.8170  194
        division   0.9059  302
  #      division   1.0363  434
  #      division   1.1443  590
  #      division   1.2621  770
  #      division   2.8177  974
  #      outer_grid   974
        outer_grid   302
  ################################################################################
  #
  #  Definition of "minimal" basis
  #
  ################################################################################
  #     valence basis states
      valence      3  s   2.
      valence      3  p   1.
  #     ion occupancy
      ion_occ      3  s   1.
      ion_occ      2  p   6.
  ################################################################################
  #
  #  Suggested additional basis functions. For production calculations,
  #  uncomment them one after another (the most important basis functions are
  #  listed first).
  #
  #  Constructed for dimers: 2.0 A, 2.5 A, 3.0 A, 3.75 A, 4.5 A
  #
  ################################################################################
  #  "First tier" - improvements: -199.47 meV to -10.63 meV
       ionic 3 d auto
       ionic 3 p auto
  #     hydro 4 f 4.7
       ionic 3 s auto
  #  "Second tier" - improvements: -5.35 meV to -1.57 meV
  #     hydro 5 g 7
  #     hydro 3 d 6
  #     hydro 2 s 11.6
  #     hydro 2 p 0.9
  #  "Third tier" - improvements: -0.63 meV to -0.20 meV
  #     hydro 5 f 7.6
  #     hydro 4 p 7.2
  #     hydro 4 s 3.7
  #     hydro 4 d 7.6
  #  "Fourth tier" - improvements: -0.17 meV to -0.08 meV
  #     hydro 4 d 13.6
  #     hydro 5 g 11.2
  #     hydro 4 d 0.9
  #     hydro 1 s 0.4
  #     hydro 4 p 0.1
  #     hydro 5 f 9.8
  #  Further basis functions that fell out of the optimization - noise level...
  #     hydro 4 p 5
  
  ################################################################################
  #
  #  FHI-aims code project
  #  VB, Fritz-Haber Institut, 2009
  #
  #  Suggested "light" defaults for F atom (to be pasted into control.in file)
  #  Be sure to double-check any results obtained with these settings for post-processing,
  #  e.g., with the "tight" defaults and larger basis sets.
  #
  ################################################################################
    species        F
  #     global species definitions
      nucleus             9
      mass                18.9984032
  #
      l_hartree           4
  #
      cut_pot             3.5  1.5  1.0
      basis_dep_cutoff    1e-4
  #
      radial_base         37 5.0
      radial_multiplier   1
      angular_grids specified
        division   0.4014  110
        division   0.5291  194
        division   0.6019  302
  #      division   0.6814  434
  #      division   0.7989  590
  #      division   0.8965  770
  #      division   1.3427  974
  #      outer_grid   974
        outer_grid   302
  ################################################################################
  #
  #  Definition of "minimal" basis
  #
  ################################################################################
  #     valence basis states
      valence      2  s   2.
      valence      2  p   5.
  #     ion occupancy
      ion_occ      2  s   1.
      ion_occ      2  p   4.
  ################################################################################
  #
  #  Suggested additional basis functions. For production calculations,
  #  uncomment them one after another (the most important basis functions are
  #  listed first).
  #
  #  Constructed for dimers: 1.2 A, 1.418 A, 1.75 A, 2.25 A, 3.25 A
  #
  ################################################################################
  #  "First tier" - improvements: -149.44 meV to -45.88 meV
       hydro 2 p 1.7
       hydro 3 d 7.4
       hydro 3 s 6.8
  #  "Second tier" - improvements: -12.96 meV to -1.56 meV
  #     hydro 4 f 11.2
  #     ionic 2 p auto
  #     hydro 1 s 0.75
  #     hydro 4 d 8.8
  #     hydro 5 g 16.8
  #  "Third tier" - improvements: -0.58 meV to -0.05 meV
  #     hydro 3 p 6.2
  #     hydro 3 s 3.2
  #     hydro 4 f 9.6
  #     hydro 3 s 19.6
  #     hydro 4 d 8.6
  #     hydro 5 g 14.4
  # Further basis functions: -0.05 meV and below
  #     hydro 3 p 4.2
  
  -----------------------------------------------------------------------
  Completed first pass over input file control.in .
  -----------------------------------------------------------------------
  
  
  -----------------------------------------------------------------------
  Parsing geometry.in (first pass over file, find array dimensions only).
  The contents of geometry.in will be repeated verbatim below
  unless switched off by setting 'verbatim_writeout .false.' .
  in the first line of geometry.in .
  -----------------------------------------------------------------------
  
  atom -1.694890189 2.561588685 -1.224564406 Al
  atom -0.471168570 0.017089004 -2.410681356 Al
  atom -2.259238586 -0.346720712 -0.448616649 Al
  atom -0.750943280 3.694704311 -0.154221373 F
  atom -3.010071570 3.161503666 -2.311878719 F
  atom -1.375263888 -1.414768637 -1.670585754 F
  atom -2.467154880 1.413129510 -0.043043615 F
  atom -3.331324130 -1.384348946 0.691843764 F
  atom 0.714293490 -0.561206860 -3.747447600 F
  atom -0.416435893 1.830379122 -2.293315322 F
  atom -2.445407757 0.459186951 -2.298357628 F
  atom -0.323612763 0.134127980 -0.424995188 F
  
  -----------------------------------------------------------------------
  Completed first pass over input file geometry.in .
  -----------------------------------------------------------------------
  

  Basic array size parameters:
  | Number of species                 :        2
  | Number of atoms                   :       12
  | Max. basis fn. angular momentum   :        2
  | Max. atomic/ionic basis occupied n:        3
  | Max. number of basis fn. types    :        3
  | Max. radial fns per species/type  :        5
  | Max. logarithmic grid size        :     1340
  | Max. radial integration grid size :       41
  | Max. angular integration grid size:      302
  | Max. angular grid division number :        8
  | Radial grid for Hartree potential :     1340
  | Number of spin channels           :        1

------------------------------------------------------------
          Reading file control.in.
------------------------------------------------------------
  XC: Using PBEsol gradient-corrected functionals.
  Spin treatment: No spin polarisation.
  Scalar relativistic treatment of kinetic energy: on-site free-atom approximation to ZORA.
  Charge =   0.000000E+00: Neutral system requested explicitly.
  Occupation type: Gaussian broadening, width =   0.100000E-01 eV.
  Using pulay charge density mixing.
  Pulay mixing - number of memorized iterations:   10
  Charge density mixing - mixing parameter:     0.5000
  Convergence accuracy of self-consistent charge density:  0.1000E-04
  Convergence accuracy of sum of eigenvalues:  0.1000E-02
  Convergence accuracy of total energy:  0.1000E-05
  Convergence accuracy of forces:  0.1000E-03
  Maximum number of s.-c. iterations  :  1500
 
  Reading configuration options for species Al                  .
  | Found nuclear charge :  13.0000
  | Found atomic mass :    26.9815386000000      amu
  | Found l_max for Hartree potential  :   4
  | Found cutoff potl. onset [A], width [A], scale factor :    3.50000    1.50000    1.00000
  | Threshold for basis-dependent cutoff potential is   0.100000E-03
  | Found data for basic radial integration grid :    41 points, outermost radius =    5.000 A
  | Found multiplier for basic radial grid :   1
  | Found angular grid specification: user-specified.
  | Specified grid contains     4 separate shells.
  | Check grid settings after all constraints further below.
  | Found free-atom valence shell :  3 s   2.000
  | Found free-atom valence shell :  3 p   1.000
  | Found free-ion valence shell :  3 s   1.000
  | Found free-ion valence shell :  2 p   6.000
  | Found ionic basis function :  3 d , default cutoff radius.
  | Found ionic basis function :  3 p , default cutoff radius.
  | Found ionic basis function :  3 s , default cutoff radius.
  Species Al                  : Missing cutoff potential type.
  Defaulting to exp(1/x)/(1-x)^2 type cutoff potential.
  Species Al: No 'logarithmic' tag. Using default grid for free atom:
  | Default logarithmic grid data [bohr] : 0.1000E-03 0.1000E+03 0.1012E+01
  | Will include ionic basis functions of  2.0-fold positive Al                   ion.
  Species Al: On-site basis accuracy parameter (for Gram-Schmidt orthonormalisation) not specified.
  Using default value basis_acc =  0.1000000E-03.
  Species Al                  : Using default innermost maximum threshold i_radial=  2 for radial functions.
  Species Al                  : Default cutoff onset for free atom density etc. : 0.35000000E+01 AA.
  Species Al                  : Basic radial grid will be enhanced according to radial_multiplier =   1, to contain    41 grid points.
 
  Reading configuration options for species F                   .
  | Found nuclear charge :   9.0000
  | Found atomic mass :    18.9984032000000      amu
  | Found l_max for Hartree potential  :   4
  | Found cutoff potl. onset [A], width [A], scale factor :    3.50000    1.50000    1.00000
  | Threshold for basis-dependent cutoff potential is   0.100000E-03
  | Found data for basic radial integration grid :    37 points, outermost radius =    5.000 A
  | Found multiplier for basic radial grid :   1
  | Found angular grid specification: user-specified.
  | Specified grid contains     4 separate shells.
  | Check grid settings after all constraints further below.
  | Found free-atom valence shell :  2 s   2.000
  | Found free-atom valence shell :  2 p   5.000
  | Found free-ion valence shell :  2 s   1.000
  | Found free-ion valence shell :  2 p   4.000
  | Found hydrogenic basis function :  2 p   1.700
  | Found hydrogenic basis function :  3 d   7.400
  | Found hydrogenic basis function :  3 s   6.800
  Species F                   : Missing cutoff potential type.
  Defaulting to exp(1/x)/(1-x)^2 type cutoff potential.
  Species F : No 'logarithmic' tag. Using default grid for free atom:
  | Default logarithmic grid data [bohr] : 0.1000E-03 0.1000E+03 0.1012E+01
  Species F : On-site basis accuracy parameter (for Gram-Schmidt orthonormalisation) not specified.
  Using default value basis_acc =  0.1000000E-03.
  Species F                   : Using default innermost maximum threshold i_radial=  2 for radial functions.
  Species F                   : Default cutoff onset for free atom density etc. : 0.35000000E+01 AA.
  Species F                   : Basic radial grid will be enhanced according to radial_multiplier =   1, to contain    37 grid points.
 
  Finished reading input file 'control.in'.
 
------------------------------------------------------------


------------------------------------------------------------
          Reading geometry description geometry.in.
------------------------------------------------------------
  | The smallest distance between any two atoms is         1.80882627 AA.
  | The first atom of this pair is atom number                      1 .
  | The second atom of this pair is atom number                     5 .
  Input structure read successfully.
  The structure contains       12 atoms,  and a total of        120.000 electrons.

  Input geometry:
  | No unit cell requested.
  | Atomic structure:
  |       Atom                x [A]            y [A]            z [A]
  |    1: Species Al           -1.69489019        2.56158868       -1.22456441
  |    2: Species Al           -0.47116857        0.01708900       -2.41068136
  |    3: Species Al           -2.25923859       -0.34672071       -0.44861665
  |    4: Species F            -0.75094328        3.69470431       -0.15422137
  |    5: Species F            -3.01007157        3.16150367       -2.31187872
  |    6: Species F            -1.37526389       -1.41476864       -1.67058575
  |    7: Species F            -2.46715488        1.41312951       -0.04304362
  |    8: Species F            -3.33132413       -1.38434895        0.69184376
  |    9: Species F             0.71429349       -0.56120686       -3.74744760
  |   10: Species F            -0.41643589        1.83037912       -2.29331532
  |   11: Species F            -2.44540776        0.45918695       -2.29835763
  |   12: Species F            -0.32361276        0.13412798       -0.42499519

 
  Finished reading input file 'control.in'.
 

------------------------------------------------------------
          Reading geometry description geometry.in.
------------------------------------------------------------
 
  Consistency checks for stacksize environment parameter are next.
 
  | Maximum stacksize for task 0: unlimited
  | Maximum stacksize for task 1: unlimited
  | Maximum stacksize for task 2: unlimited
  | Maximum stacksize for task 3: unlimited
  | Maximum stacksize for task 4: unlimited
  | Maximum stacksize for task 5: unlimited
  | Maximum stacksize for task 6: unlimited
  | Maximum stacksize for task 7: unlimited
  | Maximum stacksize for task 8: unlimited
  | Maximum stacksize for task 9: unlimited
  | Maximum stacksize for task 10: unlimited
  | Maximum stacksize for task 11: unlimited
  | Maximum stacksize for task 12: unlimited
  | Maximum stacksize for task 13: unlimited
  | Maximum stacksize for task 14: unlimited
  | Maximum stacksize for task 15: unlimited
  | Maximum stacksize for task 16: unlimited
  | Maximum stacksize for task 17: unlimited
  | Maximum stacksize for task 18: unlimited
  | Maximum stacksize for task 19: unlimited
  | Maximum stacksize for task 20: unlimited
  | Maximum stacksize for task 21: unlimited
  | Maximum stacksize for task 22: unlimited
  | Maximum stacksize for task 23: unlimited
  | Current stacksize for task 0: unlimited
  | Current stacksize for task 1: unlimited
  | Current stacksize for task 2: unlimited
  | Current stacksize for task 3: unlimited
  | Current stacksize for task 4: unlimited
  | Current stacksize for task 5: unlimited
  | Current stacksize for task 6: unlimited
  | Current stacksize for task 7: unlimited
  | Current stacksize for task 8: unlimited
  | Current stacksize for task 9: unlimited
  | Current stacksize for task 10: unlimited
  | Current stacksize for task 11: unlimited
  | Current stacksize for task 12: unlimited
  | Current stacksize for task 13: unlimited
  | Current stacksize for task 14: unlimited
  | Current stacksize for task 15: unlimited
  | Current stacksize for task 16: unlimited
  | Current stacksize for task 17: unlimited
  | Current stacksize for task 18: unlimited
  | Current stacksize for task 19: unlimited
  | Current stacksize for task 20: unlimited
  | Current stacksize for task 21: unlimited
  | Current stacksize for task 22: unlimited
  | Current stacksize for task 23: unlimited
 
  Consistency checks for the contents of control.in are next.
 
  MPI_IN_PLACE appears to work with this MPI implementation.
  | Keeping use_mpi_in_place .true. (see manual).
  Target number of points in a grid batch is not set. Defaulting to  100
  Method for grid partitioning is not set. Defaulting to parallel hash+maxmin partitioning.
  Batch size limit is not set. Defaulting to    200
  By default, will store active basis functions for each batch.
  If in need of memory, prune_basis_once .false. can be used to disable this option.
  communication_type for Hartree potential was not specified.
  Defaulting to calc_hartree .
  Pulay mixer: Number of initial linear mixing iterations not set.
  Defaulting to    0 iterations.
  Work space size for distributed Hartree potential not set.
  Defaulting to   0.200000E+03 MB.
  Algorithm-dependent basis array size parameters:
  | n_max_pulay                         :       10
  Presetting      1001 iterations before the initial mixing cycle
  is restarted anyway using the sc_init_iter criterion / keyword.
  Presetting a factor      1.000 between actual scf density residual
  and density convergence criterion sc_accuracy_rho below which sc_init_iter
  takes no effect.
  Geometry relaxation not requested: no relaxation will be performed.
  Forces evaluation will include force correction term due to incomplete self-consistency (default).
  Handling of forces: Unphysical translation and rotation will be removed from forces.
  No accuracy limit for integral partition fn. given. Defaulting to  0.1000E-14.
  No threshold value for u(r) in integrations given. Defaulting to  0.1000E-05.
  No accuracy for occupation numbers given. Defaulting to  0.1000E-12.
  No threshold value for occupation numbers given. Defaulting to  0.0000E+00.
  No accuracy for fermi level given. Defaulting to  0.1000E-19.
  Maximum # of iterations to find E_F not set. Defaulting to  200.
  Preferred method for the eigenvalue solver ('KS_method') not specified in 'control.in'.
  Calling BLACS routine to test compilation state
  Since ScaLAPACK support is enabled, defaulting to ELPA (via ELSI).
  Will not use alltoall communication since running on < 1024 CPUs.
  Threshold for basis singularities not set.
  Default threshold for basis singularities:  0.1000E-04
  partition_type (choice of integration weights) for integrals was not specified.
  | Using a version of the partition function of Stratmann and coworkers ('stratmann_sparse').
  | At each grid point, the set of atoms used to build the partition table is smoothly restricted to
  | only those atoms whose free-atom density would be non-zero at that grid point.
  Partitioning for Hartree potential was not defined. Using partition_type for integrals.
  | Adjusted default value of keyword multip_moments_threshold to:       0.10000000E-11
  | This value may affect high angular momentum components of the Hartree potential in periodic systems.
  No q(lm)/r^(l+1) cutoff set for long-range Hartree potential.
  | Using default value of  0.100000E-09 .
  | Verify using the multipole_threshold keyword.
  Defaulting to new monopole extrapolation.
  Density update method: automatic selection selected.
  Charge integration errors on the 3D integration grid will be compensated
  by explicit normalization and distribution of residual charges.
  Use the "compensate_multipole_errors" flag to change this behaviour.
  Set 'collect_eigenvectors' to be '.true.' for use_density_matrix .false.
 
  Consistency checks for the contents of geometry.in are next.
 
  Number of empty states per atom not set in control.in - providing a guess from actual geometry.
  | Total number of empty states used during s.c.f. cycle:       36
  If you use a very high smearing, use empty_states (per atom!) in control.in to increase this value.

  Structure-dependent array size parameters: 
  | Maximum number of distinct radial functions  :       14
  | Maximum number of basis functions            :      180
  | Number of Kohn-Sham states (occupied + empty):       96
------------------------------------------------------------

------------------------------------------------------------
          Preparing all fixed parts of the calculation.
------------------------------------------------------------
  Determining machine precision:
    2.225073858507201E-308
  Setting up grids for atomic and cluster calculations.

  Creating wave function, potential, and density for free atoms.

  Species: Al

  List of occupied orbitals and eigenvalues:
    n    l              occ      energy [Ha]    energy [eV]
    1    0           2.0000       -55.621123     -1513.5278
    2    0           2.0000        -3.957030      -107.6763
    3    0           2.0000        -0.272233        -7.4078
    2    1           6.0000        -2.540949       -69.1427
    3    1           1.0000        -0.083300        -2.2667


  Species: F

  List of occupied orbitals and eigenvalues:
    n    l              occ      energy [Ha]    energy [eV]
    1    0           2.0000       -24.399611      -663.9472
    2    0           2.0000        -1.098702       -29.8972
    2    1           5.0000        -0.408210       -11.1080


  Adding cutoff potential to free-atom effective potential.
  Creating fixed part of basis set: Ionic, confined, hydrogenic.
 
  Al                   ion:

  List of free ionic orbitals and eigenvalues:
    n    l      energy [Ha]    energy [eV]
    1    0       -56.418846     -1535.2349
    2    0        -4.732717      -128.7838
    3    0        -0.872690       -23.7471
    2    1        -3.317230       -90.2664


  List of ionic basis orbitals and eigenvalues:
    n    l      energy [Ha]    energy [eV]    outer radius [A]
    3    2        -0.346815        -9.4373       4.594041
    3    1        -0.631870       -17.1940       4.538221
    3    0        -0.872657       -23.7462       4.538221

 
  F                    hydrogenic:
 
  List of hydrogenic basis orbitals: 
    n    l      effective z      eigenvalue [eV]  inner max. [A]     outer max. [A]     outer radius [A]   
    2    1         1.700000        -9.7616           1.243167           1.243167           4.598524
    3    2         7.400000       -82.7828           0.642437           0.642437           3.305741
    3    0         6.800000       -69.9026           0.057798           1.022307           3.781556
 
  Creating atomic-like basis functions for current effective potential.

  Species Al                  :

  List of atomic basis orbitals and eigenvalues:
    n    l      energy [Ha]    energy [eV]    outer radius [A]
    1    0       -55.621123     -1513.5278       0.850197
    2    0        -3.957030      -107.6763       3.144911
    3    0        -0.272233        -7.4078       4.594041
    2    1        -2.540949       -69.1427       3.731966
    3    1        -0.083300        -2.2667       4.594041


  Species F                   :

  List of atomic basis orbitals and eigenvalues:
    n    l      energy [Ha]    energy [eV]    outer radius [A]
    1    0       -24.399611      -663.9472       1.258458
    2    0        -1.098702       -29.8972       4.325857
    2    1        -0.408210       -11.1080       4.487453

  Assembling full basis from fixed parts.
  | Species Al :   atomic orbital   1 s accepted.
  | Species Al :   atomic orbital   2 s accepted.
  | Species Al :    ionic orbital   3 s accepted.
  | Species Al :   atomic orbital   3 s accepted.
  | Species Al :   atomic orbital   2 p accepted.
  | Species Al :    ionic orbital   3 p accepted.
  | Species Al :   atomic orbital   3 p accepted.
  | Species Al :    ionic orbital   3 d accepted.
  | Species F :   atomic orbital   1 s accepted.
  | Species F :    hydro orbital   3 s accepted.
  | Species F :   atomic orbital   2 s accepted.
  | Species F :   atomic orbital   2 p accepted.
  | Species F :    hydro orbital   2 p accepted.
  | Species F :    hydro orbital   3 d accepted.
 
  Basis size parameters after reduction:
  | Total number of radial functions:       14
  | Total number of basis functions :      180
 
  Per-task memory consumption for arrays in subroutine allocate_ext:
  |           4.807768MB.
  Testing on-site integration grid accuracy.
  |  Species  Function  <phi|h_atom|phi> (log., in eV)  <phi|h_atom|phi> (rad., in eV)
           1        1              -1513.5277717935              -1513.5271881332
           1        2               -107.6762691836               -107.6762662489
           1        3                 -6.9467474784                 -6.9471269649
           1        4                  5.5771951849                  5.4862107220 ***
           1        5                -69.1427313144                -69.1427312731
           1        6                 -1.5197375330                 -1.5230432022
           1        7                  6.8210948310                  6.5529872240 ***
           1        8                  4.3216540965                  4.2851170187 ***
           2        9               -663.9471986398               -663.9470363334
           2       10                 16.8514011578                 16.8512525338
           2       11                -28.4490593856                -28.4490661472
           2       12                -11.1080115307                -11.1080620173
           2       13                  7.1940182175                  7.1685154137
           2       14                 44.8544281765                 44.8543763625
 * Note: Onsite integrals marked "***" above are less accurate than
 * onsite_accuracy_threshold =    0.03000 eV. Usually, this is harmless.
 * When in doubt, tighten the "radial" and/or "radial_multiplier" flags to check.

  Preparing densities etc. for the partition functions (integrals / Hartree potential).

  Preparations completed.
  max(cpu_time)          :      0.185 s.
  Wall clock time (cpu1) :      0.185 s.
------------------------------------------------------------

------------------------------------------------------------
          Begin self-consistency loop: Initialization.

          Date     :  20220517, Time     :  122049.626
------------------------------------------------------------

  Initializing index lists of integration centers etc. from given atomic structure:
  | Number of centers in hartree potential         :        12
  | Number of centers in hartree multipole         :        12
  | Number of centers in electron density summation:        12
  | Number of centers in basis integrals           :        12
  | Number of centers in integrals                 :        12
  | Number of centers in hamiltonian               :        12
  * Using 24 tasks for Scalapack Eigenvalue solver.
  Detailed listing of tasks and assigned k-points:
  (for non-periodic systems, the "k-point" denotes an internal label only)
   Task     0 k-point     1 on node-k98a-014
   Task     1 k-point     1 on node-k98a-014
   Task     2 k-point     1 on node-k98a-014
   Task     3 k-point     1 on node-k98a-014
   Task     4 k-point     1 on node-k98a-014
   Task     5 k-point     1 on node-k98a-014
   Task     6 k-point     1 on node-k98a-014
   Task     7 k-point     1 on node-k98a-014
   Task     8 k-point     1 on node-k98a-014
   Task     9 k-point     1 on node-k98a-014
   Task    10 k-point     1 on node-k98a-014
   Task    11 k-point     1 on node-k98a-014
   Task    12 k-point     1 on node-k98a-014
   Task    13 k-point     1 on node-k98a-014
   Task    14 k-point     1 on node-k98a-014
   Task    15 k-point     1 on node-k98a-014
   Task    16 k-point     1 on node-k98a-014
   Task    17 k-point     1 on node-k98a-014
   Task    18 k-point     1 on node-k98a-014
   Task    19 k-point     1 on node-k98a-014
   Task    20 k-point     1 on node-k98a-014
   Task    21 k-point     1 on node-k98a-014
   Task    22 k-point     1 on node-k98a-014
   Task    23 k-point     1 on node-k98a-014
  Tasks:    24 split into      6 X      4 BLACS grid
  Calculating block size based on n_basis =          180  max_nprow =            6  max_npcol =            4
  ScaLAPACK block size set to:           16
  Allocating        0.012 MB for ovlp
  Allocating        0.012 MB for ham
  Allocating        0.012 MB for eigenvec
  Required Scalapack workspace - INTEGER:            1  REAL:             1
  Partitioning the integration grid into batches with parallel hashing+maxmin method.
  | Number of batches:     1050
  | Maximal batch size:     186
  | Minimal batch size:      39
  | Average batch size:      87.543
  | Standard deviation of batch sizes:      21.875

  Integration load balanced across    24 MPI tasks.
  Work distribution over tasks is as follows:
  Task     0 has       3819 integration points.
  Task     1 has       3851 integration points.
  Task     2 has       3825 integration points.
  Task     3 has       3847 integration points.
  Task     4 has       3823 integration points.
  Task     5 has       3847 integration points.
  Task     6 has       3828 integration points.
  Task     7 has       3767 integration points.
  Task     8 has       3841 integration points.
  Task     9 has       3794 integration points.
  Task    10 has       3852 integration points.
  Task    11 has       3823 integration points.
  Task    12 has       3798 integration points.
  Task    13 has       3843 integration points.
  Task    14 has       3858 integration points.
  Task    15 has       3850 integration points.
  Task    16 has       3875 integration points.
  Task    17 has       3855 integration points.
  Task    18 has       3817 integration points.
  Task    19 has       3846 integration points.
  Task    20 has       3821 integration points.
  Task    21 has       3843 integration points.
  Task    22 has       3791 integration points.
  Task    23 has       3806 integration points.
  Initializing partition tables, free-atom densities, potentials, etc. across the integration grid (initialize_grid_storage).
  | initialize_grid_storage: Actual outermost partition radius vs. multipole_radius_free
  | (-- VB: in principle, multipole_radius_free should be larger, hence this output)
  | Species        1: Confinement radius =              4.999999999999999 AA, multipole_radius_free =              5.004487022111096 AA.
  | Species        1: outer_partition_radius set to              5.004487022111096 AA .
  | Species        2: Confinement radius =              4.999999999999999 AA, multipole_radius_free =              5.009370088163274 AA.
  | Species        2: outer_partition_radius set to              5.009370088163274 AA .
  | The sparse table of interatomic distances needs          1.64 kbyte instead of         1.15 kbyte of memory.
  | Using the partition_type stratmann_smoother will reduce your memory usage.
  | Net number of integration points:    91920
  | of which are non-zero points    :    84891
  Renormalizing the initial density to the exact electron count on the 3D integration grid.
  | Initial density: Formal number of electrons (from input files) :     120.0000000000
  | Integrated number of electrons on 3D grid     :     119.9999509692
  | Charge integration error                      :      -0.0000490308
  | Normalization factor for density and gradient :       1.0000004086
  Renormalizing the free-atom superposition density to the exact electron count on the 3D integration grid.
  | Formal number of electrons (from input files) :     120.0000000000
  | Integrated number of electrons on 3D grid     :     119.9999509692
  | Charge integration error                      :      -0.0000490308
  | Normalization factor for density and gradient :       1.0000004086
  Obtaining max. number of non-zero basis functions in each batch (get_n_compute_maxes).
  | Maximal number of non-zero basis functions:      165 in task     0
  | Maximal number of non-zero basis functions:      165 in task     1
  | Maximal number of non-zero basis functions:      164 in task     2
  | Maximal number of non-zero basis functions:      164 in task     3
  | Maximal number of non-zero basis functions:      166 in task     4
  | Maximal number of non-zero basis functions:      165 in task     5
  | Maximal number of non-zero basis functions:      173 in task     6
  | Maximal number of non-zero basis functions:      167 in task     7
  | Maximal number of non-zero basis functions:      164 in task     8
  | Maximal number of non-zero basis functions:      165 in task     9
  | Maximal number of non-zero basis functions:      170 in task    10
  | Maximal number of non-zero basis functions:      171 in task    11
  | Maximal number of non-zero basis functions:      166 in task    12
  | Maximal number of non-zero basis functions:      166 in task    13
  | Maximal number of non-zero basis functions:      167 in task    14
  | Maximal number of non-zero basis functions:      165 in task    15
  | Maximal number of non-zero basis functions:      172 in task    16
  | Maximal number of non-zero basis functions:      165 in task    17
  | Maximal number of non-zero basis functions:      164 in task    18
  | Maximal number of non-zero basis functions:      172 in task    19
  | Maximal number of non-zero basis functions:      172 in task    20
  | Maximal number of non-zero basis functions:      165 in task    21
  | Maximal number of non-zero basis functions:      164 in task    22
  | Maximal number of non-zero basis functions:      164 in task    23
  Selecting the method for density update.
  Loop over occupied states selected for charge density update.
  Allocating        0.132 MB for KS_eigenvector
  Integrating Hamiltonian matrix: batch-based integration.
  Time summed over all CPUs for integration: real work        0.765 s, elapsed        0.802 s
  Integrating overlap matrix.
  Time summed over all CPUs for integration: real work        0.291 s, elapsed        0.303 s
  Deallocating overlap matrix.

  Updating Kohn-Sham eigenvalues and eigenvectors using ELSI and the ELPA eigensolver.
  Overlap matrix is not singular
  | Lowest and highest eigenvalues :  0.2425E-02,  0.5915E+01
  Finished singularity check of overlap matrix
  | Time :     0.003 s
  Starting ELPA eigensolver
  Finished Cholesky decomposition
  | Time :     0.003 s
  Finished transformation to standard eigenproblem
  | Time :     0.000 s
  Finished solving standard eigenproblem
  | Time :     0.004 s
  Finished back-transformation of eigenvectors
  | Time :     0.000 s

  Obtaining occupation numbers and chemical potential using ELSI.
  | Chemical potential (Fermi level):    -7.47149597 eV
  Writing Kohn-Sham eigenvalues.

  State    Occupation    Eigenvalue [Ha]    Eigenvalue [eV]
      1       2.00000         -55.485310        -1509.83210
      2       2.00000         -55.485310        -1509.83209
      3       2.00000         -55.484288        -1509.80430
      4       2.00000         -24.379121         -663.38965
      5       2.00000         -24.379121         -663.38965
      6       2.00000         -24.372780         -663.21710
      7       2.00000         -24.348250         -662.54960
      8       2.00000         -24.347922         -662.54066
      9       2.00000         -24.341444         -662.36438
     10       2.00000         -24.339856         -662.32119
     11       2.00000         -24.333931         -662.15996
     12       2.00000         -24.333931         -662.15996
     13       2.00000          -3.950877         -107.50882
     14       2.00000          -3.950823         -107.50736
     15       2.00000          -3.949901         -107.48228
     16       2.00000          -2.544182          -69.23073
     17       2.00000          -2.543571          -69.21409
     18       2.00000          -2.543337          -69.20773
     19       2.00000          -2.543254          -69.20545
     20       2.00000          -2.542011          -69.17163
     21       2.00000          -2.541866          -69.16769
     22       2.00000          -2.541668          -69.16231
     23       2.00000          -2.541043          -69.14531
     24       2.00000          -2.540978          -69.14354
     25       2.00000          -1.215520          -33.07597
     26       2.00000          -1.203951          -32.76118
     27       2.00000          -1.203071          -32.73722
     28       2.00000          -1.162841          -31.64252
     29       2.00000          -1.157315          -31.49214
     30       2.00000          -1.150587          -31.30906
     31       2.00000          -1.147391          -31.22210
     32       2.00000          -1.139588          -31.00976
     33       2.00000          -1.139473          -31.00663
     34       2.00000          -0.579749          -15.77577
     35       2.00000          -0.570960          -15.53662
     36       2.00000          -0.569631          -15.50046
     37       2.00000          -0.543772          -14.79678
     38       2.00000          -0.542807          -14.77052
     39       2.00000          -0.525453          -14.29831
     40       2.00000          -0.523832          -14.25419
     41       2.00000          -0.515412          -14.02509
     42       2.00000          -0.511114          -13.90811
     43       2.00000          -0.496723          -13.51652
     44       2.00000          -0.483127          -13.14657
     45       2.00000          -0.481232          -13.09499
     46       2.00000          -0.480788          -13.08292
     47       2.00000          -0.474971          -12.92463
     48       2.00000          -0.470138          -12.79310
     49       2.00000          -0.465122          -12.65661
     50       2.00000          -0.463121          -12.60217
     51       2.00000          -0.459865          -12.51355
     52       2.00000          -0.452332          -12.30859
     53       2.00000          -0.449361          -12.22773
     54       2.00000          -0.448470          -12.20348
     55       2.00000          -0.445505          -12.12280
     56       2.00000          -0.444808          -12.10384
     57       2.00000          -0.444672          -12.10013
     58       2.00000          -0.443404          -12.06563
     59       2.00000          -0.443393          -12.06535
     60       2.00000          -0.436124          -11.86754
     61       0.00000          -0.134208           -3.65199
     62       0.00000          -0.085339           -2.32219
     63       0.00000          -0.074886           -2.03774
     64       0.00000          -0.031072           -0.84552
     65       0.00000          -0.003987           -0.10850
     66       0.00000           0.006416            0.17458
     67       0.00000           0.020895            0.56858
     68       0.00000           0.039471            1.07405
     69       0.00000           0.052330            1.42397
     70       0.00000           0.079778            2.17087
     71       0.00000           0.080624            2.19390
     72       0.00000           0.125539            3.41608
     73       0.00000           0.140237            3.81604
     74       0.00000           0.163845            4.45845
     75       0.00000           0.173556            4.72269
     76       0.00000           0.183609            4.99626
     77       0.00000           0.191560            5.21260
     78       0.00000           0.202794            5.51831
     79       0.00000           0.204648            5.56875
     80       0.00000           0.217008            5.90510
     81       0.00000           0.227496            6.19049
     82       0.00000           0.234872            6.39120
     83       0.00000           0.240222            6.53676
     84       0.00000           0.251788            6.85151
     85       0.00000           0.258866            7.04409
     86       0.00000           0.260508            7.08879
     87       0.00000           0.266516            7.25226
     88       0.00000           0.285570            7.77075
     89       0.00000           0.295840            8.05021
     90       0.00000           0.299344            8.14556
     91       0.00000           0.323891            8.81353
     92       0.00000           0.334098            9.09128
     93       0.00000           0.353712            9.62499
     94       0.00000           0.364637            9.92227
     95       0.00000           0.367738           10.00666
     96       0.00000           0.380100           10.34306

  Highest occupied state (VBM) at    -11.86753538 eV
  | Occupation number:      2.00000000

  Lowest unoccupied state (CBM) at    -3.65199114 eV
  | Occupation number:      0.00000000

  Overall HOMO-LUMO gap:      8.21554424 eV.
  Calculating total energy contributions from superposition of free atom densities.

  Total energy components:
  | Sum of eigenvalues            :        -888.10079713 Ha      -24166.45226537 eV
  | XC energy correction          :        -144.45522194 Ha       -3930.82658725 eV
  | XC potential correction       :         188.09674567 Ha        5118.37286972 eV
  | Free-atom electrostatic energy:        -780.88831949 Ha      -21249.05231326 eV
  | Hartree energy correction     :           0.00000000 Ha           0.00000000 eV
  | Entropy correction            :           0.00000000 Ha           0.00000000 eV
  | ---------------------------
  | Total energy                  :       -1625.34759289 Ha      -44227.95829617 eV
  | Total energy, T -> 0          :       -1625.34759289 Ha      -44227.95829617 eV  <-- do not rely on this value for anything but (periodic) metals
  | Electronic free energy        :       -1625.34759289 Ha      -44227.95829617 eV

  Derived energy quantities:
  | Kinetic energy                :        1627.89576612 Ha       44297.29761772 eV
  | Electrostatic energy          :       -3108.78813706 Ha      -84594.42932664 eV
  | Energy correction for multipole
  | error in Hartree potential    :           0.00000000 Ha           0.00000000 eV
  | Sum of eigenvalues per atom                           :       -2013.87102211 eV
  | Total energy (T->0) per atom                          :       -3685.66319135 eV  <-- do not rely on this value for anything but (periodic) metals
  | Electronic free energy per atom                       :       -3685.66319135 eV
  Initialize hartree_potential_storage
  Max. number of atoms included in rho_multipole:           12

  End scf initialization - timings             :  max(cpu_time)    wall_clock(cpu1)
  | Time for scf. initialization                :        0.121 s           0.121 s
  | Boundary condition initialization           :        0.000 s           0.000 s
  | Integration                                 :        0.048 s           0.048 s
  | Solution of K.-S. eqns.                     :        0.012 s           0.012 s
  | Grid partitioning                           :        0.039 s           0.038 s
  | Preloading free-atom quantities on grid     :        0.016 s           0.016 s
  | Free-atom superposition energy              :        0.005 s           0.005 s
  | Total energy evaluation                     :        0.000 s           0.000 s

  Partial memory accounting:
  | Current value for overall tracked memory usage:
  |   Minimum:        0.273 MB (on task 23)
  |   Maximum:        0.292 MB (on task  0)
  |   Average:        0.287 MB
  | Peak value for overall tracked memory usage:
  |   Minimum:        1.304 MB (on task 23 after allocating wave)
  |   Maximum:        1.385 MB (on task  6 after allocating wave)
  |   Average:        1.337 MB
  | Largest tracked array allocation so far:
  |   Minimum:        0.233 MB (H_times_psi on task  2)
  |   Maximum:        0.542 MB (all_coords on task 10)
  |   Average:        0.271 MB
  Note:  These values currently only include a subset of arrays which are explicitly tracked.
  The "true" memory usage will be greater.
------------------------------------------------------------
  Evaluating new KS density.
  Integration grid: deviation in total charge (<rho> - N_e) =   1.421085E-14

  Time for density update prior                :  max(cpu_time)    wall_clock(cpu1)
  | self-consistency iterative process          :        0.029 s           0.029 s

------------------------------------------------------------
          Begin self-consistency iteration #    1

  Date     :  20220517, Time     :  122049.777
------------------------------------------------------------
  Pulay mixing of updated and previous charge densities.
  Renormalizing the density to the exact electron count on the 3D integration grid.
  | Formal number of electrons (from input files) :     120.0000000000
  | Integrated number of electrons on 3D grid     :     120.0000000000
  | Charge integration error                      :       0.0000000000
  | Normalization factor for density and gradient :       1.0000000000

  Evaluating partitioned Hartree potential by multipole expansion.
  | Original multipole sum: apparent total charge =   0.705463E-13
  | Sum of charges compensated after spline to logarithmic grids =   0.932888E-04
  | Analytical far-field extrapolation by fixed multipoles:
  | Hartree multipole sum: apparent total charge =   0.710506E-13
  Summing up the Hartree potential.
  Time summed over all CPUs for potential: real work        0.383 s, elapsed        0.399 s
  | RMS charge density error from multipole expansion :   0.113320E-01

  Integrating Hamiltonian matrix: batch-based integration.
  Time summed over all CPUs for integration: real work        0.713 s, elapsed        0.737 s

  Updating Kohn-Sham eigenvalues and eigenvectors using ELSI and the ELPA eigensolver.
  Starting ELPA eigensolver
  Finished transformation to standard eigenproblem
  | Time :     0.000 s
  Finished solving standard eigenproblem
  | Time :     0.004 s
  Finished back-transformation of eigenvectors
  | Time :     0.000 s

  Obtaining occupation numbers and chemical potential using ELSI.
  | Chemical potential (Fermi level):    -7.00723262 eV
  Writing Kohn-Sham eigenvalues.

  State    Occupation    Eigenvalue [Ha]    Eigenvalue [eV]
      1       2.00000         -55.658373        -1514.54139
      2       2.00000         -55.658371        -1514.54133
      3       2.00000         -55.617270        -1513.42291
      4       2.00000         -24.239978         -659.60337
      5       2.00000         -24.239977         -659.60333
      6       2.00000         -24.200641         -658.53293
      7       2.00000         -24.187932         -658.18712
      8       2.00000         -24.178521         -657.93102
      9       2.00000         -24.064787         -654.83617
     10       2.00000         -24.064780         -654.83598
     11       2.00000         -24.053581         -654.53123
     12       2.00000         -24.052019         -654.48875
     13       2.00000          -4.095989         -111.45753
     14       2.00000          -4.095939         -111.45618
     15       2.00000          -4.058273         -110.43123
     16       2.00000          -2.689086          -73.17375
     17       2.00000          -2.689037          -73.17242
     18       2.00000          -2.688985          -73.17100
     19       2.00000          -2.688771          -73.16519
     20       2.00000          -2.688440          -73.15617
     21       2.00000          -2.688154          -73.14838
     22       2.00000          -2.651892          -72.16165
     23       2.00000          -2.651700          -72.15644
     24       2.00000          -2.649148          -72.08699
     25       2.00000          -1.178928          -32.08026
     26       2.00000          -1.168196          -31.78822
     27       2.00000          -1.154728          -31.42175
     28       2.00000          -1.107522          -30.13721
     29       2.00000          -1.099493          -29.91872
     30       2.00000          -1.007170          -27.40648
     31       2.00000          -1.006982          -27.40138
     32       2.00000          -1.003588          -27.30903
     33       2.00000          -0.998610          -27.17357
     34       2.00000          -0.557904          -15.18133
     35       2.00000          -0.552663          -15.03872
     36       2.00000          -0.545904          -14.85480
     37       2.00000          -0.512002          -13.93227
     38       2.00000          -0.506102          -13.77173
     39       2.00000          -0.489136          -13.31008
     40       2.00000          -0.481604          -13.10512
     41       2.00000          -0.479604          -13.05070
     42       2.00000          -0.466912          -12.70532
     43       2.00000          -0.428357          -11.65620
     44       2.00000          -0.423145          -11.51437
     45       2.00000          -0.411519          -11.19800
     46       2.00000          -0.406299          -11.05595
     47       2.00000          -0.392809          -10.68888
     48       2.00000          -0.384226          -10.45532
     49       2.00000          -0.375266          -10.21150
     50       2.00000          -0.372657          -10.14051
     51       2.00000          -0.370821          -10.09054
     52       2.00000          -0.348929           -9.49485
     53       2.00000          -0.321117           -8.73804
     54       2.00000          -0.320990           -8.73459
     55       2.00000          -0.318989           -8.68013
     56       2.00000          -0.317732           -8.64592
     57       2.00000          -0.315937           -8.59710
     58       2.00000          -0.314099           -8.54708
     59       2.00000          -0.306648           -8.34431
     60       2.00000          -0.301379           -8.20093
     61       0.00000          -0.142442           -3.87606
     62       0.00000          -0.090634           -2.46626
     63       0.00000          -0.061672           -1.67818
     64       0.00000          -0.052547           -1.42989
     65       0.00000          -0.022720           -0.61824
     66       0.00000           0.003478            0.09465
     67       0.00000           0.027039            0.73577
     68       0.00000           0.031170            0.84817
     69       0.00000           0.051417            1.39914
     70       0.00000           0.071926            1.95720
     71       0.00000           0.083498            2.27209
     72       0.00000           0.110822            3.01562
     73       0.00000           0.145099            3.94836
     74       0.00000           0.154546            4.20542
     75       0.00000           0.161971            4.40747
     76       0.00000           0.168533            4.58602
     77       0.00000           0.202211            5.50245
     78       0.00000           0.207162            5.63716
     79       0.00000           0.210721            5.73401
     80       0.00000           0.212792            5.79037
     81       0.00000           0.215619            5.86729
     82       0.00000           0.228783            6.22551
     83       0.00000           0.230464            6.27125
     84       0.00000           0.248157            6.75268
     85       0.00000           0.252166            6.86178
     86       0.00000           0.253759            6.90514
     87       0.00000           0.268632            7.30986
     88       0.00000           0.276985            7.53714
     89       0.00000           0.292829            7.96829
     90       0.00000           0.294412            8.01137
     91       0.00000           0.314328            8.55330
     92       0.00000           0.335162            9.12023
     93       0.00000           0.360456            9.80850
     94       0.00000           0.366087            9.96175
     95       0.00000           0.373627           10.16690
     96       0.00000           0.399416           10.86867

  Highest occupied state (VBM) at     -8.20093118 eV
  | Occupation number:      2.00000000

  Lowest unoccupied state (CBM) at    -3.87605695 eV
  | Occupation number:      0.00000000

  Overall HOMO-LUMO gap:      4.32487423 eV.

  Total energy components:
  | Sum of eigenvalues            :        -882.59922072 Ha      -24016.74675430 eV
  | XC energy correction          :        -145.77895263 Ha       -3966.84713190 eV
  | XC potential correction       :         189.83648422 Ha        5165.71356414 eV
  | Free-atom electrostatic energy:        -780.88831949 Ha      -21249.05231326 eV
  | Hartree energy correction     :          -5.70325961 Ha        -155.19359013 eV
  | Entropy correction            :           0.00000000 Ha           0.00000000 eV
  | ---------------------------
  | Total energy                  :       -1625.13326823 Ha      -44222.12622546 eV
  | Total energy, T -> 0          :       -1625.13326823 Ha      -44222.12622546 eV  <-- do not rely on this value for anything but (periodic) metals
  | Electronic free energy        :       -1625.13326823 Ha      -44222.12622546 eV

  Derived energy quantities:
  | Kinetic energy                :        1634.29821739 Ha       44471.51718096 eV
  | Electrostatic energy          :       -3113.65253299 Ha      -84726.79627452 eV
  | Energy correction for multipole
  | error in Hartree potential    :           0.03458432 Ha           0.94108728 eV
  | Sum of eigenvalues per atom                           :       -2001.39556286 eV
  | Total energy (T->0) per atom                          :       -3685.17718545 eV  <-- do not rely on this value for anything but (periodic) metals
  | Electronic free energy per atom                       :       -3685.17718545 eV
  Evaluating new KS density.
  Integration grid: deviation in total charge (<rho> - N_e) =   4.263256E-14

  Self-consistency convergence accuracy:
  | Change of charge density      :  0.6026E+00
  | Change of sum of eigenvalues  :  0.1497E+03 eV
  | Change of total energy        :  0.5832E+01 eV


------------------------------------------------------------
  End self-consistency iteration #     1       :  max(cpu_time)    wall_clock(cpu1)
  | Time for this iteration                     :        0.085 s           0.085 s
  | Charge density update                       :        0.030 s           0.029 s
  | Density mixing                              :        0.000 s           0.000 s
  | Hartree multipole update                    :        0.001 s           0.002 s
  | Hartree multipole summation                 :        0.017 s           0.017 s
  | Integration                                 :        0.031 s           0.031 s
  | Solution of K.-S. eqns.                     :        0.004 s           0.004 s
  | Total energy evaluation                     :        0.000 s           0.000 s

  Partial memory accounting:
  | Current value for overall tracked memory usage:
  |   Minimum:        0.273 MB (on task 23)
  |   Maximum:        0.292 MB (on task  0)
  |   Average:        0.287 MB
  | Peak value for overall tracked memory usage:
  |   Minimum:        1.304 MB (on task 23 after allocating wave)
  |   Maximum:        1.385 MB (on task  6 after allocating wave)
  |   Average:        1.337 MB
  | Largest tracked array allocation so far:
  |   Minimum:        0.698 MB (gradient_basis_wave on task  2)
  |   Maximum:        0.736 MB (gradient_basis_wave on task  6)
  |   Average:        0.710 MB
  Note:  These values currently only include a subset of arrays which are explicitly tracked.
  The "true" memory usage will be greater.
------------------------------------------------------------

------------------------------------------------------------
          Begin self-consistency iteration #    2

  Date     :  20220517, Time     :  122049.867
------------------------------------------------------------
  Pulay mixing of updated and previous charge densities.
  Renormalizing the density to the exact electron count on the 3D integration grid.
  | Formal number of electrons (from input files) :     120.0000000000
  | Integrated number of electrons on 3D grid     :     120.0000000000
  | Charge integration error                      :       0.0000000000
  | Normalization factor for density and gradient :       1.0000000000

  Evaluating partitioned Hartree potential by multipole expansion.
  | Original multipole sum: apparent total charge =   0.112535E-12
  | Sum of charges compensated after spline to logarithmic grids =   0.495470E-04
  | Analytical far-field extrapolation by fixed multipoles:
  | Hartree multipole sum: apparent total charge =   0.113162E-12
  Summing up the Hartree potential.
  Time summed over all CPUs for potential: real work        0.380 s, elapsed        0.397 s
  | RMS charge density error from multipole expansion :   0.131953E-01

  Integrating Hamiltonian matrix: batch-based integration.
  Time summed over all CPUs for integration: real work        0.710 s, elapsed        0.737 s

  Updating Kohn-Sham eigenvalues and eigenvectors using ELSI and the ELPA eigensolver.
  Starting ELPA eigensolver
  Finished transformation to standard eigenproblem
  | Time :     0.000 s
  Finished solving standard eigenproblem
  | Time :     0.004 s
  Finished back-transformation of eigenvectors
  | Time :     0.000 s

  Obtaining occupation numbers and chemical potential using ELSI.
  | Chemical potential (Fermi level):    -7.39569042 eV
  Highest occupied state (VBM) at     -9.24129062 eV
  | Occupation number:      2.00000000

  Lowest unoccupied state (CBM) at    -4.14400076 eV
  | Occupation number:      0.00000000

  Overall HOMO-LUMO gap:      5.09728986 eV.

  Checking to see if s.c.f. parameters should be adjusted.

  Total energy components:
  | Sum of eigenvalues            :        -885.55043744 Ha      -24097.05344737 eV
  | XC energy correction          :        -145.31260880 Ha       -3954.15727070 eV
  | XC potential correction       :         189.22286954 Ha        5149.01625914 eV
  | Free-atom electrostatic energy:        -780.88831949 Ha      -21249.05231326 eV
  | Hartree energy correction     :          -2.54695889 Ha         -69.30627753 eV
  | Entropy correction            :           0.00000000 Ha           0.00000000 eV
  | ---------------------------
  | Total energy                  :       -1625.07545508 Ha      -44220.55304973 eV
  | Total energy, T -> 0          :       -1625.07545508 Ha      -44220.55304973 eV  <-- do not rely on this value for anything but (periodic) metals
  | Electronic free energy        :       -1625.07545508 Ha      -44220.55304973 eV

  Derived energy quantities:
  | Kinetic energy                :        1630.51445134 Ha       44368.55566820 eV
  | Electrostatic energy          :       -3110.27729762 Ha      -84634.95144722 eV
  | Energy correction for multipole
  | error in Hartree potential    :           0.03909957 Ha           1.06395335 eV
  | Sum of eigenvalues per atom                           :       -2008.08778728 eV
  | Total energy (T->0) per atom                          :       -3685.04608748 eV  <-- do not rely on this value for anything but (periodic) metals
  | Electronic free energy per atom                       :       -3685.04608748 eV
  Evaluating new KS density.
  Integration grid: deviation in total charge (<rho> - N_e) =   2.842171E-14

  Self-consistency convergence accuracy:
  | Change of charge density      :  0.4596E+00
  | Change of sum of eigenvalues  : -0.8031E+02 eV
  | Change of total energy        :  0.1573E+01 eV


------------------------------------------------------------
  End self-consistency iteration #     2       :  max(cpu_time)    wall_clock(cpu1)
  | Time for this iteration                     :        0.088 s           0.086 s
  | Charge density update                       :        0.030 s           0.031 s
  | Density mixing                              :        0.004 s           0.002 s
  | Hartree multipole update                    :        0.001 s           0.001 s
  | Hartree multipole summation                 :        0.017 s           0.017 s
  | Integration                                 :        0.031 s           0.031 s
  | Solution of K.-S. eqns.                     :        0.004 s           0.004 s
  | Total energy evaluation                     :        0.000 s           0.000 s

  Partial memory accounting:
  | Current value for overall tracked memory usage:
  |   Minimum:        0.274 MB (on task 23)
  |   Maximum:        0.293 MB (on task  0)
  |   Average:        0.288 MB
  | Peak value for overall tracked memory usage:
  |   Minimum:        1.304 MB (on task 23 after allocating wave)
  |   Maximum:        1.385 MB (on task  6 after allocating wave)
  |   Average:        1.337 MB
  | Largest tracked array allocation so far:
  |   Minimum:        0.698 MB (gradient_basis_wave on task  2)
  |   Maximum:        0.736 MB (gradient_basis_wave on task  6)
  |   Average:        0.710 MB
  Note:  These values currently only include a subset of arrays which are explicitly tracked.
  The "true" memory usage will be greater.
------------------------------------------------------------

------------------------------------------------------------
          Begin self-consistency iteration #    3

  Date     :  20220517, Time     :  122049.958
------------------------------------------------------------
  Pulay mixing of updated and previous charge densities.
  Renormalizing the density to the exact electron count on the 3D integration grid.
  | Formal number of electrons (from input files) :     120.0000000000
  | Integrated number of electrons on 3D grid     :     120.0000000000
  | Charge integration error                      :       0.0000000000
  | Normalization factor for density and gradient :       1.0000000000

  Evaluating partitioned Hartree potential by multipole expansion.
  | Original multipole sum: apparent total charge =   0.114429E-12
  | Sum of charges compensated after spline to logarithmic grids =   0.580658E-04
  | Analytical far-field extrapolation by fixed multipoles:
  | Hartree multipole sum: apparent total charge =   0.113543E-12
  Summing up the Hartree potential.
  Time summed over all CPUs for potential: real work        0.380 s, elapsed        0.398 s
  | RMS charge density error from multipole expansion :   0.169108E-01

  Integrating Hamiltonian matrix: batch-based integration.
  Time summed over all CPUs for integration: real work        0.710 s, elapsed        0.737 s

  Updating Kohn-Sham eigenvalues and eigenvectors using ELSI and the ELPA eigensolver.
  Starting ELPA eigensolver
  Finished transformation to standard eigenproblem
  | Time :     0.000 s
  Finished solving standard eigenproblem
  | Time :     0.003 s
  Finished back-transformation of eigenvectors
  | Time :     0.000 s

  Obtaining occupation numbers and chemical potential using ELSI.
  | Chemical potential (Fermi level):    -7.42005217 eV
  Highest occupied state (VBM) at     -9.03356431 eV
  | Occupation number:      2.00000000

  Lowest unoccupied state (CBM) at    -4.25274027 eV
  | Occupation number:      0.00000000

  Overall HOMO-LUMO gap:      4.78082403 eV.

  Total energy components:
  | Sum of eigenvalues            :        -886.43104208 Ha      -24121.01591872 eV
  | XC energy correction          :        -145.28779683 Ha       -3953.48210262 eV
  | XC potential correction       :         189.18926617 Ha        5148.10186512 eV
  | Free-atom electrostatic energy:        -780.88831949 Ha      -21249.05231326 eV
  | Hartree energy correction     :          -1.65657567 Ha         -45.07771756 eV
  | Entropy correction            :           0.00000000 Ha           0.00000000 eV
  | ---------------------------
  | Total energy                  :       -1625.07446790 Ha      -44220.52618704 eV
  | Total energy, T -> 0          :       -1625.07446790 Ha      -44220.52618704 eV  <-- do not rely on this value for anything but (periodic) metals
  | Electronic free energy        :       -1625.07446790 Ha      -44220.52618704 eV

  Derived energy quantities:
  | Kinetic energy                :        1629.13105722 Ha       44330.91159879 eV
  | Electrostatic energy          :       -3108.91772828 Ha      -84597.95568320 eV
  | Energy correction for multipole
  | error in Hartree potential    :           0.05036615 Ha           1.37053265 eV
  | Sum of eigenvalues per atom                           :       -2010.08465989 eV
  | Total energy (T->0) per atom                          :       -3685.04384892 eV  <-- do not rely on this value for anything but (periodic) metals
  | Electronic free energy per atom                       :       -3685.04384892 eV
  Evaluating new KS density.
  Integration grid: deviation in total charge (<rho> - N_e) =   2.842171E-14

  Self-consistency convergence accuracy:
  | Change of charge density      :  0.1232E+00
  | Change of sum of eigenvalues  : -0.2396E+02 eV
  | Change of total energy        :  0.2686E-01 eV


------------------------------------------------------------
  End self-consistency iteration #     3       :  max(cpu_time)    wall_clock(cpu1)
  | Time for this iteration                     :        0.086 s           0.084 s
  | Charge density update                       :        0.028 s           0.028 s
  | Density mixing                              :        0.004 s           0.002 s
  | Hartree multipole update                    :        0.001 s           0.001 s
  | Hartree multipole summation                 :        0.017 s           0.017 s
  | Integration                                 :        0.031 s           0.031 s
  | Solution of K.-S. eqns.                     :        0.004 s           0.005 s
  | Total energy evaluation                     :        0.000 s           0.000 s

  Partial memory accounting:
  | Current value for overall tracked memory usage:
  |   Minimum:        0.274 MB (on task 23)
  |   Maximum:        0.293 MB (on task  0)
  |   Average:        0.288 MB
  | Peak value for overall tracked memory usage:
  |   Minimum:        1.304 MB (on task 23 after allocating wave)
  |   Maximum:        1.385 MB (on task  6 after allocating wave)
  |   Average:        1.337 MB
  | Largest tracked array allocation so far:
  |   Minimum:        0.698 MB (gradient_basis_wave on task  2)
  |   Maximum:        0.736 MB (gradient_basis_wave on task  6)
  |   Average:        0.710 MB
  Note:  These values currently only include a subset of arrays which are explicitly tracked.
  The "true" memory usage will be greater.
------------------------------------------------------------

------------------------------------------------------------
          Begin self-consistency iteration #    4

  Date     :  20220517, Time     :  122050.048
------------------------------------------------------------
  Pulay mixing of updated and previous charge densities.
  Renormalizing the density to the exact electron count on the 3D integration grid.
  | Formal number of electrons (from input files) :     120.0000000000
  | Integrated number of electrons on 3D grid     :     120.0000000000
  | Charge integration error                      :       0.0000000000
  | Normalization factor for density and gradient :       1.0000000000

  Evaluating partitioned Hartree potential by multipole expansion.
  | Original multipole sum: apparent total charge =   0.158557E-12
  | Sum of charges compensated after spline to logarithmic grids =   0.631952E-04
  | Analytical far-field extrapolation by fixed multipoles:
  | Hartree multipole sum: apparent total charge =   0.158040E-12
  Summing up the Hartree potential.
  Time summed over all CPUs for potential: real work        0.380 s, elapsed        0.397 s
  | RMS charge density error from multipole expansion :   0.197869E-01

  Integrating Hamiltonian matrix: batch-based integration.
  Time summed over all CPUs for integration: real work        0.710 s, elapsed        0.737 s

  Updating Kohn-Sham eigenvalues and eigenvectors using ELSI and the ELPA eigensolver.
  Starting ELPA eigensolver
  Finished transformation to standard eigenproblem
  | Time :     0.000 s
  Finished solving standard eigenproblem
  | Time :     0.003 s
  Finished back-transformation of eigenvectors
  | Time :     0.000 s

  Obtaining occupation numbers and chemical potential using ELSI.
  | Chemical potential (Fermi level):    -7.49201658 eV
  Highest occupied state (VBM) at     -8.96336546 eV
  | Occupation number:      2.00000000

  Lowest unoccupied state (CBM) at    -4.27127752 eV
  | Occupation number:      0.00000000

  Overall HOMO-LUMO gap:      4.69208794 eV.

  Total energy components:
  | Sum of eigenvalues            :        -886.71059938 Ha      -24128.62305996 eV
  | XC energy correction          :        -145.26339653 Ha       -3952.81813680 eV
  | XC potential correction       :         189.15622133 Ha        5147.20266905 eV
  | Free-atom electrostatic energy:        -780.88831949 Ha      -21249.05231326 eV
  | Hartree energy correction     :          -1.36619005 Ha         -37.17592266 eV
  | Entropy correction            :           0.00000000 Ha           0.00000000 eV
  | ---------------------------
  | Total energy                  :       -1625.07228413 Ha      -44220.46676364 eV
  | Total energy, T -> 0          :       -1625.07228413 Ha      -44220.46676364 eV  <-- do not rely on this value for anything but (periodic) metals
  | Electronic free energy        :       -1625.07228413 Ha      -44220.46676364 eV

  Derived energy quantities:
  | Kinetic energy                :        1628.13931804 Ha       44303.92500275 eV
  | Electrostatic energy          :       -3107.94820563 Ha      -84571.57362959 eV
  | Energy correction for multipole
  | error in Hartree potential    :           0.05827333 Ha           1.58569808 eV
  | Sum of eigenvalues per atom                           :       -2010.71858833 eV
  | Total energy (T->0) per atom                          :       -3685.03889697 eV  <-- do not rely on this value for anything but (periodic) metals
  | Electronic free energy per atom                       :       -3685.03889697 eV
  Evaluating new KS density.
  Integration grid: deviation in total charge (<rho> - N_e) =   2.842171E-14

  Self-consistency convergence accuracy:
  | Change of charge density      :  0.9239E-01
  | Change of sum of eigenvalues  : -0.7607E+01 eV
  | Change of total energy        :  0.5942E-01 eV


------------------------------------------------------------
  End self-consistency iteration #     4       :  max(cpu_time)    wall_clock(cpu1)
  | Time for this iteration                     :        0.086 s           0.083 s
  | Charge density update                       :        0.028 s           0.028 s
  | Density mixing                              :        0.004 s           0.001 s
  | Hartree multipole update                    :        0.001 s           0.001 s
  | Hartree multipole summation                 :        0.017 s           0.017 s
  | Integration                                 :        0.031 s           0.031 s
  | Solution of K.-S. eqns.                     :        0.004 s           0.004 s
  | Total energy evaluation                     :        0.000 s           0.000 s

  Partial memory accounting:
  | Current value for overall tracked memory usage:
  |   Minimum:        0.274 MB (on task 23)
  |   Maximum:        0.293 MB (on task  0)
  |   Average:        0.288 MB
  | Peak value for overall tracked memory usage:
  |   Minimum:        1.304 MB (on task 23 after allocating wave)
  |   Maximum:        1.385 MB (on task  6 after allocating wave)
  |   Average:        1.337 MB
  | Largest tracked array allocation so far:
  |   Minimum:        0.698 MB (gradient_basis_wave on task  2)
  |   Maximum:        0.736 MB (gradient_basis_wave on task  6)
  |   Average:        0.710 MB
  Note:  These values currently only include a subset of arrays which are explicitly tracked.
  The "true" memory usage will be greater.
------------------------------------------------------------

------------------------------------------------------------
          Begin self-consistency iteration #    5

  Date     :  20220517, Time     :  122050.138
------------------------------------------------------------
  Pulay mixing of updated and previous charge densities.
  Renormalizing the density to the exact electron count on the 3D integration grid.
  | Formal number of electrons (from input files) :     120.0000000000
  | Integrated number of electrons on 3D grid     :     120.0000000000
  | Charge integration error                      :       0.0000000000
  | Normalization factor for density and gradient :       1.0000000000

  Evaluating partitioned Hartree potential by multipole expansion.
  | Original multipole sum: apparent total charge =   0.148324E-12
  | Sum of charges compensated after spline to logarithmic grids =   0.638803E-04
  | Analytical far-field extrapolation by fixed multipoles:
  | Hartree multipole sum: apparent total charge =   0.145963E-12
  Summing up the Hartree potential.
  Time summed over all CPUs for potential: real work        0.380 s, elapsed        0.398 s
  | RMS charge density error from multipole expansion :   0.197172E-01

  Integrating Hamiltonian matrix: batch-based integration.
  Time summed over all CPUs for integration: real work        0.711 s, elapsed        0.737 s

  Updating Kohn-Sham eigenvalues and eigenvectors using ELSI and the ELPA eigensolver.
  Starting ELPA eigensolver
  Finished transformation to standard eigenproblem
  | Time :     0.001 s
  Finished solving standard eigenproblem
  | Time :     0.003 s
  Finished back-transformation of eigenvectors
  | Time :     0.000 s

  Obtaining occupation numbers and chemical potential using ELSI.
  | Chemical potential (Fermi level):    -7.47266363 eV
  Highest occupied state (VBM) at     -9.03746294 eV
  | Occupation number:      2.00000000

  Lowest unoccupied state (CBM) at    -4.23950602 eV
  | Occupation number:      0.00000000

  Overall HOMO-LUMO gap:      4.79795693 eV.

  Total energy components:
  | Sum of eigenvalues            :        -886.58726380 Ha      -24125.26692809 eV
  | XC energy correction          :        -145.26108254 Ha       -3952.75516988 eV
  | XC potential correction       :         189.15327762 Ha        5147.12256664 eV
  | Free-atom electrostatic energy:        -780.88831949 Ha      -21249.05231326 eV
  | Hartree energy correction     :          -1.48877143 Ha         -40.51153177 eV
  | Entropy correction            :           0.00000000 Ha           0.00000000 eV
[...]
   Total forces(   7)            : -0.116520E+00 -0.265976E+00  0.290143E+00
  atom #    8
   Hellmann-Feynman              : -0.162306E+01 -0.151987E+01  0.171167E+01
   Ionic forces                  :  0.000000E+00  0.000000E+00  0.000000E+00
   Multipole                     : -0.459419E+00 -0.476216E+00  0.519169E+00
   Hartree pot. SCF incomplete   : -0.448491E-05 -0.341621E-05  0.387741E-05
   Pulay + GGA                   :  0.439898E+01  0.425857E+01 -0.470410E+01
   ----------------------------------------------------------------
   Total forces(   8)            :  0.231650E+01  0.226248E+01 -0.247326E+01
  atom #    9
   Hellmann-Feynman              :  0.177073E+01 -0.829643E+00 -0.201457E+01
   Ionic forces                  :  0.000000E+00  0.000000E+00  0.000000E+00
   Multipole                     :  0.544305E+00 -0.272301E+00 -0.582217E+00
   Hartree pot. SCF incomplete   :  0.394505E-05 -0.170959E-05 -0.537099E-05
   Pulay + GGA                   : -0.488754E+01  0.236877E+01  0.548843E+01
   ----------------------------------------------------------------
   Total forces(   9)            : -0.257251E+01  0.126682E+01  0.289164E+01
  atom #   10
   Hellmann-Feynman              :  0.107434E+01  0.588913E+00 -0.579789E+00
   Ionic forces                  :  0.000000E+00  0.000000E+00  0.000000E+00
   Multipole                     :  0.780554E-01  0.228289E+00 -0.692038E-01
   Hartree pot. SCF incomplete   :  0.772594E-05  0.152206E-04 -0.601363E-05
   Pulay + GGA                   : -0.833780E+00 -0.993166E+00  0.460678E+00
   ----------------------------------------------------------------
   Total forces(  10)            :  0.318619E+00 -0.175949E+00 -0.188320E+00
  atom #   11
   Hellmann-Feynman              :  0.927000E+00  0.856641E+00  0.100198E+01
   Ionic forces                  :  0.000000E+00  0.000000E+00  0.000000E+00
   Multipole                     : -0.337073E+00  0.206158E+00 -0.269242E+00
   Hartree pot. SCF incomplete   : -0.122128E-04  0.329866E-05 -0.105188E-04
   Pulay + GGA                   :  0.383226E+00 -0.114458E+01  0.139206E+00
   ----------------------------------------------------------------
   Total forces(  11)            :  0.973140E+00 -0.817788E-01  0.871932E+00
  atom #   12
   Hellmann-Feynman              : -0.310028E+00  0.118973E+01 -0.619539E-01
   Ionic forces                  :  0.000000E+00  0.000000E+00  0.000000E+00
   Multipole                     :  0.388510E+00  0.480389E-01  0.362521E+00
   Hartree pot. SCF incomplete   :  0.105674E-04  0.429309E-05  0.104358E-04
   Pulay + GGA                   : -0.102089E+01 -0.979383E+00 -0.111190E+01
   ----------------------------------------------------------------
   Total forces(  12)            : -0.942398E+00  0.258393E+00 -0.811322E+00


  Self-consistency convergence accuracy:
  | Change of charge density      :  0.1070E-05
  | Change of sum of eigenvalues  : -0.3408E-04 eV
  | Change of total energy        :  0.6790E-07 eV
  | Change of forces              :  0.1518E-05 eV/A

  Writing Kohn-Sham eigenvalues.

  State    Occupation    Eigenvalue [Ha]    Eigenvalue [eV]
      1       2.00000         -55.649902        -1514.31088
      2       2.00000         -55.649898        -1514.31079
      3       2.00000         -55.597754        -1512.89187
      4       2.00000         -24.302995         -661.31814
      5       2.00000         -24.302992         -661.31806
      6       2.00000         -24.279843         -660.68814
      7       2.00000         -24.274632         -660.54636
      8       2.00000         -24.271963         -660.47372
      9       2.00000         -24.220610         -659.07634
     10       2.00000         -24.220603         -659.07614
     11       2.00000         -24.185042         -658.10848
     12       2.00000         -24.184196         -658.08546
     13       2.00000          -4.100431         -111.57840
     14       2.00000          -4.100383         -111.57709
     15       2.00000          -4.052020         -110.26109
     16       2.00000          -2.694182          -73.31243
     17       2.00000          -2.694129          -73.31099
     18       2.00000          -2.692201          -73.25852
     19       2.00000          -2.692013          -73.25340
     20       2.00000          -2.690243          -73.20524
     21       2.00000          -2.689835          -73.19414
     22       2.00000          -2.645452          -71.98642
     23       2.00000          -2.644800          -71.96866
     24       2.00000          -2.640258          -71.84506
     25       2.00000          -1.196279          -32.55240
     26       2.00000          -1.185436          -32.25737
     27       2.00000          -1.175072          -31.97534
     28       2.00000          -1.131866          -30.79963
     29       2.00000          -1.124540          -30.60029
     30       2.00000          -1.059823          -28.83926
     31       2.00000          -1.059654          -28.83466
     32       2.00000          -1.034769          -28.15750
     33       2.00000          -1.030973          -28.05422
     34       2.00000          -0.574364          -15.62924
     35       2.00000          -0.569978          -15.50989
     36       2.00000          -0.561548          -15.28051
     37       2.00000          -0.532083          -14.47871
     38       2.00000          -0.523873          -14.25531
     39       2.00000          -0.507812          -13.81828
     40       2.00000          -0.499328          -13.58742
     41       2.00000          -0.498679          -13.56975
     42       2.00000          -0.485694          -13.21640
     43       2.00000          -0.453067          -12.32858
     44       2.00000          -0.445583          -12.12493
     45       2.00000          -0.434733          -11.82970
     46       2.00000          -0.430960          -11.72701
     47       2.00000          -0.425997          -11.59198
     48       2.00000          -0.418819          -11.39664
     49       2.00000          -0.415723          -11.31241
     50       2.00000          -0.403240          -10.97271
     51       2.00000          -0.399760          -10.87803
     52       2.00000          -0.379896          -10.33750
     53       2.00000          -0.369012          -10.04134
     54       2.00000          -0.368926          -10.03899
     55       2.00000          -0.366247           -9.96608
     56       2.00000          -0.364915           -9.92984
     57       2.00000          -0.343838           -9.35629
     58       2.00000          -0.342760           -9.32696
     59       2.00000          -0.336746           -9.16331
     60       2.00000          -0.331504           -9.02068
     61       0.00000          -0.155352           -4.22733
     62       0.00000          -0.106288           -2.89226
     63       0.00000          -0.069352           -1.88718
     64       0.00000          -0.058643           -1.59576
     65       0.00000          -0.030081           -0.81854
     66       0.00000          -0.000926           -0.02520
     67       0.00000           0.023555            0.64097
     68       0.00000           0.023709            0.64517
     69       0.00000           0.047931            1.30428
     70       0.00000           0.069527            1.89191
     71       0.00000           0.078746            2.14280
     72       0.00000           0.104297            2.83806
     73       0.00000           0.137143            3.73184
     74       0.00000           0.153026            4.16406
     75       0.00000           0.153784            4.18468
     76       0.00000           0.163133            4.43908
     77       0.00000           0.198160            5.39220
     78       0.00000           0.202662            5.51471
     79       0.00000           0.206815            5.62773
     80       0.00000           0.208717            5.67947
     81       0.00000           0.212007            5.76900
     82       0.00000           0.223986            6.09498
     83       0.00000           0.224360            6.10514
     84       0.00000           0.240800            6.55251
     85       0.00000           0.244471            6.65238
     86       0.00000           0.246969            6.72037
     87       0.00000           0.259169            7.05234
     88       0.00000           0.266204            7.24379
     89       0.00000           0.282180            7.67851
     90       0.00000           0.285436            7.76710
     91       0.00000           0.312752            8.51042
     92       0.00000           0.331616            9.02374
     93       0.00000           0.353003            9.60570
     94       0.00000           0.358812            9.76376
     95       0.00000           0.367257            9.99357
     96       0.00000           0.382313           10.40326

  Highest occupied state (VBM) at     -9.02068315 eV
  | Occupation number:      2.00000000

  Lowest unoccupied state (CBM) at    -4.22732979 eV
  | Occupation number:      0.00000000

  Overall HOMO-LUMO gap:      4.79335336 eV.
  | Chemical Potential                          :    -7.46448379 eV

  Self-consistency cycle converged.


------------------------------------------------------------
  End self-consistency iteration #    13       :  max(cpu_time)    wall_clock(cpu1)
  | Time for this iteration                     :        0.269 s           0.267 s
  | Charge density & force component update     :        0.148 s           0.149 s
  | Density mixing                              :        0.005 s           0.002 s
  | Hartree multipole update                    :        0.001 s           0.001 s
  | Hartree multipole summation                 :        0.048 s           0.049 s
  | Hartree pot. SCF incomplete forces          :        0.030 s           0.030 s
  | Integration                                 :        0.031 s           0.031 s
  | Solution of K.-S. eqns.                     :        0.004 s           0.004 s
  | Total energy evaluation                     :        0.000 s           0.000 s

  Partial memory accounting:
  | Current value for overall tracked memory usage:
  |   Minimum:        0.274 MB (on task 23)
  |   Maximum:        0.293 MB (on task  0)
  |   Average:        0.289 MB
  | Peak value for overall tracked memory usage:
  |   Minimum:        2.857 MB (on task 23 after allocating hessian_basis_wave)
  |   Maximum:        3.003 MB (on task  6 after allocating hessian_basis_wave)
  |   Average:        2.910 MB
  | Largest tracked array allocation so far:
  |   Minimum:        1.396 MB (hessian_basis_wave on task  2)
  |   Maximum:        1.473 MB (hessian_basis_wave on task  6)
  |   Average:        1.419 MB
  Note:  These values currently only include a subset of arrays which are explicitly tracked.
  The "true" memory usage will be greater.
------------------------------------------------------------
  Removing unitary transformations (pure translations, rotations) from forces on atoms.
  Atomic forces before filtering:
  | Net force on center of mass :   0.663810E-02 -0.550145E-02 -0.267768E-02 eV/A
  | Net torque on center of mass:   0.706524E-02  0.337323E-02 -0.166679E-01 eV
  Atomic forces after filtering:
  | Net force on center of mass :  -0.535218E-15  0.312211E-15 -0.356812E-15 eV/A
  | Net torque on center of mass:  -0.519247E-15  0.377634E-14  0.103849E-14 eV

  Energy and forces in a compact form:
  | Total energy uncorrected      :         -0.442204630815006E+05 eV
  | Total energy corrected        :         -0.442204630815006E+05 eV  <-- do not rely on this value for anything but (periodic) metals
  | Electronic free energy        :         -0.442204630815006E+05 eV
  Total atomic forces (unitary forces cleaned) [eV/Ang]:
  |    1         -0.840335527504070E+00          0.338637238948251E+01         -0.141147584026708E+00
  |    2          0.127395925052600E+01         -0.102461412285724E+01         -0.132952406854896E+01
  |    3         -0.975658468929022E+00         -0.148344530955605E+01          0.113793897407109E+01
  |    4         -0.159422389973271E+01         -0.201190788155349E+01         -0.182591431074822E+01
  |    5          0.216105936882280E+01         -0.837648215052117E+00          0.181454205423810E+01
  |    6          0.614112512628342E-03         -0.129574898353114E+01         -0.238687994768107E+00
  |    7         -0.117415266762543E+00         -0.265616842663000E+00          0.290157867108265E+00
  |    8          0.231658033219013E+01          0.226266644599021E+01         -0.247275414416689E+01
  |    9         -0.257235025952412E+01          0.126761700101725E+01          0.289232635044285E+01
  |   10          0.317763174120873E+00         -0.175281067147049E+00         -0.188211711028243E+00
  |   11          0.972793300516049E+00         -0.818639272014227E-01          0.872140076942022E+00
  |   12         -0.942786116236007E+00          0.259470513071544E+00         -0.810865509515189E+00

  ------------------------------------ 
  Start decomposition of the XC Energy 
  ------------------------------------ 
  X and C from original XC functional choice 
  Hartree-Fock Energy :          0.000000000 Ha              0.000000000 eV
  X Energy            :       -140.299223522 Ha          -3817.736116305 eV
  C Energy            :         -4.964731681 Ha           -135.097222725 eV
  Total XC Energy     :       -145.263955203 Ha          -3952.833339029 eV
  ------------------------------------ 
  LDA X and C from self-consistent density 
  X Energy LDA        :       -132.895335614 Ha          -3616.266075641 eV
  C Energy LDA        :         -8.833419307 Ha           -240.369569215 eV
  ------------------------------------ 
  End decomposition of the XC Energy 
  ------------------------------------ 

------------------------------------------------------------

------------------------------------------------------------------------------
  Final output of selected total energy values:

  The following output summarizes some interesting total energy values
  at the end of a run (AFTER all relaxation, molecular dynamics, etc.).

  | Total energy of the DFT / Hartree-Fock s.c.f. calculation      :         -44220.463081501 eV
  | Final zero-broadening corrected energy (caution - metals only) :         -44220.463081501 eV
  | For reference only, the value of 1 Hartree used in FHI-aims is :             27.211384500 eV

  Before relying on these values, please be sure to understand exactly which
  total energy value is referred to by a given number. Different objects may
  all carry the same name 'total energy'. Definitions:

  Total energy of the DFT / Hartree-Fock s.c.f. calculation:
  | Note that this energy does not include ANY quantities calculated after the
  | s.c.f. cycle, in particular not ANY RPA, MP2, etc. many-body perturbation terms.

  Final zero-broadening corrected energy:
  | For metallic systems only, a broadening of the occupation numbers at the Fermi
  | level can be extrapolated back to zero broadening by an electron-gas inspired
  | formula. For all systems that are not real metals, this value can be
  | meaningless and should be avoided.

------------------------------------------------------------------------------
  Methods described in the following list of references were used in this FHI-aims run.
  If you publish the results, please make sure to cite these reference if they apply.
  FHI-aims is an academic code, and for our developers (often, Ph.D. students
  and postdocs), scientific credit in the community is essential.
  Thank you for helping us!

  For any use of FHI-aims, please cite:

    Volker Blum, Ralf Gehrke, Felix Hanke, Paula Havu, Ville Havu,
    Xinguo Ren, Karsten Reuter, and Matthias Scheffler
    'Ab initio molecular simulations with numeric atom-centered orbitals'
    Computer Physics Communications 180, 2175-2196 (2009)
    http://dx.doi.org/10.1016/j.cpc.2009.06.022


  The ELSI infrastructure was used in your run to solve the Kohn-Sham electronic structure.
  Please check out http://elsi-interchange.org to learn more.
  If scalability is important for your project, please acknowledge ELSI by citing:

    V. W-z. Yu, F. Corsetti, A. Garcia, W. P. Huhn, M. Jacquelin, W. Jia,
    B. Lange, L. Lin, J. Lu, W. Mi, A. Seifitokaldani, A. Vazquez-Mayagoitia,
    C. Yang, H. Yang, and V. Blum
    'ELSI: A unified software interface for Kohn-Sham electronic structure solvers'
    Computer Physics Communications 222, 267-285 (2018).
    http://dx.doi.org/10.1016/j.cpc.2017.09.007


  For the real-space grid partitioning and parallelization used in this calculation, please cite:

    Ville Havu, Volker Blum, Paula Havu, and Matthias Scheffler,
    'Efficient O(N) integration for all-electron electronic structure calculation'
    'using numerically tabulated basis functions'
    Journal of Computational Physics 228, 8367-8379 (2009).
    http://dx.doi.org/10.1016/j.jcp.2009.08.008

  Of course, there are many other important community references, e.g., those cited in the
  above references. Our list is limited to references that describe implementations in the
  FHI-aims code. The reason is purely practical (length of this list) - please credit others as well.

------------------------------------------------------------
          Leaving FHI-aims.
          Date     :  20220517, Time     :  122051.336

          Computational steps:
          | Number of self-consistency cycles          :           13
          | Number of SCF (re)initializations          :            1

          Detailed time accounting                     :  max(cpu_time)    wall_clock(cpu1)
          | Total time                                  :        1.880 s           5.234 s
          | Preparation time                            :        0.185 s           0.185 s
          | Boundary condition initalization            :        0.000 s           0.000 s
          | Grid partitioning                           :        0.039 s           0.038 s
          | Preloading free-atom quantities on grid     :        0.016 s           0.016 s
          | Free-atom superposition energy              :        0.005 s           0.005 s
          | Total time for integrations                 :        0.452 s           0.451 s
          | Total time for solution of K.-S. equations  :        0.064 s           0.064 s
          | Total time for density & force components   :        0.645 s           0.644 s
          | Total time for mixing                       :        0.056 s           0.029 s
          | Total time for Hartree multipole update     :        0.017 s           0.014 s
          | Total time for Hartree multipole sum        :        0.282 s           0.285 s
          | Total time for total energy evaluation      :        0.002 s           0.001 s
          | Total time NSC force correction             :        0.061 s           0.061 s
          | Total time for scaled ZORA corrections      :        0.000 s           0.000 s

          Partial memory accounting:
          | Residual value for overall tracked memory usage across tasks:     0.000000 MB (should be 0.000000 MB)
          | Peak values for overall tracked memory usage:
          |   Minimum:        2.857 MB (on task 23 after allocating hessian_basis_wave)
          |   Maximum:        3.003 MB (on task  6 after allocating hessian_basis_wave)
          |   Average:        2.910 MB
          | Largest tracked array allocation:
          |   Minimum:        1.396 MB (hessian_basis_wave on task  2)
          |   Maximum:        1.473 MB (hessian_basis_wave on task  6)
          |   Average:        1.419 MB
          Note:  These values currently only include a subset of arrays which are explicitly tracked.
          The "true" memory usage will be greater.

          Have a nice day.
------------------------------------------------------------
