12
Properties=species:S:1:pos:R:3:forces:R:3 energy=-185.40253536 pbc="F F F"
Al    -1.746210261    2.76331562    -1.233929491    0.119268    0.018567    0.112127
Al    -0.33090155499999996    0.055963005999999996    -2.5677873740000003    0.94937    0.41784    -1.023275
Al    -2.404496576    -0.36594171799999997    -0.292414637    -0.972029    0.0269    1.085093
F    -0.6523683410000001    3.749686236    -0.054192457    0.065523    0.098901    0.078052
F    -3.1260686470000003    3.213612593    -2.407926792    0.065538    -0.184893    0.025443
F    -1.39298188    -1.4014956269999999    -1.684271761    0.034355    2.806793    0.55175
F    -2.488472962    1.599528483    0.049051361999999994    0.669801    -0.460384    -1.098953
F    -3.490106963    -1.584858032    0.8586528529999999    -0.837695    -0.859649    0.886011
F    0.896301598    -0.692376941    -3.954591504    0.93015    -0.499956    -1.05386
F    -0.362536925    2.032082114    -2.283755431    -0.917404    -0.783322    0.642701
F    -2.0725441570000003    0.14734395100000003    -2.0163816280000004    0.174581    -0.243711    0.113911
F    -0.650041768    0.005379039000000002    -0.746349208    -0.281457    -0.337085    -0.319001
