********************************************************************************
*                       GENERAL UTILITY LATTICE PROGRAM                        *
*                                 Julian Gale                                  *
*                       Curtin Institute for Computation                       *
*                           Department of Chemistry                            *
*                    Curtin University, Western Australia                      *
********************************************************************************
* Version = 5.1.1 * Last modified =  11th January 2019                         *
********************************************************************************
*  optimise     - perform optimisation run                                     *
*  conp         - constant pressure calculation                                *
*  property     - calculate properties for final geometry                      *
*  phonon       - calculate phonons for final geometry                         *
*  eigenvectors - output phonon eigenvectors                                   *
*  conjugate    - use conjugate gradients minimiser                            *
********************************************************************************

  Job Started  at 11:45.27  5th May        2022                               

  Number of CPUs =     1

  Host name      = login04                                 


  Total number of configurations input =      1

********************************************************************************
*  Input for Configuration =   1                                               *
********************************************************************************

  Formula = Al3F9                                                       

  Number of irreducible atoms/shells =      21


  Total number atoms/shells =      21

  Dimensionality = 0               :  Cluster


  Charge on cluster =  -0.000000


  Initial cluster dipoles : x =      0.776436 e.Angs
                            y =      0.284454 e.Angs
                            z =     -0.713350 e.Angs

  Temperature of configuration =  0.000     K 

  Symmetry number =      1

  Cartesian coordinates of cluster :

--------------------------------------------------------------------------------
   No.  Atomic       x           y          z         Charge      Occupancy
        Label      (Angs)      (Angs)     (Angs)        (e)         (Frac)  
--------------------------------------------------------------------------------
      1 Al    c     -0.0775 *    1.6400 *    2.1557 *   3.00000    1.000000    
      2 Al    c      2.5254      2.6071      1.7657     3.00000    1.000000    
      3 Al    c      1.3579 *    2.6641 *   -0.6468 *   3.00000    1.000000    
      4 F     c      1.0013 *    3.0925 *    2.8358 *   0.59000    1.000000    
      5 F     c     -1.5783 *    2.6835 *    2.1771 *   0.59000    1.000000    
      6 F     c     -0.4921 *   -0.0273 *    2.7534 *   0.59000    1.000000    
      7 F     c      1.8100 *    0.8681 *    1.9342 *   0.59000    1.000000    
      8 F     c      2.9650 *    1.8571 *   -0.0728 *   0.59000    1.000000    
      9 F     c      1.0867 *    3.0343 *   -2.3953 *   0.59000    1.000000    
     10 F     c      1.7471 *    4.0148 *    0.6332 *   0.59000    1.000000    
     11 F     c      4.1108 *    3.1260 *    2.4594 *   0.59000    1.000000    
     12 F     c     -0.0097 *    1.8002 *    0.2124 *   0.59000    1.000000    
     13 F     s      1.0013 *    3.0925 *    2.8358 *  -1.59000    1.000000    
     14 F     s     -1.5783 *    2.6835 *    2.1771 *  -1.59000    1.000000    
     15 F     s     -0.4921 *   -0.0273 *    2.7534 *  -1.59000    1.000000    
     16 F     s      1.8100 *    0.8681 *    1.9342 *  -1.59000    1.000000    
     17 F     s      2.9650 *    1.8571 *   -0.0728 *  -1.59000    1.000000    
     18 F     s      1.0867 *    3.0343 *   -2.3953 *  -1.59000    1.000000    
     19 F     s      1.7471 *    4.0148 *    0.6332 *  -1.59000    1.000000    
     20 F     s      4.1108 *    3.1260 *    2.4594 *  -1.59000    1.000000    
     21 F     s     -0.0097 *    1.8002 *    0.2124 *  -1.59000    1.000000    
--------------------------------------------------------------------------------


  Brillouin zone sampling points :

--------------------------------------------------------------------------------
  Point number          x          y          z            Weight
--------------------------------------------------------------------------------
        1           0.000000   0.000000   0.000000     1.00000000
--------------------------------------------------------------------------------


********************************************************************************
*  General input information                                                   *
********************************************************************************

  Species output for all configurations : 

--------------------------------------------------------------------------------
  Species    Type    Atomic    Atomic    Charge       Radii (Angs)     Library
                     Number     Mass       (e)     Cova   Ionic  VDW   Symbol
--------------------------------------------------------------------------------
    Al       Core       13      26.98   3.000000   1.350  0.000  2.050          
    F        Core        9      19.00   0.590000   0.710  0.000  1.300          
    F        Shell       9       0.00  -1.590000   0.710  0.000  1.300          
--------------------------------------------------------------------------------


  Accuracy factor for short range sums = 12.000

  Time limit = Infinity

  Maximum range for interatomic potentials =    100000.000000 Angstroms

  General interatomic potentials :

--------------------------------------------------------------------------------
Atom  Types   Potential      Parameter       Value         Units   Cutoffs(Ang)
  1     2                                                            Min /  Max 
--------------------------------------------------------------------------------
Al   c F    s Buckingham    Buckingham A     3760.0008    eV        0.000 10.000
                            Buckingham rho  0.22200000    Ang       
                            Buckingham C     0.0000000    eV*Ang^6  
--------------------------------------------------------------------------------
F    s F    s Buck 4 range  Buck4 A          1127.7000    eV        0.000 12.000
                            Buck4 rho       0.27530000    Ang       
                            Buck4 C          15.830000    eV*Ang^6  
                            Buck4 minimum    2.7900000    Ang       
--------------------------------------------------------------------------------
F    c F    s Spring (c-s)  Spring k 2       20.770000    eV*Ang^-2 0.000  0.800
                            Spring k 4       0.0000000    eV*Ang^-4 
--------------------------------------------------------------------------------

********************************************************************************
*  Output for configuration   1                                                *
********************************************************************************


  Components of energy : 

--------------------------------------------------------------------------------
  Interatomic potentials     =          10.39903462 eV    
  Monopole - monopole (real) =        -178.42424641 eV    
--------------------------------------------------------------------------------
  Total lattice energy       =        -168.02521179 eV    
--------------------------------------------------------------------------------
  Total lattice energy       =          -16211.8644 kJ/mol
--------------------------------------------------------------------------------


  Number of variables =       60

  Maximum number of calculations  =          2000
  Maximum Hessian update interval =            10
  Maximum step size               =   1.000000000
  Maximum parameter tolerance     =   0.000001000
  Maximum function  tolerance     =   0.000010000
  Maximum gradient  tolerance     =   0.000000010
  Maximum gradient  component     =   0.010000000

  Symmetry not applied to optimisation

  Cell parameters to be optimised using strains

  Conjugate gradient optimiser to be used

  Lower half triangular hessian to be used

  Minimiser to switch to RFO
  When gradient norm is less than     0.010000

  Start of cluster optimisation :

  Cycle:      0 Energy:      -168.025212  Gnorm:      0.790412  CPU:    0.007
  Cycle:      1 Energy:      -179.655605  Gnorm:      0.465997  CPU:    0.007
  Cycle:      2 Energy:      -181.813640  Gnorm:      0.376602  CPU:    0.008
  Cycle:      3 Energy:      -183.737397  Gnorm:      0.267025  CPU:    0.008
  Cycle:      4 Energy:      -184.592912  Gnorm:      0.204470  CPU:    0.008
  Cycle:      5 Energy:      -185.138590  Gnorm:      0.154390  CPU:    0.008
  Cycle:      6 Energy:      -185.447880  Gnorm:      0.121475  CPU:    0.008
  Cycle:      7 Energy:      -185.647863  Gnorm:      0.097774  CPU:    0.009
  Cycle:      8 Energy:      -185.781075  Gnorm:      0.081361  CPU:    0.009
  Cycle:      9 Energy:      -185.876763  Gnorm:      0.069688  CPU:    0.009
  Cycle:     10 Energy:      -185.957826  Gnorm:      0.060155  CPU:    0.009
  Cycle:     11 Energy:      -186.012084  Gnorm:      0.054437  CPU:    0.010
  Cycle:     12 Energy:      -186.059005  Gnorm:      0.049686  CPU:    0.010
  Cycle:     13 Energy:      -186.098427  Gnorm:      0.045848  CPU:    0.010
  Cycle:     14 Energy:      -186.132380  Gnorm:      0.042571  CPU:    0.010
  Cycle:     15 Energy:      -186.161844  Gnorm:      0.039692  CPU:    0.011
  Cycle:     16 Energy:      -186.187567  Gnorm:      0.037104  CPU:    0.011
  Cycle:     17 Energy:      -186.210108  Gnorm:      0.034744  CPU:    0.011
  Cycle:     18 Energy:      -186.229910  Gnorm:      0.032573  CPU:    0.011
  Cycle:     19 Energy:      -186.247336  Gnorm:      0.030564  CPU:    0.011
  Cycle:     20 Energy:      -186.263604  Gnorm:      0.028584  CPU:    0.012
  Cycle:     21 Energy:      -186.276950  Gnorm:      0.026871  CPU:    0.012
  Cycle:     22 Energy:      -186.288853  Gnorm:      0.025260  CPU:    0.012
  Cycle:     23 Energy:      -186.299369  Gnorm:      0.023761  CPU:    0.012
  Cycle:     24 Energy:      -186.308682  Gnorm:      0.022364  CPU:    0.013
  Cycle:     25 Energy:      -186.316938  Gnorm:      0.021060  CPU:    0.013
  Cycle:     26 Energy:      -186.324265  Gnorm:      0.019845  CPU:    0.013
  Cycle:     27 Energy:      -186.330777  Gnorm:      0.018711  CPU:    0.013
  Cycle:     28 Energy:      -186.336571  Gnorm:      0.017654  CPU:    0.014
  Cycle:     29 Energy:      -186.341734  Gnorm:      0.016668  CPU:    0.014
  Cycle:     30 Energy:      -186.346588  Gnorm:      0.015696  CPU:    0.014
  Cycle:     31 Energy:      -186.350652  Gnorm:      0.014846  CPU:    0.014
  Cycle:     32 Energy:      -186.354316  Gnorm:      0.014048  CPU:    0.014
  Cycle:     33 Energy:      -186.357598  Gnorm:      0.013302  CPU:    0.015
  Cycle:     34 Energy:      -186.360544  Gnorm:      0.012607  CPU:    0.015
  Cycle:     35 Energy:      -186.363193  Gnorm:      0.011957  CPU:    0.015
  Cycle:     36 Energy:      -186.365579  Gnorm:      0.011351  CPU:    0.015
  Cycle:     37 Energy:      -186.367731  Gnorm:      0.010784  CPU:    0.016
  Cycle:     38 Energy:      -186.369676  Gnorm:      0.010254  CPU:    0.016
  Cycle:     39 Energy:      -186.371437  Gnorm:      0.009758  CPU:    0.016
  ** Hessian has required structure
  Cycle:     40 Energy:      -186.373603  Gnorm:      0.009280  CPU:    0.020
  ** Hessian has required structure
  Cycle:     41 Energy:      -186.376822  Gnorm:      0.008517  CPU:    0.021
  ** Hessian has required structure
  Cycle:     42 Energy:      -186.380524  Gnorm:      0.007535  CPU:    0.022
  ** Hessian has required structure
  Cycle:     43 Energy:      -186.384985  Gnorm:      0.006131  CPU:    0.022
  ** Hessian has required structure
  Cycle:     44 Energy:      -186.389873  Gnorm:      0.004028  CPU:    0.023
  ** Hessian has required structure
  Cycle:     45 Energy:      -186.392981  Gnorm:      0.001532  CPU:    0.024
  ** Hessian has required structure
  Cycle:     46 Energy:      -186.393494  Gnorm:      0.000021  CPU:    0.024
  ** Hessian has required structure
  Cycle:     47 Energy:      -186.393495  Gnorm:      0.000026  CPU:    0.025
  ** Hessian has required structure
  Cycle:     48 Energy:      -186.393495  Gnorm:      0.000005  CPU:    0.025
  ** Hessian has required structure
  Cycle:     49 Energy:      -186.393495  Gnorm:      0.000003  CPU:    0.026
  ** Hessian has required structure
  Cycle:     50 Energy:      -186.393495  Gnorm:      0.000000  CPU:    0.026
  ** Hessian has required structure

  XYZ File written as 004/004_eig.xyz



  **** Optimisation achieved ****


  Final energy =    -186.39349496 eV
  Final Gnorm  =       0.00000000

  Components of energy : 

--------------------------------------------------------------------------------
  Interatomic potentials     =          37.44523933 eV    
  Monopole - monopole (real) =        -223.83873429 eV    
--------------------------------------------------------------------------------
  Total lattice energy       =        -186.39349496 eV    
--------------------------------------------------------------------------------
  Total lattice energy       =          -17984.1230 kJ/mol
--------------------------------------------------------------------------------

  Final cartesian coordinates of atoms :

--------------------------------------------------------------------------------
   No.  Atomic        x           y          z          Radius
        Label       (Angs)      (Angs)     (Angs)       (Angs) 
--------------------------------------------------------------------------------
     1  Al    c    -0.077891    1.640772    2.155238    0.000000
     2  Al    c     2.525360    2.607137    1.765722    0.000000
     3  Al    c     1.358354    2.664465   -0.647038    0.000000
     4  F     c     1.001225    3.092987    2.835529    0.000000
     5  F     c    -1.578318    2.684740    2.176301    0.000000
     6  F     c    -0.493111   -0.026394    2.752746    0.000000
     7  F     c     1.809407    0.868294    1.934032    0.000000
     8  F     c     2.965077    1.856948   -0.072770    0.000000
     9  F     c     1.087602    3.034811   -2.395576    0.000000
    10  F     c     1.747775    4.015067    0.633053    0.000000
    11  F     c     4.110859    3.125468    2.459711    0.000000
    12  F     c    -0.009703    1.800969    0.211939    0.000000
    13  F     s     1.065805    2.897258    2.661035    0.000000
    14  F     s    -1.363115    2.542535    2.168477    0.000000
    15  F     s    -0.428176    0.215789    2.665061    0.000000
    16  F     s     1.769215    1.136933    1.918112    0.000000
    17  F     s     2.742387    2.009099   -0.011196    0.000000
    18  F     s     1.131361    2.974977   -2.114416    0.000000
    19  F     s     1.771722    3.736094    0.582312    0.000000
    20  F     s     3.862651    3.044554    2.350830    0.000000
    21  F     s     0.193432    1.903544    0.267636    0.000000
--------------------------------------------------------------------------------


  Final Cartesian derivatives :

--------------------------------------------------------------------------------
   No.  Atomic          x             y             z           Radius
        Label       (eV/Angs)     (eV/Angs)    (eV/Angs)      (eV/Angs)
--------------------------------------------------------------------------------
      1 Al    c      -0.000000      0.000000      0.000000      0.000000
      2 Al    c       0.000000      0.000000      0.000000      0.000000
      3 Al    c      -0.000000      0.000000      0.000000      0.000000
      4 F     c      -0.000000      0.000000      0.000000      0.000000
      5 F     c      -0.000000      0.000000      0.000000      0.000000
      6 F     c      -0.000000     -0.000000     -0.000000      0.000000
      7 F     c       0.000000     -0.000000      0.000000      0.000000
      8 F     c       0.000000     -0.000000     -0.000000      0.000000
      9 F     c      -0.000000     -0.000000      0.000000      0.000000
     10 F     c       0.000000     -0.000000     -0.000000      0.000000
     11 F     c       0.000000      0.000000     -0.000000      0.000000
     12 F     c      -0.000000     -0.000000     -0.000000      0.000000
     13 F     s       0.000000     -0.000000     -0.000000      0.000000
     14 F     s       0.000000     -0.000000      0.000000      0.000000
     15 F     s       0.000000      0.000000     -0.000000      0.000000
     16 F     s      -0.000000      0.000000      0.000000      0.000000
     17 F     s      -0.000000      0.000000      0.000000      0.000000
     18 F     s      -0.000000      0.000000     -0.000000      0.000000
     19 F     s      -0.000000     -0.000000     -0.000000      0.000000
     20 F     s      -0.000000     -0.000000     -0.000000      0.000000
     21 F     s       0.000000      0.000000      0.000000      0.000000
--------------------------------------------------------------------------------
  Maximum abs         0.000000      0.000000      0.000000      0.000000
--------------------------------------------------------------------------------


  Born effective charge tensors : 

-------------------------------------------------------------------------------
  Atom             x           y             z
-------------------------------------------------------------------------------
    1 Al    x       1.3805      0.1650     -0.0964
            y       0.1434      0.6880      0.1042
            z      -0.1713      0.0749      1.5872
-------------------------------------------------------------------------------
    2 Al    x       0.7494     -0.2718     -0.1650
            y      -0.2537      1.0241      0.0003
            z      -0.0739      0.0442      1.5791
-------------------------------------------------------------------------------
    3 Al    x       1.0552      0.0186     -0.0880
            y       0.0316      1.1679      0.0647
            z      -0.0906      0.0699      0.5972
-------------------------------------------------------------------------------
    4 F     x      -0.3640      0.0065      0.0238
            y      -0.1129     -0.3625      0.0022
            z      -0.0089      0.0055     -0.3673
-------------------------------------------------------------------------------
    5 F     x      -0.2316     -0.2572      0.0242
            y      -0.2407     -0.3467     -0.0040
            z       0.0242      0.0165     -0.5589
-------------------------------------------------------------------------------
    6 F     x      -0.5346      0.0937     -0.0247
            y       0.1023     -0.0668     -0.1568
            z      -0.0066     -0.1659     -0.4835
-------------------------------------------------------------------------------
    7 F     x      -0.6173      0.1241     -0.0058
            y       0.2070     -0.2118      0.0088
            z       0.0040     -0.0073     -0.4435
-------------------------------------------------------------------------------
    8 F     x      -0.2116     -0.0532      0.1563
            y      -0.0616     -0.3086     -0.1487
            z       0.0412     -0.0571     -0.5773
-------------------------------------------------------------------------------
    9 F     x      -0.5235     -0.0256      0.0902
            y      -0.0331     -0.5154     -0.1244
            z       0.1084     -0.1101      0.0515
-------------------------------------------------------------------------------
   10 F     x      -0.3409      0.0216     -0.0145
            y       0.0504     -0.3116      0.1630
            z       0.0157      0.0566     -0.3325
-------------------------------------------------------------------------------
   11 F     x      -0.0646      0.1540      0.2161
            y       0.1550     -0.4844      0.0699
            z       0.2164      0.0746     -0.4720
-------------------------------------------------------------------------------
   12 F     x      -0.2971      0.0243     -0.1163
            y       0.0123     -0.2722      0.0208
            z      -0.0588     -0.0017     -0.5800
-------------------------------------------------------------------------------




  Moment of inertia tensor (10^-46 x kgm^2): 

-------------------------------------------------------------------------------
                x           y           z           Principal axis system
-------------------------------------------------------------------------------
       x        139.92      -21.39       11.32          115.112732
       y        -21.39      188.59       19.32          149.069665
       z         11.32       19.32      135.64          199.970164
-------------------------------------------------------------------------------
  Centre of mass (Ang) =     1.210036     2.282689     1.145093
-------------------------------------------------------------------------------


  Vibrational Frequency Calculation : 

--------------------------------------------------------------------------------

  Frequencies (cm-1) and Eigenvectors : 

  Frequency      -0.0019   -0.0002   -0.0000    0.0000    0.0000    0.0012
  IR Intensity    0.0006    0.0006    0.0000    0.0000    0.0000    0.0004
     in X         0.0001    0.0003    0.0000    0.0000    0.0000    0.0000
     in Y         0.0006    0.0000    0.0000    0.0000    0.0000    0.0003
     in Z         0.0000    0.0003    0.0000    0.0000    0.0000    0.0001
  Raman Intsty    0.0000    0.0000    0.0000    0.0000    0.0000    0.0000

     1 x      -0.079605  0.166093 -0.044045  0.122831  0.300164 -0.010779
     1 y       0.203188 -0.040378 -0.027243 -0.303195  0.120078  0.195375
     1 z       0.027621  0.186052 -0.323269  0.008896 -0.050886  0.110410
     2 x      -0.030141  0.041328 -0.043955  0.122825  0.300133  0.109397
     2 y       0.069838  0.152995 -0.027379 -0.303181  0.120126 -0.219966
     2 z       0.027373 -0.168043 -0.323013  0.008887 -0.050973 -0.116857
     3 x       0.121470 -0.231072 -0.043758  0.122818  0.300066 -0.103060
     3 y      -0.304700 -0.108822 -0.027192 -0.303193  0.120063 -0.001788
     3 z      -0.054857 -0.042509 -0.323104  0.008890 -0.050942 -0.008912
     4 x      -0.070505  0.099823 -0.036935  0.103072  0.251882  0.240103
     4 y       0.242698  0.081196 -0.022943 -0.254429  0.100795  0.010741
     4 z      -0.125045 -0.026779 -0.271149  0.007460 -0.042747  0.024506
     5 x      -0.045031  0.067394 -0.036910  0.103073  0.251874  0.133975
     5 y       0.206351 -0.138970 -0.022787 -0.254443  0.100741  0.366955
     5 z      -0.202219  0.236463 -0.271340  0.007467 -0.042682  0.219186
     6 x      -0.134526  0.313079 -0.037085  0.103087  0.251935 -0.188772
     6 y       0.263777 -0.029357 -0.022865 -0.254436  0.100767  0.213994
     6 z       0.236346  0.289469 -0.271378  0.007469 -0.042671  0.107378
     7 x      -0.072178  0.173515 -0.036985  0.103081  0.251901 -0.130728
     7 y       0.098002  0.087237 -0.022947 -0.254427  0.100797 -0.089368
     7 z       0.230533  0.024377 -0.271186  0.007462 -0.042736 -0.060894
     8 x       0.054260 -0.083269 -0.036800  0.103071  0.251837 -0.151574
     8 y      -0.210006  0.055109 -0.022923 -0.254425  0.100791 -0.225074
     8 z       0.151605 -0.139327 -0.271067  0.007458 -0.042775 -0.139754
     9 x       0.201343 -0.382864 -0.036584  0.103061  0.251763 -0.171160
     9 y      -0.496075 -0.209819 -0.022734 -0.254438  0.100727  0.053310
     9 z      -0.112341 -0.031513 -0.271146  0.007460 -0.042748  0.017242
    10 x       0.064690 -0.170454 -0.036739  0.103063  0.251815  0.195152
    10 y      -0.083910  0.008974 -0.022891 -0.254430  0.100779 -0.067524
    10 z      -0.215956 -0.148629 -0.271061  0.007457 -0.042776 -0.023496
    11 x      -0.050172  0.062549 -0.036908  0.103071  0.251873  0.215522
    11 y       0.121629  0.280118 -0.023084 -0.254415  0.100845 -0.406532
    11 z       0.032737 -0.318007 -0.270938  0.007453 -0.042818 -0.214949
    12 x       0.038169 -0.052809 -0.036822  0.103072  0.251845 -0.137201
    12 y      -0.104726 -0.139436 -0.022786 -0.254439  0.100742  0.174879
    12 z       0.004173  0.140686 -0.271271  0.007465 -0.042706  0.089058


  Frequency      40.9413   77.4928   96.4210  117.1859  131.7236  143.8703
  IR Intensity    0.0018    0.0020    0.0042    0.0139    0.0139    0.0063
     in X         0.0002    0.0001    0.0007    0.0055    0.0004    0.0001
     in Y         0.0008    0.0004    0.0032    0.0053    0.0130    0.0052
     in Z         0.0008    0.0015    0.0003    0.0031    0.0005    0.0011
  Raman Intsty    0.0001    0.0013    0.0479    0.0184    0.0553    0.0019

     1 x       0.001003  0.011455  0.041800 -0.005974  0.086555 -0.120134
     1 y      -0.028648  0.100475 -0.062966  0.088327 -0.069665 -0.022244
     1 z      -0.001181 -0.072618  0.076993 -0.115145  0.023889 -0.067004
     2 x      -0.027499  0.044242 -0.075030  0.078768 -0.056531  0.039957
     2 y      -0.058392  0.027889  0.096315  0.032683  0.146456 -0.243104
     2 z      -0.034824  0.073452 -0.062766  0.023620  0.006257  0.042299
     3 x      -0.008231 -0.027224 -0.030051  0.075947 -0.086414  0.064419
     3 y       0.035384 -0.146844  0.061797  0.003798  0.172403  0.389133
     3 z      -0.036830  0.064067 -0.044545 -0.002911  0.033080  0.096434
     4 x       0.039987  0.162202  0.029442 -0.005835 -0.079428  0.006844
     4 y      -0.148564 -0.205636 -0.004810  0.025881  0.200191 -0.211523
     4 z       0.123912  0.333514  0.088305 -0.076023 -0.096636  0.016286
     5 x      -0.000060  0.206270 -0.011279 -0.060827  0.088338 -0.148736
     5 y      -0.018506  0.367622 -0.134330 -0.001449 -0.036720 -0.070510
     5 z      -0.403219 -0.001739  0.334467 -0.067315 -0.140720 -0.195149
     6 x       0.082754 -0.170770  0.121281  0.153241 -0.090929 -0.097443
     6 y       0.210293  0.057401 -0.074939  0.065647 -0.053526  0.027953
     6 z       0.704838 -0.285617  0.089911 -0.029181 -0.062318  0.067562
     7 x      -0.076226  0.006057 -0.159486  0.060839  0.012718  0.047884
     7 y      -0.050531  0.007168  0.068121  0.041484  0.101204 -0.203964
     7 z      -0.269218 -0.244695 -0.329679 -0.167217  0.265063  0.092294
     8 x       0.078918  0.172106  0.005428  0.143553 -0.004387 -0.022941
     8 y       0.151391  0.234909  0.141281  0.109113  0.299634  0.117414
     8 z      -0.090205 -0.016874  0.005438 -0.096102  0.119038  0.028921
     9 x       0.067768 -0.040037  0.428748 -0.592947 -0.020879 -0.118552
     9 y       0.195367 -0.263979 -0.394665 -0.282402 -0.163758 -0.438193
     9 z      -0.007624  0.027633 -0.203925  0.037521 -0.046265 -0.053456
    10 x      -0.157657 -0.374131 -0.073948  0.179929 -0.239952  0.177345
    10 y      -0.044770 -0.129882  0.097358  0.029630  0.179793  0.159733
    10 z       0.103118  0.175060 -0.044802 -0.042711  0.038142  0.227287
    11 x      -0.027316  0.034168 -0.047865 -0.085568  0.255719  0.056398
    11 y      -0.125163  0.162449 -0.188014 -0.222864 -0.600723  0.217206
    11 z       0.036397 -0.032670  0.109780  0.559980 -0.147297 -0.331860
    12 x       0.033214 -0.029797 -0.216912  0.030369  0.145996  0.117978
    12 y      -0.107963 -0.208032  0.376619  0.086232 -0.223044  0.254377
    12 z      -0.111206 -0.031950 -0.013368 -0.006420 -0.004352  0.062641


  Frequency     152.3154  182.9120  201.8898  215.8667  237.7451  250.5731
  IR Intensity    0.0120    0.0154    0.0091    0.0045    0.0164    0.0317
     in X         0.0001    0.0109    0.0011    0.0014    0.0051    0.0168
     in Y         0.0009    0.0038    0.0044    0.0023    0.0000    0.0077
     in Z         0.0110    0.0007    0.0036    0.0008    0.0113    0.0071
  Raman Intsty    0.0394    0.1456    0.0032    0.0197    0.0061    0.0004

     1 x      -0.131613 -0.202848 -0.146562 -0.031488 -0.105159 -0.134868
     1 y       0.121014  0.333831 -0.030727  0.154233 -0.019120  0.097386
     1 z      -0.109779 -0.061303 -0.016946  0.299843 -0.183216  0.098985
     2 x      -0.035687  0.192449 -0.062204 -0.120194 -0.233817 -0.115402
     2 y       0.185693 -0.230132 -0.078767  0.005925 -0.063723  0.053167
     2 z       0.230701 -0.078212 -0.018025 -0.141338  0.101115  0.020218
     3 x       0.202163 -0.161001  0.245332  0.071795  0.205048 -0.108065
     3 y      -0.265316  0.023859 -0.054335 -0.073764  0.099873  0.133851
     3 z       0.069119  0.094527 -0.067623 -0.267795 -0.192265  0.080445
     4 x      -0.150117  0.019303 -0.129674  0.135705 -0.192372 -0.025134
     4 y       0.027310  0.008137  0.024545 -0.102680 -0.075372 -0.040586
     4 z       0.191869 -0.257163 -0.218299  0.407123  0.076191  0.252249
     5 x      -0.308616 -0.384482 -0.134414 -0.217096  0.189603 -0.131471
     5 y      -0.173190  0.020882 -0.042131 -0.119752  0.381956  0.096141
     5 z      -0.087340  0.126197  0.531194 -0.115859  0.194161  0.033196
     6 x       0.221103  0.359432 -0.310041 -0.051799  0.499550  0.216854
     6 y       0.031062  0.171659  0.075084  0.005998 -0.072194 -0.053617
     6 z      -0.074518 -0.096787  0.162416 -0.132816  0.075259 -0.088209
     7 x      -0.077503  0.178608 -0.084046  0.072483 -0.037992 -0.207207
     7 y       0.193992 -0.097839 -0.079631  0.013132 -0.104576  0.096976
     7 z      -0.151833  0.111553 -0.103566  0.268596  0.206101 -0.289537
     8 x       0.183526 -0.015184  0.401916  0.120365 -0.045204 -0.175526
     8 y      -0.084861  0.107631  0.272030  0.059065 -0.133053 -0.046971
     8 z       0.077853 -0.185381 -0.039578 -0.266695  0.115479 -0.033196
     9 x      -0.119375  0.260231 -0.069230 -0.000529 -0.103839  0.096342
     9 y       0.044776 -0.015440  0.087867  0.077954  0.015089 -0.072068
     9 z       0.168672  0.017614  0.012139 -0.218783 -0.165897  0.007546
    10 x       0.024770 -0.193176  0.031267 -0.091951 -0.179771  0.408701
    10 y      -0.136913 -0.106825 -0.014875 -0.100127 -0.046301  0.210308
    10 z       0.049882  0.203226 -0.063594 -0.117056  0.062288 -0.120655
    11 x       0.324203  0.055605 -0.038732 -0.150736 -0.150409 -0.051877
    11 y      -0.136917 -0.063272  0.016760 -0.120767 -0.087473 -0.032751
    11 z      -0.379808  0.096437 -0.133453  0.030175 -0.081001 -0.070788
    12 x      -0.139536 -0.076089  0.289380  0.278753  0.180028  0.296325
    12 y       0.185417 -0.176936 -0.144425  0.184226  0.101629 -0.496338
    12 z      -0.021236  0.037912 -0.025005  0.275550 -0.155637  0.071486


  Frequency     266.0422  274.7420  297.1696  306.0246  372.9147  384.7647
  IR Intensity    0.0586    0.0340    0.0237    0.0041    0.0004    0.0064
     in X         0.0154    0.0326    0.0001    0.0029    0.0004    0.0002
     in Y         0.0216    0.0014    0.0050    0.0011    0.0000    0.0005
     in Z         0.0215    0.0000    0.0186    0.0001    0.0000    0.0058
  Raman Intsty    0.0547    0.4247    0.0905    0.0338    0.1201    0.7009

     1 x       0.111004 -0.174072 -0.049111 -0.081664  0.229058 -0.180568
     1 y       0.077616 -0.130189  0.086474  0.006068  0.114678 -0.049008
     1 z      -0.287419 -0.166038 -0.098496  0.051554 -0.077012  0.213271
     2 x       0.084997 -0.053748  0.033631 -0.028236 -0.166601  0.240614
     2 y       0.146114  0.220460 -0.083155  0.093317 -0.115102 -0.011989
     2 z       0.077535  0.099353 -0.171619 -0.073774  0.244648  0.179037
     3 x       0.070466 -0.127736 -0.017262  0.066716 -0.128822 -0.082000
     3 y       0.171188 -0.085488 -0.089881 -0.029931 -0.048670  0.021539
     3 z      -0.137771  0.023378  0.016472  0.051110 -0.099697 -0.236463
     4 x       0.096182 -0.273475  0.289045 -0.117139 -0.179432 -0.003678
     4 y      -0.105145 -0.356569 -0.293845 -0.074669  0.311759 -0.117822
     4 z       0.227855  0.090529  0.090199 -0.209635  0.143266 -0.134644
     5 x      -0.138449  0.036039 -0.136379 -0.046762  0.099443 -0.119489
     5 y      -0.296811  0.206134 -0.025109  0.109747 -0.139128  0.136539
     5 z       0.269048  0.069589  0.026150 -0.060991  0.001461 -0.028188
     6 x      -0.220641 -0.112816  0.087784 -0.073084  0.018026 -0.026727
     6 y       0.293467 -0.019898  0.098973  0.001190  0.260188 -0.234834
     6 z       0.061236  0.141659 -0.019314 -0.006203 -0.087452  0.053042
     7 x       0.154942  0.498495  0.029994  0.394054  0.241407 -0.076623
     7 y       0.125290  0.071471 -0.135325 -0.063543 -0.396285  0.125147
     7 z       0.024365  0.161714  0.124249 -0.419373 -0.172392 -0.081963
     8 x      -0.285061 -0.017879  0.057359 -0.120125 -0.148718 -0.203563
     8 y      -0.311689  0.146248  0.172847 -0.279909  0.274759  0.210819
     8 z       0.047481 -0.268277  0.570142  0.219109  0.191276  0.274553
     9 x      -0.051500  0.132529 -0.049358  0.026918  0.006399 -0.070791
     9 y      -0.036167 -0.007673  0.095190  0.017622  0.045817  0.083547
     9 z      -0.176078  0.001731  0.066313  0.082035 -0.151853 -0.367952
    10 x      -0.132868  0.266798 -0.024143 -0.297756  0.191254  0.045090
    10 y       0.006348  0.041534  0.261923  0.152674 -0.251662 -0.314866
    10 z       0.102402 -0.175985 -0.446635 -0.048674 -0.050415 -0.058888
    11 x       0.127969  0.087153 -0.052717 -0.006231 -0.098787  0.389073
    11 y      -0.003492 -0.085930 -0.052184 -0.081143 -0.029580  0.128963
    11 z       0.119406  0.016183 -0.017169 -0.006732 -0.083408  0.151017
    12 x       0.131894 -0.193150 -0.162569  0.291584 -0.050508  0.092868
    12 y      -0.142400 -0.001015 -0.019320  0.135267 -0.017364  0.029526
    12 z      -0.261437  0.014463 -0.091683  0.416037  0.128558  0.007313


  Frequency     395.0033  446.8551  475.3310  520.9818  541.4402  576.8230
  IR Intensity    0.0345    0.0497    0.0403    0.0209    0.0483    0.0650
     in X         0.0007    0.0000    0.0287    0.0008    0.0025    0.0030
     in Y         0.0052    0.0015    0.0025    0.0006    0.0033    0.0164
     in Z         0.0286    0.0481    0.0092    0.0195    0.0426    0.0456
  Raman Intsty    0.8009    3.5793    0.0010    1.9722    0.0555    0.0928

     1 x      -0.057530  0.092022  0.227651 -0.042637  0.041171 -0.001572
     1 y       0.091569  0.028814  0.173823 -0.060130  0.066337  0.020939
     1 z       0.515829 -0.066235  0.331364 -0.171825  0.187632  0.109179
     2 x      -0.066038 -0.057439  0.137200  0.010824 -0.265509 -0.126483
     2 y       0.019776  0.107594 -0.075783  0.017538  0.311962 -0.084893
     2 z      -0.130816 -0.337022 -0.071970  0.004915  0.366010  0.391106
     3 x       0.136532 -0.083783 -0.001715 -0.049373  0.145190 -0.033493
     3 y       0.067997 -0.066977  0.012034 -0.052148 -0.237505  0.472119
     3 z      -0.050482 -0.030936 -0.022405 -0.100594 -0.078486  0.111224
     4 x      -0.016469 -0.028417 -0.594966  0.033449  0.334054  0.151793
     4 y       0.125369 -0.280576 -0.350530  0.110811 -0.280068 -0.137338
     4 z       0.045951 -0.168248 -0.025385  0.062245 -0.384136 -0.175562
     5 x      -0.123096  0.098488  0.178257 -0.041277  0.016734  0.076493
     5 y       0.087407 -0.057870 -0.112379  0.040070 -0.049000 -0.069290
     5 z      -0.020505  0.020043 -0.006666 -0.006447 -0.023463 -0.027052
     6 x      -0.063773  0.025057  0.053352 -0.006939  0.043938  0.023078
     6 y      -0.144423  0.158027  0.280592 -0.065080  0.136077  0.104527
     6 z      -0.016295 -0.040651 -0.134689  0.038924 -0.074337 -0.051876
     7 x       0.407053 -0.011271 -0.192435 -0.021620 -0.100052  0.069513
     7 y      -0.039095  0.396379 -0.080854 -0.091521 -0.227095  0.240831
     7 z      -0.117329  0.032818  0.016100  0.002473  0.021680 -0.045013
     8 x       0.099334  0.007327  0.096776  0.352811 -0.194215  0.308023
     8 y      -0.096660  0.083854 -0.086108 -0.193672  0.083077 -0.194120
     8 z       0.137598  0.291874 -0.018027  0.070507 -0.143527 -0.018467
     9 x      -0.068890 -0.010113 -0.030594 -0.064699 -0.010735 -0.008345
     9 y      -0.020694  0.009102  0.010038  0.118724  0.013944  0.001586
     9 z      -0.068602 -0.058922 -0.068230 -0.510607 -0.067410 -0.111528
    10 x       0.090099  0.254882 -0.067024  0.060688  0.046653 -0.092394
    10 y       0.039735 -0.278653  0.178188  0.354292  0.198326 -0.258334
    10 z       0.210972  0.403416 -0.068198  0.270098  0.169992 -0.315257
    11 x      -0.134278 -0.294261  0.185867  0.092547 -0.022326 -0.155179
    11 y      -0.066499 -0.101053  0.058018  0.034070 -0.019452 -0.058559
    11 z      -0.075801 -0.121686  0.065076  0.043152 -0.030977 -0.087623
    12 x      -0.205427  0.016937 -0.061958 -0.308216 -0.019735 -0.180476
    12 y      -0.098851 -0.011947 -0.028132 -0.194797 -0.023584 -0.115687
    12 z      -0.494629  0.158757 -0.042384  0.348424 -0.034035  0.103682


  Frequency     609.9363  675.2974  712.7051  775.8019  817.3357  883.7626
  IR Intensity    0.0606    0.0780    0.0314    0.0128    0.0065    0.0002
     in X         0.0060    0.0544    0.0301    0.0000    0.0012    0.0002
     in Y         0.0498    0.0101    0.0002    0.0128    0.0001    0.0000
     in Z         0.0048    0.0135    0.0011    0.0000    0.0052    0.0000
  Raman Intsty    0.0083    0.1873    0.0026    0.0047    0.1053    1.1953

     1 x       0.060190  0.168383  0.659074  0.079193  0.166751 -0.143108
     1 y      -0.014962  0.040418  0.032828 -0.689631  0.193798 -0.114530
     1 z      -0.022237 -0.032631 -0.078418  0.149988 -0.056282  0.046108
     2 x      -0.119319  0.054276  0.124648 -0.133924 -0.502742  0.469225
     2 y       0.534275  0.086062 -0.040950 -0.111799 -0.255684  0.163286
     2 z      -0.246527 -0.161834  0.203999 -0.068143 -0.020326  0.219053
     3 x      -0.214403  0.624557 -0.155726  0.045261 -0.141167 -0.165280
     3 y       0.254997  0.226206 -0.075071  0.007710  0.063966  0.086667
     3 z       0.068019 -0.115936  0.049987 -0.054041 -0.471604 -0.608219
     4 x       0.022900 -0.071909 -0.078304  0.045964  0.045714 -0.026030
     4 y      -0.050099 -0.030060 -0.096215  0.079274 -0.046861  0.024099
     4 z      -0.012594  0.018592 -0.053872  0.024922 -0.056606  0.026209
     5 x      -0.139033 -0.127691 -0.469214 -0.275642 -0.015285  0.019002
     5 y       0.088718  0.088180  0.300990  0.215701  0.001332 -0.006940
     5 z       0.005206 -0.006304  0.010253 -0.000052  0.005884 -0.001374
     6 x       0.012764 -0.036603 -0.070085  0.118573 -0.032085  0.017201
     6 y      -0.013915 -0.120540 -0.210057  0.492264 -0.140294  0.069392
     6 z       0.004229  0.042712  0.074913 -0.174316  0.048109 -0.022743
     7 x      -0.124201 -0.067022 -0.039258  0.019973  0.070751 -0.047425
     7 y      -0.471405 -0.063518  0.051656  0.093316  0.143368 -0.085623
     7 z       0.047291  0.010723  0.002871 -0.003542 -0.014166  0.000320
     8 x       0.240304 -0.269393  0.046603 -0.010063  0.107097  0.093012
     8 y      -0.155033  0.126159 -0.024007  0.015551 -0.033613 -0.050846
     8 z       0.068758 -0.051096 -0.015416 -0.005307  0.051211  0.051073
     9 x       0.020391 -0.003692 -0.005057  0.002580  0.057643  0.054241
     9 y      -0.036885 -0.031641  0.013209 -0.007902 -0.073544 -0.072498
     9 z       0.079440  0.116455 -0.052706  0.042438  0.352471  0.343098
    10 x       0.054970 -0.035599 -0.011247  0.002535  0.041600  0.007996
    10 y      -0.327482 -0.136326  0.060851  0.007426  0.065258  0.080554
    10 z      -0.008365 -0.062512 -0.015489  0.013732  0.077395  0.065617
    11 x       0.178300 -0.019849 -0.204317  0.135216  0.334938 -0.263111
    11 y       0.032983 -0.009446 -0.059214  0.052302  0.112046 -0.086213
    11 z       0.081957  0.002840 -0.095168  0.061438  0.142119 -0.113754
    12 x       0.059557 -0.377817  0.082534 -0.027852 -0.041772 -0.046546
    12 y       0.010421 -0.243082  0.061924 -0.002106 -0.030172 -0.033298
    12 z      -0.026708  0.298475 -0.064600  0.007555  0.046853  0.060354




--------------------------------------------------------------------------------
  Vibrational properties (for cluster):  Temperature  =       0.000 K
--------------------------------------------------------------------------------
  Zero point energy            =        0.693192 eV
--------------------------------------------------------------------------------

  Phonon density of states : 

--------------------------------------------------------------------------------
 Frequency (cm-1) Density of States                                             
--------------------------------------------------------------------------------
    0.00000 |************************************************************  0.091
   13.80879 |                                                              0.000
   27.61758 |********************                                          0.030
   41.42637 |                                                              0.000
   55.23516 |                                                              0.000
   69.04396 |********************                                          0.030
   82.85275 |********************                                          0.030
   96.66154 |                                                              0.000
  110.47033 |********************                                          0.030
  124.27912 |********************                                          0.030
  138.08791 |********************                                          0.030
  151.89670 |********************                                          0.030
  165.70549 |                                                              0.000
  179.51429 |********************                                          0.030
  193.32308 |********************                                          0.030
  207.13187 |********************                                          0.030
  220.94066 |                                                              0.000
  234.74945 |********************                                          0.030
  248.55824 |********************                                          0.030
  262.36703 |****************************************                      0.061
  276.17582 |                                                              0.000
  289.98461 |********************                                          0.030
  303.79341 |********************                                          0.030
  317.60220 |                                                              0.000
  331.41099 |                                                              0.000
  345.21978 |                                                              0.000
  359.02857 |                                                              0.000
  372.83736 |****************************************                      0.061
  386.64615 |********************                                          0.030
  400.45494 |                                                              0.000
  414.26374 |                                                              0.000
  428.07253 |                                                              0.000
  441.88132 |********************                                          0.030
  455.69011 |                                                              0.000
  469.49890 |********************                                          0.030
  483.30769 |                                                              0.000
  497.11648 |                                                              0.000
  510.92527 |********************                                          0.030
  524.73406 |                                                              0.000
  538.54286 |********************                                          0.030
  552.35165 |                                                              0.000
  566.16044 |********************                                          0.030
  579.96923 |                                                              0.000
  593.77802 |                                                              0.000
  607.58681 |********************                                          0.030
  621.39560 |                                                              0.000
  635.20439 |                                                              0.000
  649.01318 |                                                              0.000
  662.82198 |********************                                          0.030
  676.63077 |                                                              0.000
  690.43956 |                                                              0.000
  704.24835 |********************                                          0.030
  718.05714 |                                                              0.000
  731.86593 |                                                              0.000
  745.67472 |                                                              0.000
  759.48351 |                                                              0.000
  773.29231 |********************                                          0.030
  787.10110 |                                                              0.000
  800.90989 |                                                              0.000
  814.71868 |********************                                          0.030
  828.52747 |                                                              0.000
  842.33626 |                                                              0.000
  856.14505 |                                                              0.000
  869.95384 |********************                                          0.030
--------------------------------------------------------------------------------



  Time to end of optimisation =       0.0305 seconds


  Peak dynamic memory used =       0.66 MB 


  Timing analysis for GULP :

--------------------------------------------------------------------------------
  Task / Subroutine                                          Time (Seconds)
--------------------------------------------------------------------------------
  Calculation of real space energy and derivatives                0.0113
  Calculation of phonons                                          0.0016
  Calculation and manipulation of Hessian matrix                  0.0080
--------------------------------------------------------------------------------
  Total CPU time                                                  0.0305
--------------------------------------------------------------------------------


  Job Finished at 11:45.27  5th May        2022                               

