********************************************************************************
*                       GENERAL UTILITY LATTICE PROGRAM                        *
*                                 Julian Gale                                  *
*                       Curtin Institute for Computation                       *
*                           Department of Chemistry                            *
*                    Curtin University, Western Australia                      *
********************************************************************************
* Version = 5.1.1 * Last modified =  24th November 2018                        *
********************************************************************************
*  optimise     - perform optimisation run                                     *
*  conp         - constant pressure calculation                                *
*  shell        - only shells and radii to be optimised                        *
*  phonon       - calculate phonons for final geometry                         *
*  eigenvectors - output phonon eigenvectors                                   *
********************************************************************************

  Job Started  at 14:40.26 25th May        2022                               

  Number of CPUs =     1

  Host name      = login03                                 


  Total number of configurations input =      1

********************************************************************************
*  Input for Configuration =   1                                               *
********************************************************************************

  Formula = Al3F9                                                       

  Number of irreducible atoms/shells =      21


  Total number atoms/shells =      21

  Dimensionality = 0               :  Cluster


  Charge on cluster =  -0.000000


  Initial cluster dipoles : x =      0.916168 e.Angs
                            y =      0.231061 e.Angs
                            z =     -1.985534 e.Angs

  Temperature of configuration =  0.000     K 

  Symmetry number =      1

  Cartesian coordinates of cluster :

--------------------------------------------------------------------------------
   No.  Atomic       x           y          z         Charge      Occupancy
        Label      (Angs)      (Angs)     (Angs)        (e)         (Frac)  
--------------------------------------------------------------------------------
      1 Al    c      0.3484     -2.3097     -1.9850     3.00000    1.000000    
      2 Al    c      2.1076     -0.5226     -0.9653     3.00000    1.000000    
      3 Al    c     -0.2623      0.3275     -1.9599     3.00000    1.000000    
      4 F     c      3.6195     -0.1814     -0.0194     0.59000    1.000000    
      5 F     c     -0.1724     -4.0336     -2.2174     0.59000    1.000000    
      6 F     c      2.0335     -1.7906     -2.2087     0.59000    1.000000    
      7 F     c      1.4785      0.6061     -2.1859     0.59000    1.000000    
      8 F     c     -1.4888      1.6509     -2.1633     0.59000    1.000000    
      9 F     c     -1.2204     -1.2936     -0.9259     0.59000    1.000000    
     10 F     c     -0.1202     -1.0180     -3.1126     0.59000    1.000000    
     11 F     c      0.4735      0.4272      0.0560     0.59000    1.000000    
     12 F     c      1.0616     -2.1122      0.0318     0.59000    1.000000    
     13 F     s      3.6195 *   -0.1814 *   -0.0194 *  -1.59000    1.000000    
     14 F     s     -0.1724 *   -4.0336 *   -2.2174 *  -1.59000    1.000000    
     15 F     s      2.0335 *   -1.7906 *   -2.2087 *  -1.59000    1.000000    
     16 F     s      1.4785 *    0.6061 *   -2.1859 *  -1.59000    1.000000    
     17 F     s     -1.4888 *    1.6509 *   -2.1633 *  -1.59000    1.000000    
     18 F     s     -1.2204 *   -1.2936 *   -0.9259 *  -1.59000    1.000000    
     19 F     s     -0.1202 *   -1.0180 *   -3.1126 *  -1.59000    1.000000    
     20 F     s      0.4735 *    0.4272 *    0.0560 *  -1.59000    1.000000    
     21 F     s      1.0616 *   -2.1122 *    0.0318 *  -1.59000    1.000000    
--------------------------------------------------------------------------------


  Brillouin zone sampling points :

--------------------------------------------------------------------------------
  Point number          x          y          z            Weight
--------------------------------------------------------------------------------
        1           0.000000   0.000000   0.000000     1.00000000
--------------------------------------------------------------------------------


********************************************************************************
*  General input information                                                   *
********************************************************************************

  Species output for all configurations : 

--------------------------------------------------------------------------------
  Species    Type    Atomic    Atomic    Charge       Radii (Angs)     Library
                     Number     Mass       (e)     Cova   Ionic  VDW   Symbol
--------------------------------------------------------------------------------
    Al       Core       13      26.98   3.000000   1.350  0.000  2.050          
    F        Core        9      19.00   0.590000   0.710  0.000  1.300          
    F        Shell       9       0.00  -1.590000   0.710  0.000  1.300          
--------------------------------------------------------------------------------


  Accuracy factor for short range sums = 12.000

  Time limit = Infinity

  Maximum range for interatomic potentials =    100000.000000 Angstroms

  General interatomic potentials :

--------------------------------------------------------------------------------
Atom  Types   Potential      Parameter       Value         Units   Cutoffs(Ang)
  1     2                                                            Min /  Max 
--------------------------------------------------------------------------------
Al   c F    s Buckingham    Buckingham A     3760.0008    eV        0.000 10.000
                            Buckingham rho  0.22200000    Ang       
                            Buckingham C     0.0000000    eV*Ang^6  
--------------------------------------------------------------------------------
F    s F    s Buck 4 range  Buck4 A          1127.7000    eV        0.000 12.000
                            Buck4 rho       0.27530000    Ang       
                            Buck4 C          15.830000    eV*Ang^6  
                            Buck4 minimum    2.7900000    Ang       
--------------------------------------------------------------------------------
F    c F    s Spring (c-s)  Spring k 2       20.770000    eV*Ang^-2 0.000  0.800
                            Spring k 4       0.0000000    eV*Ang^-4 
--------------------------------------------------------------------------------

********************************************************************************
*  Output for configuration   1                                                *
********************************************************************************


  Components of energy : 

--------------------------------------------------------------------------------
  Interatomic potentials     =          12.31801148 eV    
  Monopole - monopole (real) =        -177.56349166 eV    
--------------------------------------------------------------------------------
  Total lattice energy       =        -165.24548018 eV    
--------------------------------------------------------------------------------
  Total lattice energy       =          -15943.6628 kJ/mol
--------------------------------------------------------------------------------


  Number of variables =       27

  Maximum number of calculations  =          2000
  Maximum Hessian update interval =            10
  Maximum step size               =   1.000000000
  Maximum parameter tolerance     =   0.000001000
  Maximum function  tolerance     =   0.000010000
  Maximum gradient  tolerance     =   0.000000010
  Maximum gradient  component     =   0.010000000

  Symmetry not applied to optimisation

  Newton-Raphson optimiser to be used

  BFGS hessian update to be used

  Lower half triangular hessian to be used

  Minimiser to switch to RFO
  When gradient norm is less than     0.010000

  Shell only optimisation

  Start of cluster optimisation :

  Cycle:      0 Energy:      -165.245480  Gnorm:      1.464985  CPU:    0.006
  ** Hessian calculated **
  Cycle:      1 Energy:      -181.708387  Gnorm:      0.655998  CPU:    0.007
  ** Hessian calculated **
  Cycle:      2 Energy:      -183.366467  Gnorm:      0.036310  CPU:    0.009
  Cycle:      3 Energy:      -183.374119  Gnorm:      0.005224  CPU:    0.010
  ** Hessian has required structure
  Cycle:      4 Energy:      -183.374298  Gnorm:      0.001181  CPU:    0.012
  ** Hessian has required structure
  Cycle:      5 Energy:      -183.374311  Gnorm:      0.000362  CPU:    0.013
  ** Hessian has required structure
  Cycle:      6 Energy:      -183.374312  Gnorm:      0.000103  CPU:    0.015
  ** Hessian has required structure
  Cycle:      7 Energy:      -183.374312  Gnorm:      0.000072  CPU:    0.016
  ** Hessian has required structure
  Cycle:      8 Energy:      -183.374312  Gnorm:      0.000025  CPU:    0.017
  ** Hessian has required structure
  Cycle:      9 Energy:      -183.374312  Gnorm:      0.000025  CPU:    0.019
  ** Hessian has required structure
  Cycle:     10 Energy:      -183.374312  Gnorm:      0.000025  CPU:    0.020
  ** Hessian has required structure
  Cycle:     11 Energy:      -183.374312  Gnorm:      0.000025  CPU:    0.021
  ** Hessian has required structure
  Cycle:     12 Energy:      -183.374312  Gnorm:      0.000000  CPU:    0.023
  ** Hessian has required structure
  Cycle:     13 Energy:      -183.374312  Gnorm:      0.000000  CPU:    0.025
  ** Hessian has required structure
  Cycle:     14 Energy:      -183.374312  Gnorm:      0.000000  CPU:    0.026
  ** Hessian calculated **

  XYZ File written as 006/5/sp_mod_40/sp_mod_40_eig.xyz



  **** Optimisation achieved ****


  Final energy =    -183.37431188 eV
  Final Gnorm  =       0.00000003

  Components of energy : 

--------------------------------------------------------------------------------
  Interatomic potentials     =          38.79996584 eV    
  Monopole - monopole (real) =        -222.17427772 eV    
--------------------------------------------------------------------------------
  Total lattice energy       =        -183.37431188 eV    
--------------------------------------------------------------------------------
  Total lattice energy       =          -17692.8180 kJ/mol
--------------------------------------------------------------------------------

  Final cartesian coordinates of atoms :

--------------------------------------------------------------------------------
   No.  Atomic        x           y          z          Radius
        Label       (Angs)      (Angs)     (Angs)       (Angs) 
--------------------------------------------------------------------------------
     1  Al    c     0.348386   -2.309666   -1.985037    0.000000
     2  Al    c     2.107558   -0.522572   -0.965346    0.000000
     3  Al    c    -0.262324    0.327485   -1.959941    0.000000
     4  F     c     3.619513   -0.181436   -0.019447    0.000000
     5  F     c    -0.172436   -4.033570   -2.217423    0.000000
     6  F     c     2.033530   -1.790577   -2.208673    0.000000
     7  F     c     1.478518    0.606062   -2.185866    0.000000
     8  F     c    -1.488840    1.650888   -2.163328    0.000000
     9  F     c    -1.220449   -1.293646   -0.925915    0.000000
    10  F     c    -0.120216   -1.018046   -3.112561    0.000000
    11  F     c     0.473501    0.427189    0.055970    0.000000
    12  F     c     1.061568   -2.112186    0.031804    0.000000
    13  F     s     3.392382   -0.232352   -0.196256    0.000000
    14  F     s    -0.077486   -3.757294   -2.207540    0.000000
    15  F     s     1.909997   -1.715846   -2.126527    0.000000
    16  F     s     1.400751    0.483169   -2.105601    0.000000
    17  F     s    -1.282077    1.444338   -2.158040    0.000000
    18  F     s    -0.971297   -1.233574   -1.175412    0.000000
    19  F     s    -0.066152   -1.007017   -2.955881    0.000000
    20  F     s     0.582821    0.345211   -0.274579    0.000000
    21  F     s     1.122345   -1.984545   -0.296750    0.000000
--------------------------------------------------------------------------------


  Final Cartesian derivatives :

--------------------------------------------------------------------------------
   No.  Atomic          x             y             z           Radius
        Label       (eV/Angs)     (eV/Angs)    (eV/Angs)      (eV/Angs)
--------------------------------------------------------------------------------
      1 Al    c       0.000000      0.000000      0.000000      0.000000
      2 Al    c       0.000000      0.000000      0.000000      0.000000
      3 Al    c       0.000000      0.000000      0.000000      0.000000
      4 F     c       0.000000      0.000000      0.000000      0.000000
      5 F     c       0.000000      0.000000      0.000000      0.000000
      6 F     c       0.000000      0.000000      0.000000      0.000000
      7 F     c       0.000000      0.000000      0.000000      0.000000
      8 F     c       0.000000      0.000000      0.000000      0.000000
      9 F     c       0.000000      0.000000      0.000000      0.000000
     10 F     c       0.000000      0.000000      0.000000      0.000000
     11 F     c       0.000000      0.000000      0.000000      0.000000
     12 F     c       0.000000      0.000000      0.000000      0.000000
     13 F     s      -0.000000     -0.000000     -0.000000      0.000000
     14 F     s       0.000000      0.000000     -0.000000      0.000000
     15 F     s      -0.000000      0.000000      0.000000      0.000000
     16 F     s      -0.000000     -0.000000      0.000000      0.000000
     17 F     s       0.000000     -0.000000     -0.000000      0.000000
     18 F     s      -0.000000     -0.000000      0.000000      0.000000
     19 F     s       0.000000      0.000000      0.000000      0.000000
     20 F     s      -0.000000     -0.000000      0.000000      0.000000
     21 F     s      -0.000000     -0.000000      0.000000      0.000000
--------------------------------------------------------------------------------
  Maximum abs         0.000000      0.000000      0.000000      0.000000
--------------------------------------------------------------------------------


  Born effective charge tensors : 

-------------------------------------------------------------------------------
  Atom             x           y             z
-------------------------------------------------------------------------------
    1 Al    x       1.1817     -0.3705      0.0902
            y      -0.3880      0.7605      0.4186
            z       0.0753      0.3769      1.4953
-------------------------------------------------------------------------------
    2 Al    x       1.3695      0.0093     -0.5614
            y       0.0089      1.3557     -0.1239
            z      -0.5150     -0.1132      0.7123
-------------------------------------------------------------------------------
    3 Al    x       0.8030      0.3840      0.2749
            y       0.4020      1.1531     -0.3442
            z       0.2435     -0.3133      1.4814
-------------------------------------------------------------------------------
    4 F     x      -0.1231      0.0947      0.3054
            y       0.0953     -0.5231      0.0689
            z       0.2411      0.0540     -0.3552
-------------------------------------------------------------------------------
    5 F     x      -0.4885      0.1633      0.0060
            y       0.1876      0.0173      0.0333
            z       0.0267      0.0912     -0.5302
-------------------------------------------------------------------------------
    6 F     x      -0.2040      0.0678     -0.0333
            y       0.0420     -0.2467      0.0894
            z       0.0120      0.0448     -0.2535
-------------------------------------------------------------------------------
    7 F     x      -0.1687     -0.0301      0.0084
            y      -0.0048     -0.2795     -0.0954
            z       0.0300     -0.0353     -0.2560
-------------------------------------------------------------------------------
    8 F     x      -0.2519     -0.2958      0.0135
            y      -0.3207     -0.2173     -0.0203
            z       0.0571     -0.0633     -0.5322
-------------------------------------------------------------------------------
    9 F     x      -0.6026      0.0294      0.0836
            y       0.0298     -0.7264      0.0162
            z       0.0505      0.0085     -0.4029
-------------------------------------------------------------------------------
   10 F     x      -0.3243     -0.0398      0.0418
            y      -0.0391     -0.1635      0.0103
            z      -0.0251     -0.0052     -0.2163
-------------------------------------------------------------------------------
   11 F     x      -0.6536      0.1059     -0.0991
            y       0.1184     -0.5061     -0.0880
            z      -0.0884     -0.0582     -0.5722
-------------------------------------------------------------------------------
   12 F     x      -0.5375     -0.1184     -0.1300
            y      -0.1312     -0.6240      0.0351
            z      -0.1075      0.0130     -0.5704
-------------------------------------------------------------------------------




  Moment of inertia tensor (10^-46 x kgm^2): 

-------------------------------------------------------------------------------
                x           y           z           Principal axis system
-------------------------------------------------------------------------------
       x        130.28        2.68      -23.00          119.668471
       y          2.68      120.34       -5.80          119.668476
       z        -23.00       -5.80      169.51          180.792631
-------------------------------------------------------------------------------
  Centre of mass (Ang) =     0.662114    -0.852343    -1.487036
-------------------------------------------------------------------------------


  Vibrational Frequency Calculation : 

--------------------------------------------------------------------------------

  Frequencies (cm-1) and Eigenvectors : 

  Frequency    -296.8744 -168.0603 -168.0601  -55.3557  -55.3556  -39.9267
  IR Intensity    0.0000    0.0638    0.0638    0.0006    0.0006    0.0000
     in X         0.0000    0.0021    0.0507    0.0001    0.0004    0.0000
     in Y         0.0000    0.0593    0.0038    0.0005    0.0001    0.0000
     in Z         0.0000    0.0024    0.0094    0.0000    0.0001    0.0000
  Raman Intsty    0.0000    0.0000    0.0000    0.0000    0.0000    0.0000

     1 x       0.285472  0.254720  0.104721 -0.014628  0.022379 -0.206498
     1 y      -0.102396 -0.001380 -0.044194  0.014529 -0.015824  0.074069
     1 z       0.119807 -0.579974  0.094571  0.062729 -0.048450 -0.086663
     2 x      -0.073565 -0.112032  0.304866 -0.008664 -0.060441  0.053214
     2 y       0.317666 -0.158205  0.012422 -0.011026 -0.012969 -0.229787
     2 z       0.003023  0.234060 -0.487499  0.010132  0.057775 -0.002187
     3 x      -0.211907 -0.199100 -0.130216  0.010535  0.009933  0.153285
     3 y      -0.215270 -0.142683 -0.044667  0.027907  0.016344  0.155717
     3 z      -0.122830  0.284708  0.512941 -0.075092 -0.023753  0.088850
     4 x       0.008622  0.000169  0.013176 -0.043099 -0.170786  0.096067
     4 y      -0.037232 -0.024113 -0.008491  0.046504 -0.052092 -0.414832
     4 z      -0.000354  0.004968 -0.010840  0.046534  0.260186 -0.003948
     5 x      -0.033459  0.006892  0.022385 -0.123318  0.039189 -0.372792
     5 y       0.012002 -0.004414 -0.007886  0.021892  0.004707  0.133717
     5 z      -0.014042 -0.014977  0.010712  0.213967 -0.206732 -0.156453
     6 x       0.151889  0.226984  0.136253  0.169828  0.113883 -0.119223
     6 y       0.154299  0.015602 -0.177746 -0.422239 -0.100469 -0.121116
     6 z       0.088041 -0.043666 -0.178728  0.378614  0.167838 -0.069106
     7 x      -0.204618 -0.164955 -0.137898  0.049735  0.044474  0.160613
     7 y       0.073394 -0.228282  0.070648 -0.372831  0.282205 -0.057612
     7 z      -0.085874  0.163745 -0.075043 -0.305102  0.292451  0.067405
     8 x       0.024837 -0.015673  0.007090  0.106653 -0.000178  0.276725
     8 y       0.025231 -0.017619  0.004707  0.078754 -0.010935  0.281116
     8 z       0.014397  0.000666  0.018450 -0.270953 -0.121045  0.160400
     9 x      -0.093265  0.083371 -0.247010 -0.073400 -0.136822 -0.056492
     9 y       0.402737  0.152471  0.005810  0.200579 -0.067374  0.243944
     9 z       0.003832 -0.053060  0.112891 -0.048155 -0.283789  0.002322
    10 x       0.052729 -0.075247  0.067105  0.122726  0.596356 -0.041390
    10 y      -0.227694  0.141855  0.089187 -0.047706  0.152283  0.178725
    10 z      -0.002167 -0.134421  0.281891 -0.013649 -0.073176  0.001701
    11 x       0.361920 -0.057949 -0.121718 -0.009941 -0.237216  0.219221
    11 y      -0.129817  0.154976  0.033769  0.246826 -0.119227 -0.078632
    11 z       0.151892  0.241819 -0.070697 -0.141353  0.015663  0.092002
    12 x      -0.268655  0.063631 -0.072292 -0.183981 -0.215382 -0.162728
    12 y      -0.272918  0.169719  0.081090  0.210791 -0.074264 -0.165310
    12 z      -0.155724 -0.092139 -0.231648  0.142756 -0.034203 -0.094324


  Frequency      -0.0000   -0.0000    0.0000  101.3683  101.3685  132.9707
  IR Intensity    0.0000    0.0000    0.0000    0.0026    0.0026    0.0228
     in X         0.0000    0.0000    0.0000    0.0000    0.0021    0.0183
     in Y         0.0000    0.0000    0.0000    0.0025    0.0000    0.0003
     in Z         0.0000    0.0000    0.0000    0.0000    0.0005    0.0042
  Raman Intsty    0.0000    0.0000    0.0000    0.0000    0.0000    0.0000

     1 x       0.123838  0.289646 -0.088647 -0.002864  0.057194 -0.063072
     1 y      -0.302841  0.120405 -0.029650  0.017351 -0.013698 -0.024889
     1 z       0.006373  0.093257  0.313610 -0.042901  0.006589 -0.059547
     2 x       0.123838  0.289646 -0.088647 -0.015296 -0.010075 -0.132362
     2 y      -0.302841  0.120405 -0.029650  0.059064 -0.010787 -0.024323
     2 z       0.006373  0.093257  0.313610  0.005846  0.040959  0.000129
     3 x       0.123838  0.289646 -0.088647  0.006773  0.045134 -0.071248
     3 y      -0.302841  0.120405 -0.029650  0.024992  0.032038  0.013239
     3 z       0.006373  0.093257  0.313610  0.043602 -0.004098 -0.067832
     4 x       0.103923  0.243065 -0.074391 -0.102228 -0.317604  0.052928
     4 y      -0.254138  0.101042 -0.024882  0.250232 -0.114378 -0.043043
     4 z       0.005348  0.078260  0.263176  0.076695  0.576394 -0.268588
     5 x       0.103923  0.243065 -0.074391  0.154186  0.320317  0.499507
     5 y      -0.254138  0.101042 -0.024882  0.049417 -0.071159 -0.241970
     5 z       0.005348  0.078260  0.263176 -0.608097 -0.146558  0.326224
     6 x       0.103923  0.243065 -0.074391  0.075129 -0.013410 -0.046680
     6 y      -0.254138  0.101042 -0.024882 -0.147716  0.157250 -0.033997
     6 z       0.005348  0.078260  0.263176  0.215733 -0.139097  0.012949
     7 x       0.103923  0.243065 -0.074391  0.010959  0.055526 -0.057265
     7 y      -0.254138  0.101042 -0.024882 -0.193119 -0.098928  0.012538
     7 z       0.005348  0.078260  0.263176 -0.247497 -0.081980  0.004051
     8 x       0.103923  0.243065 -0.074391 -0.087763  0.287404  0.285026
     8 y      -0.254138  0.101042 -0.024882  0.019238  0.209294  0.397978
     8 z       0.005348  0.078260  0.263176  0.551987 -0.293213  0.341980
     9 x       0.103923  0.243065 -0.074391  0.018992 -0.032178 -0.177626
     9 y      -0.254138  0.101042 -0.024882 -0.099234  0.005120 -0.032232
     9 z       0.005348  0.078260  0.263176  0.009231  0.079121 -0.171864
    10 x       0.103923  0.243065 -0.074391 -0.052576 -0.313636  0.021690
    10 y      -0.254138  0.101042 -0.024882  0.042381 -0.080555  0.010364
    10 z       0.005348  0.078260  0.263176  0.012497  0.093207 -0.056263
    11 x       0.103923  0.243065 -0.074391  0.068516 -0.067874 -0.108497
    11 y      -0.254138  0.101042 -0.024882  0.001798  0.035360 -0.074608
    11 z       0.005348  0.078260  0.263176 -0.055046 -0.063483 -0.021696
    12 x       0.103923  0.243065 -0.074391 -0.071646 -0.028477 -0.151294
    12 y      -0.254138  0.101042 -0.024882 -0.043837 -0.051004  0.047836
    12 z       0.005348  0.078260  0.263176  0.036695 -0.076167 -0.015156


  Frequency     132.9709  135.7636  180.5312  229.1521  244.4756  244.4756
  IR Intensity    0.0228    0.0282    0.0000    0.0214    0.0564    0.0564
     in X         0.0005    0.0049    0.0000    0.0037    0.0450    0.0016
     in Y         0.0222    0.0003    0.0000    0.0002    0.0011    0.0547
     in Z         0.0000    0.0230    0.0000    0.0174    0.0103    0.0001
  Raman Intsty    0.0000    0.1592    0.0000    0.0054    0.0000    0.0000

     1 x      -0.023676 -0.050931  0.196016 -0.065594  0.111628 -0.051718
     1 y       0.108614 -0.028131 -0.070309 -0.020732  0.094151 -0.251453
     1 z       0.059758  0.097307  0.082265  0.138575  0.028710  0.014789
     2 x      -0.006676 -0.031422 -0.050513 -0.060246  0.214830  0.006454
     2 y       0.076907 -0.008311  0.218122 -0.015300  0.042417 -0.088438
     2 z       0.000703  0.108618  0.002076  0.141675  0.179758 -0.012040
     3 x      -0.015503 -0.057704 -0.145504 -0.067451  0.160187  0.138064
     3 y       0.108304  0.001118 -0.147812 -0.012716 -0.060953 -0.196761
     3 z      -0.047425  0.097586 -0.084340  0.138651  0.024881 -0.022381
     4 x       0.154346  0.269956  0.087530  0.060110  0.295551 -0.046716
     4 y      -0.681455  0.066464 -0.377967  0.014533  0.075893  0.117304
     4 z       0.015152 -0.414608 -0.003597 -0.064393  0.057607 -0.002435
     5 x       0.378426  0.187909 -0.339657  0.028396 -0.079930 -0.085118
     5 y      -0.003405 -0.016902  0.121833 -0.017684  0.157762 -0.229213
     5 z      -0.086830 -0.462148 -0.142548 -0.082776  0.020540 -0.144546
     6 x      -0.001051 -0.033309  0.118347 -0.245486  0.079241 -0.179823
     6 y       0.018382 -0.077359  0.120226  0.395692  0.246975  0.068148
     6 z       0.057364  0.193038  0.068599 -0.269971 -0.006352 -0.183006
     7 x       0.001829 -0.063114 -0.159433 -0.047702  0.194770  0.108948
     7 y       0.016205  0.051344  0.057187 -0.458373 -0.168363  0.159113
     7 z      -0.058421  0.194264 -0.066911 -0.278098  0.012608  0.184825
     8 x      -0.388772  0.159422  0.252129  0.017387  0.019772  0.176722
     8 y      -0.237846  0.106123  0.256131  0.029858 -0.197080 -0.147671
     8 z       0.030737 -0.460979  0.146145 -0.082323  0.034724  0.137486
     9 x      -0.005592 -0.062599  0.071163 -0.095376 -0.428054  0.011307
     9 y       0.088636 -0.015933 -0.307294 -0.022523 -0.091324  0.072285
     9 z       0.014686  0.150882 -0.002924  0.045863 -0.361619  0.023212
    10 x      -0.014923 -0.148962  0.041085  0.522022 -0.259045  0.073728
    10 y       0.056047 -0.035872 -0.177413  0.120393 -0.076286 -0.243763
    10 z       0.005081  0.144496 -0.001688  0.052138  0.000920 -0.002423
    11 x       0.048885 -0.069930 -0.276151 -0.017948 -0.139362  0.146227
    11 y       0.221691 -0.023384  0.099054  0.056134 -0.218970  0.488717
    11 z      -0.029724  0.146638 -0.115895  0.090743 -0.021347 -0.013361
    12 x      -0.118505 -0.072476  0.204987  0.008931 -0.262845 -0.315858
    12 y       0.171613 -0.012388  0.208242 -0.059938  0.181286  0.354575
    12 z       0.036421  0.146742  0.118820  0.089639 -0.015148  0.023643


  Frequency     262.0075  262.0076  295.8459  295.8461  302.5103  387.6687
  IR Intensity    0.0109    0.0109    0.0128    0.0128    0.0023    0.0335
     in X         0.0077    0.0013    0.0028    0.0078    0.0004    0.0058
     in Y         0.0012    0.0096    0.0099    0.0028    0.0000    0.0004
     in Z         0.0020    0.0000    0.0002    0.0022    0.0018    0.0274
  Raman Intsty    0.0000    0.0000    0.0000    0.0000    0.8598    1.3353

     1 x      -0.229541 -0.102699 -0.088793  0.093663  0.017378 -0.004254
     1 y       0.150127 -0.049835 -0.110411 -0.182756  0.076223 -0.224340
     1 z       0.077538 -0.265397 -0.172790 -0.102790  0.023739 -0.181602
     2 x       0.254528 -0.027607  0.045474 -0.272900 -0.074323  0.280730
     2 y       0.020357  0.277165  0.155645 -0.020988 -0.016932  0.065168
     2 z      -0.146957 -0.018125 -0.009447  0.037037 -0.029414 -0.016413
     3 x      -0.166295  0.072062  0.106726  0.072554  0.049212 -0.103188
     3 y      -0.226638 -0.069841 -0.165162  0.140114 -0.061241  0.202876
     3 z      -0.002320  0.274974  0.197540  0.009122  0.022430 -0.177537
     4 x       0.033948  0.018214  0.080109 -0.226008 -0.076053  0.308615
     4 y       0.014121 -0.055976 -0.039396 -0.068495 -0.017102  0.069389
     4 z       0.230273  0.031940  0.023625 -0.082430 -0.053631  0.218540
     5 x       0.110544 -0.057606  0.001482 -0.072782  0.029110 -0.118568
     5 y       0.075286 -0.126283 -0.179688 -0.161740  0.089730 -0.364573
     5 z      -0.072736  0.128131 -0.041681 -0.074899  0.007327 -0.029073
     6 x      -0.239256 -0.152283 -0.235631  0.061494  0.048161 -0.174334
     6 y      -0.132394  0.119625  0.102681 -0.020557  0.018105  0.084691
     6 z       0.019999  0.305103  0.230580 -0.053478 -0.114818  0.152333
     7 x      -0.285298  0.004148  0.114446  0.128149  0.050736 -0.118726
     7 y      -0.036922  0.176551  0.143128  0.147144  0.006983 -0.155435
     7 z       0.104181 -0.284535 -0.163030 -0.167514 -0.114924  0.150048
     8 x       0.097396  0.139092  0.139400 -0.073027  0.065618 -0.266867
     8 y       0.006717 -0.087323 -0.198892  0.008467 -0.067917  0.275810
     8 z      -0.034736 -0.145438  0.071384 -0.040043  0.005826 -0.022979
     9 x      -0.109534  0.090281 -0.038699 -0.291920  0.413901  0.197939
     9 y       0.042234 -0.450626  0.511758  0.086239  0.092526  0.045947
     9 z      -0.109328 -0.019771  0.033611 -0.097108  0.349283 -0.011346
    10 x       0.037834 -0.052480 -0.011248  0.033175  0.058156  0.041456
    10 y      -0.024101  0.246270  0.004673  0.006312  0.014520  0.007289
    10 z      -0.371273 -0.050010 -0.099509  0.339272 -0.110621  0.242896
    11 x       0.284537  0.295676 -0.377272  0.275432 -0.186064 -0.003108
    11 y      -0.197799  0.016343 -0.069007 -0.313031 -0.516965 -0.158292
    11 z       0.147908  0.087661 -0.201932  0.069881  0.001517 -0.127883
    12 x       0.238216 -0.215635  0.251853  0.292615 -0.394350 -0.072903
    12 y       0.319774 -0.026250 -0.132347  0.391485  0.382443  0.143096
    12 z       0.171198 -0.042894  0.128717  0.173803  0.010075 -0.125015


  Frequency     403.0204  403.0204  469.7194  543.2385  543.2385  554.1002
  IR Intensity    0.0015    0.0015    0.0532    0.0062    0.0062    0.1659
     in X         0.0003    0.0009    0.0092    0.0011    0.0040    0.0288
     in Y         0.0011    0.0003    0.0006    0.0050    0.0011    0.0018
     in Z         0.0000    0.0003    0.0434    0.0001    0.0011    0.1352
  Raman Intsty    0.0000    0.0000    9.4764    0.0000    0.0000    0.0375

     1 x       0.134634 -0.014168  0.031736 -0.178650  0.010215  0.146685
     1 y      -0.002971  0.052702 -0.075963  0.010082 -0.055379  0.005289
     1 z      -0.081706 -0.151166 -0.140543  0.152712  0.222347 -0.344992
     2 x       0.044331 -0.052633  0.138913 -0.061707  0.110101  0.187154
     2 y      -0.109924 -0.049358  0.032916  0.134230  0.064463  0.046400
     2 z      -0.051158  0.169612 -0.078418  0.064216 -0.256359 -0.321536
     3 x      -0.105544 -0.056434 -0.005471  0.144386  0.059188  0.132635
     3 y      -0.025648 -0.077039  0.084705  0.056911  0.086271  0.065956
     3 z       0.150620 -0.083885 -0.139013 -0.237798  0.127940 -0.344414
     4 x      -0.020019  0.063194  0.179717  0.094027 -0.373581 -0.235323
     4 y       0.001267  0.016222  0.040297  0.010397 -0.087023 -0.053510
     4 z      -0.004273  0.014699  0.138869  0.055200 -0.225799 -0.103642
     5 x       0.003283  0.011010 -0.074633 -0.086272 -0.095817  0.060082
     5 y       0.044460  0.044003 -0.218090 -0.316501 -0.298382  0.246582
     5 z       0.018438  0.022546 -0.008563 -0.044449 -0.048107  0.067587
     6 x       0.065064  0.073958  0.204156  0.331818  0.216903 -0.195346
     6 y       0.078801  0.072062 -0.076651 -0.038342  0.329685  0.100861
     6 z      -0.166718  0.092263 -0.217874 -0.161374  0.228741  0.160247
     7 x      -0.131024  0.032668  0.148772 -0.406209  0.172498 -0.130458
     7 y       0.051267 -0.007231  0.162507 -0.067789 -0.266335 -0.179335
     7 z       0.091550  0.167680 -0.215598  0.037882  0.271940  0.157580
     8 x      -0.034863  0.012404 -0.162932  0.292730 -0.092623  0.162633
     8 y       0.051639 -0.008433  0.163203 -0.323912  0.086853 -0.196252
     8 z      -0.026643  0.008745 -0.004935  0.054584 -0.020168  0.063373
     9 x       0.119979 -0.407196 -0.250191 -0.009652 -0.010371 -0.128216
     9 y       0.029384 -0.099801 -0.060830  0.050073  0.010511 -0.031404
     9 z      -0.170207  0.577687  0.303771  0.002914 -0.009849  0.179863
    10 x      -0.064795  0.112842 -0.010763 -0.085439 -0.090461  0.056451
    10 y       0.116662  0.066412  0.000439  0.441237  0.095450  0.010541
    10 z       0.043548 -0.143403 -0.308072  0.088741 -0.344265  0.265919
    11 x       0.187214  0.196684 -0.135404 -0.035595  0.029540 -0.081035
    11 y      -0.035409 -0.037196  0.055780  0.003055 -0.019898  0.016526
    11 z      -0.476309 -0.500478  0.370307 -0.011394  0.015791  0.207211
    12 x      -0.212330  0.051289 -0.095554  0.018954  0.030009 -0.064656
    12 y      -0.172978  0.041781 -0.116297  0.001999  0.035511 -0.054203
    12 z       0.669457 -0.161758  0.368670  0.002765  0.019788  0.206538


  Frequency     610.7446  664.0942  664.0944  823.9447  823.9448  932.5798
  IR Intensity    0.0000    0.0762    0.0762    0.0063    0.0063    0.0032
     in X         0.0000    0.0581    0.0048    0.0051    0.0002    0.0006
     in Y         0.0000    0.0040    0.0714    0.0001    0.0061    0.0000
     in Z         0.0000    0.0141    0.0000    0.0012    0.0000    0.0026
  Raman Intsty    0.0000    0.0000    0.0000    0.0000    0.0000    2.4794

     1 x      -0.304812 -0.483721  0.235138 -0.010496 -0.242949  0.171856
     1 y       0.109333  0.155856 -0.112929 -0.289393 -0.525343  0.485927
     1 z      -0.127924 -0.129801  0.217249  0.045264  0.001812  0.005819
     2 x       0.078549  0.057373  0.136263 -0.465359 -0.060655 -0.393070
     2 y      -0.339188 -0.004134 -0.595608 -0.112386  0.097807 -0.087966
     2 z      -0.003228 -0.117201 -0.002205 -0.421296 -0.031570 -0.321636
     3 x       0.226264 -0.375475 -0.140546 -0.203876  0.422804  0.367974
     3 y       0.229854 -0.361487 -0.179811  0.307546 -0.321492 -0.360947
     3 z       0.131153 -0.147389 -0.211901  0.051421 -0.002406 -0.002240
     4 x      -0.000719  0.017630 -0.006937  0.364303  0.028428  0.195159
     4 y       0.003105  0.004762  0.027564  0.082271  0.005272  0.044025
     4 z       0.000030  0.019180 -0.000303  0.229294  0.017724  0.122944
     5 x       0.002790  0.026431 -0.004561  0.053747  0.114555 -0.067636
     5 y      -0.001000  0.005186  0.025390  0.180485  0.376271 -0.222941
     5 z       0.001171  0.007286 -0.008080  0.023450  0.049943 -0.029383
     6 x       0.299126  0.332982 -0.078062  0.045356  0.142156 -0.074498
     6 y       0.303873  0.181869  0.211074  0.123159  0.031932  0.033542
     6 z       0.173386  0.028086  0.260959  0.102791 -0.029231  0.069739
     7 x      -0.402970  0.377080 -0.046102  0.115943 -0.125262 -0.051880
     7 y       0.144542 -0.003942  0.229211 -0.086142 -0.048154 -0.064127
     7 z      -0.169119  0.010979 -0.257873  0.095049  0.044350  0.068810
     8 x      -0.002071  0.025590 -0.008556  0.167472 -0.245663 -0.158867
     8 y      -0.002103  0.008273  0.024214 -0.181584  0.263670  0.171011
     8 z      -0.001201  0.007794  0.008110  0.026875 -0.039960 -0.025634
     9 x      -0.003313  0.090223 -0.011466  0.017508 -0.009452 -0.027047
     9 y       0.014308  0.022397  0.037337  0.000362  0.046691 -0.006394
     9 z       0.000136 -0.033698  0.001358 -0.009204 -0.000268  0.013741
    10 x       0.103844  0.033632 -0.089956 -0.016511 -0.042285  0.013272
    10 y      -0.448417  0.016631  0.383661 -0.016945  0.175771  0.002059
    10 z      -0.004268  0.326735 -0.006000 -0.128695 -0.008268  0.106575
    11 x       0.012858  0.022573 -0.028411  0.036113 -0.021391 -0.005444
    11 y      -0.004612  0.020140  0.055923 -0.009525  0.014835  0.015552
    11 z       0.005396  0.053722  0.059741  0.023057  0.007530  0.026263
    12 x      -0.009545  0.029342 -0.001046  0.026063  0.016869  0.002056
    12 y      -0.009696 -0.005352  0.064216  0.020210  0.026281 -0.016833
    12 z      -0.005533  0.049889 -0.061656  0.024201 -0.003492  0.025955




--------------------------------------------------------------------------------
  Vibrational properties (for cluster):  Temperature  =       0.000 K
--------------------------------------------------------------------------------
  Zero point energy            =        0.666091 eV
--------------------------------------------------------------------------------

  Phonon density of states : 

--------------------------------------------------------------------------------
 Frequency (cm-1) Density of States                                             
--------------------------------------------------------------------------------
    0.00000 |********************                                          0.036
   14.57156 |                                                              0.000
   29.14312 |                                                              0.000
   43.71468 |                                                              0.000
   58.28624 |                                                              0.000
   72.85780 |                                                              0.000
   87.42936 |****************************************                      0.071
  102.00092 |                                                              0.000
  116.57248 |                                                              0.000
  131.14404 |************************************************************  0.107
  145.71560 |                                                              0.000
  160.28716 |                                                              0.000
  174.85872 |********************                                          0.036
  189.43028 |                                                              0.000
  204.00184 |                                                              0.000
  218.57341 |********************                                          0.036
  233.14497 |****************************************                      0.071
  247.71653 |****************************************                      0.071
  262.28809 |                                                              0.000
  276.85965 |                                                              0.000
  291.43121 |************************************************************  0.107
  306.00277 |                                                              0.000
  320.57433 |                                                              0.000
  335.14589 |                                                              0.000
  349.71745 |                                                              0.000
  364.28901 |                                                              0.000
  378.86057 |********************                                          0.036
  393.43213 |****************************************                      0.071
  408.00369 |                                                              0.000
  422.57525 |                                                              0.000
  437.14681 |                                                              0.000
  451.71837 |                                                              0.000
  466.28993 |********************                                          0.036
  480.86149 |                                                              0.000
  495.43305 |                                                              0.000
  510.00461 |                                                              0.000
  524.57617 |                                                              0.000
  539.14773 |****************************************                      0.071
  553.71929 |********************                                          0.036
  568.29085 |                                                              0.000
  582.86241 |                                                              0.000
  597.43397 |********************                                          0.036
  612.00553 |                                                              0.000
  626.57709 |                                                              0.000
  641.14866 |                                                              0.000
  655.72022 |****************************************                      0.071
  670.29178 |                                                              0.000
  684.86334 |                                                              0.000
  699.43490 |                                                              0.000
  714.00646 |                                                              0.000
  728.57802 |                                                              0.000
  743.14958 |                                                              0.000
  757.72114 |                                                              0.000
  772.29270 |                                                              0.000
  786.86426 |                                                              0.000
  801.43582 |                                                              0.000
  816.00738 |****************************************                      0.071
  830.57894 |                                                              0.000
  845.15050 |                                                              0.000
  859.72206 |                                                              0.000
  874.29362 |                                                              0.000
  888.86518 |                                                              0.000
  903.43674 |                                                              0.000
  918.00830 |********************                                          0.036
--------------------------------------------------------------------------------



  Time to end of optimisation =       0.0394 seconds


  Peak dynamic memory used =       0.65 MB 


  Timing analysis for GULP :

--------------------------------------------------------------------------------
  Task / Subroutine                                          Time (Seconds)
--------------------------------------------------------------------------------
  Calculation of real space energy and derivatives                0.0023
  Calculation of phonons                                          0.0016
  Calculation and manipulation of Hessian matrix                  0.0014
--------------------------------------------------------------------------------
  Total CPU time                                                  0.0394
--------------------------------------------------------------------------------


  Job Finished at 14:40.26 25th May        2022                               

