------------------------------------------------------------
          Invoking FHI-aims ...

          When using FHI-aims, please cite the following reference:

            Volker Blum, Ralf Gehrke, Felix Hanke, Paula Havu,
            Ville Havu, Xinguo Ren, Karsten Reuter, and Matthias Scheffler,
            'Ab Initio Molecular Simulations with Numeric Atom-Centered Orbitals',
            Computer Physics Communications 180, 2175-2196 (2009)

          In addition, many other developments in FHI-aims are likely important for
          your particular application. A partial list of references is given at the end of
          this file. Thank you for giving credit to the authors of these developments.

          For any questions about FHI-aims, please visit our slack channel at

            https://fhi-aims.slack.com

          and our main development and support site at

            https://aims-git.rz-berlin.mpg.de .

          The latter site, in particular, has a wiki to collect information, as well
          as an issue tracker to log discussions, suggest improvements, and report issues
          or bugs. https://aims-git.rz-berlin.mpg.de is also the main development site
          of the project and all new and updated code versions can be obtained there.
          Please send an email to aims-coordinators@fhi-berlin.mpg.de and we will add
          you to these sites. They are for you and everyone is welcome there.

------------------------------------------------------------



  Date     :  20220517, Time     :  105719.340
  Time zero on CPU 1             :   0.391580000000000E-01  s.
  Internal wall clock time zero  :           422017039.340  s.

  FHI-aims created a unique identifier for this run for later identification
  aims_uuid : 70B4C55A-5C11-4647-AEB5-EF83EB156BA6

  Build configuration of the current instance of FHI-aims
  -------------------------------------------------------
  FHI-aims version      : 210914
  Commit number         : GITDIR-NOTFOUND
  CMake host system     : Linux-3.10.0-693.17.1.el7.x86_64
  CMake version         : 3.21.1
  Fortran compiler      : /shared/ucl/apps/intel/2018.Update3/impi/2018.3.222/intel64/bin/mpiifort (Intel) version 18.0.3.20180410
  Fortran compiler flags: -O3 -ip -fp-model precise
  C compiler            : /shared/ucl/apps/intel/2018.Update3/compilers_and_libraries_2018.3.222/linux/bin/intel64/icc (Intel) version 18.0.3.20180410
  C compiler flags      : -O3 -ip -fp-model precise -std=gnu99
  ELPA2 kernel          : AVX2
  Using MPI
  Using ScaLAPACK
  Using LibXC
  Using i-PI
  Using RLSY
  Linking against: /shared/ucl/apps/intel/2019.Update5/compilers_and_libraries_2019.5.281/linux/mkl/lib/intel64/libmkl_intel_lp64.so
                   /shared/ucl/apps/intel/2019.Update5/compilers_and_libraries_2019.5.281/linux/mkl/lib/intel64/libmkl_sequential.so
                   /shared/ucl/apps/intel/2019.Update5/compilers_and_libraries_2019.5.281/linux/mkl/lib/intel64/libmkl_core.so
                   /shared/ucl/apps/intel/2019.Update5/compilers_and_libraries_2019.5.281/linux/mkl/lib/intel64/libmkl_blacs_intelmpi_lp64.so
                   /shared/ucl/apps/intel/2019.Update5/compilers_and_libraries_2019.5.281/linux/mkl/lib/intel64/libmkl_scalapack_lp64.so

  Using       24 parallel tasks.
  Task        0 on host node-k98e-006 reporting.
  Task        1 on host node-k98e-006 reporting.
  Task        2 on host node-k98e-006 reporting.
  Task        3 on host node-k98e-006 reporting.
  Task        4 on host node-k98e-006 reporting.
  Task        5 on host node-k98e-006 reporting.
  Task        6 on host node-k98e-006 reporting.
  Task        7 on host node-k98e-006 reporting.
  Task        8 on host node-k98e-006 reporting.
  Task        9 on host node-k98e-006 reporting.
  Task       10 on host node-k98e-006 reporting.
  Task       11 on host node-k98e-006 reporting.
  Task       12 on host node-k98e-006 reporting.
  Task       13 on host node-k98e-006 reporting.
  Task       14 on host node-k98e-006 reporting.
  Task       15 on host node-k98e-006 reporting.
  Task       16 on host node-k98e-006 reporting.
  Task       17 on host node-k98e-006 reporting.
  Task       18 on host node-k98e-006 reporting.
  Task       19 on host node-k98e-006 reporting.
  Task       20 on host node-k98e-006 reporting.
  Task       21 on host node-k98e-006 reporting.
  Task       22 on host node-k98e-006 reporting.
  Task       23 on host node-k98e-006 reporting.

  Performing system and environment tests:
  | Environment variable OMP_NUM_THREADS correctly set to 1.
  | Checking for ScaLAPACK...
  | Testing pdtran()...
  | All pdtran() tests passed.

  Obtaining array dimensions for all initial allocations:
  
  -----------------------------------------------------------------------
  Parsing control.in (first pass over file, find array dimensions only).
  The contents of control.in will be repeated verbatim below
  unless switched off by setting 'verbatim_writeout .false.' .
  in the first line of control.in .
  -----------------------------------------------------------------------
  
  #########################################################################################  Physical model
  #########################################################################################
  xc                 pbesol
  spin               none
  relativistic       atomic_zora scalar
  charge             0.0
  #  SCF convergence
  occupation_type    gaussian 0.01
  mixer              pulay
  n_max_pulay        10
  charge_mix_param   0.5
  sc_accuracy_rho    1E-5
  sc_accuracy_eev    1E-3
  sc_accuracy_etot   1E-6
  sc_accuracy_forces 1E-4
  sc_iter_limit      1500
  #  Relaxation
  #relax_geometry   bfgs 1.e-3
  
  ################################################################################
  #
  #  FHI-aims code project
  #  VB, Fritz-Haber Institut, 2009
  #
  #  Suggested "light" defaults for Al atom (to be pasted into control.in file)
  #  Be sure to double-check any results obtained with these settings for post-processing,
  #  e.g., with the "tight" defaults and larger basis sets.
  #
  ################################################################################
    species        Al
  #     global species definitions
      nucleus             13
      mass                26.9815386
  #
      l_hartree           4
  #
      cut_pot             3.5          1.5  1.0
      basis_dep_cutoff    1e-4
  #
      radial_base         41 5.0
      radial_multiplier   1
      angular_grids       specified
        division   0.6594  110
        division   0.8170  194
        division   0.9059  302
  #      division   1.0363  434
  #      division   1.1443  590
  #      division   1.2621  770
  #      division   2.8177  974
  #      outer_grid   974
        outer_grid   302
  ################################################################################
  #
  #  Definition of "minimal" basis
  #
  ################################################################################
  #     valence basis states
      valence      3  s   2.
      valence      3  p   1.
  #     ion occupancy
      ion_occ      3  s   1.
      ion_occ      2  p   6.
  ################################################################################
  #
  #  Suggested additional basis functions. For production calculations,
  #  uncomment them one after another (the most important basis functions are
  #  listed first).
  #
  #  Constructed for dimers: 2.0 A, 2.5 A, 3.0 A, 3.75 A, 4.5 A
  #
  ################################################################################
  #  "First tier" - improvements: -199.47 meV to -10.63 meV
       ionic 3 d auto
       ionic 3 p auto
  #     hydro 4 f 4.7
       ionic 3 s auto
  #  "Second tier" - improvements: -5.35 meV to -1.57 meV
  #     hydro 5 g 7
  #     hydro 3 d 6
  #     hydro 2 s 11.6
  #     hydro 2 p 0.9
  #  "Third tier" - improvements: -0.63 meV to -0.20 meV
  #     hydro 5 f 7.6
  #     hydro 4 p 7.2
  #     hydro 4 s 3.7
  #     hydro 4 d 7.6
  #  "Fourth tier" - improvements: -0.17 meV to -0.08 meV
  #     hydro 4 d 13.6
  #     hydro 5 g 11.2
  #     hydro 4 d 0.9
  #     hydro 1 s 0.4
  #     hydro 4 p 0.1
  #     hydro 5 f 9.8
  #  Further basis functions that fell out of the optimization - noise level...
  #     hydro 4 p 5
  
  ################################################################################
  #
  #  FHI-aims code project
  #  VB, Fritz-Haber Institut, 2009
  #
  #  Suggested "light" defaults for F atom (to be pasted into control.in file)
  #  Be sure to double-check any results obtained with these settings for post-processing,
  #  e.g., with the "tight" defaults and larger basis sets.
  #
  ################################################################################
    species        F
  #     global species definitions
      nucleus             9
      mass                18.9984032
  #
      l_hartree           4
  #
      cut_pot             3.5  1.5  1.0
      basis_dep_cutoff    1e-4
  #
      radial_base         37 5.0
      radial_multiplier   1
      angular_grids specified
        division   0.4014  110
        division   0.5291  194
        division   0.6019  302
  #      division   0.6814  434
  #      division   0.7989  590
  #      division   0.8965  770
  #      division   1.3427  974
  #      outer_grid   974
        outer_grid   302
  ################################################################################
  #
  #  Definition of "minimal" basis
  #
  ################################################################################
  #     valence basis states
      valence      2  s   2.
      valence      2  p   5.
  #     ion occupancy
      ion_occ      2  s   1.
      ion_occ      2  p   4.
  ################################################################################
  #
  #  Suggested additional basis functions. For production calculations,
  #  uncomment them one after another (the most important basis functions are
  #  listed first).
  #
  #  Constructed for dimers: 1.2 A, 1.418 A, 1.75 A, 2.25 A, 3.25 A
  #
  ################################################################################
  #  "First tier" - improvements: -149.44 meV to -45.88 meV
       hydro 2 p 1.7
       hydro 3 d 7.4
       hydro 3 s 6.8
  #  "Second tier" - improvements: -12.96 meV to -1.56 meV
  #     hydro 4 f 11.2
  #     ionic 2 p auto
  #     hydro 1 s 0.75
  #     hydro 4 d 8.8
  #     hydro 5 g 16.8
  #  "Third tier" - improvements: -0.58 meV to -0.05 meV
  #     hydro 3 p 6.2
  #     hydro 3 s 3.2
  #     hydro 4 f 9.6
  #     hydro 3 s 19.6
  #     hydro 4 d 8.6
  #     hydro 5 g 14.4
  # Further basis functions: -0.05 meV and below
  #     hydro 3 p 4.2
  
  -----------------------------------------------------------------------
  Completed first pass over input file control.in .
  -----------------------------------------------------------------------
  
  
  -----------------------------------------------------------------------
  Parsing geometry.in (first pass over file, find array dimensions only).
  The contents of geometry.in will be repeated verbatim below
  unless switched off by setting 'verbatim_writeout .false.' .
  in the first line of geometry.in .
  -----------------------------------------------------------------------
  
  atom 1.281929062 0.045498716 2.450111237 Al
  atom 1.164940000 1.084171000 -0.062842000 Al
  atom -0.323695185 0.834253564 -2.327564073 Al
  atom -1.674835804 -0.369816144 -2.227018477 F
  atom 1.872784192 0.028670046 0.583411513 F
  atom 0.044226984 1.816060054 -3.797727194 F
  atom 0.038680174 1.746591681 -0.633374095 F
  atom 2.325728553 2.174671509 -0.272913444 F
  atom 1.248870423 0.335163528 -1.273094377 F
  atom 0.662592271 1.440097623 1.223132102 F
  atom 2.539158730 0.590438819 3.626165009 F
  atom 0.022012159 -1.203383859 2.822095786 F
  
  -----------------------------------------------------------------------
  Completed first pass over input file geometry.in .
  -----------------------------------------------------------------------
  

  Basic array size parameters:
  | Number of species                 :        2
  | Number of atoms                   :       12
  | Max. basis fn. angular momentum   :        2
  | Max. atomic/ionic basis occupied n:        3
  | Max. number of basis fn. types    :        3
  | Max. radial fns per species/type  :        5
  | Max. logarithmic grid size        :     1340
  | Max. radial integration grid size :       41
  | Max. angular integration grid size:      302
  | Max. angular grid division number :        8
  | Radial grid for Hartree potential :     1340
  | Number of spin channels           :        1

------------------------------------------------------------
          Reading file control.in.
------------------------------------------------------------
  XC: Using PBEsol gradient-corrected functionals.
  Spin treatment: No spin polarisation.
  Scalar relativistic treatment of kinetic energy: on-site free-atom approximation to ZORA.
  Charge =   0.000000E+00: Neutral system requested explicitly.
  Occupation type: Gaussian broadening, width =   0.100000E-01 eV.
  Using pulay charge density mixing.
  Pulay mixing - number of memorized iterations:   10
  Charge density mixing - mixing parameter:     0.5000
  Convergence accuracy of self-consistent charge density:  0.1000E-04
  Convergence accuracy of sum of eigenvalues:  0.1000E-02
  Convergence accuracy of total energy:  0.1000E-05
  Convergence accuracy of forces:  0.1000E-03
  Maximum number of s.-c. iterations  :  1500
 
  Reading configuration options for species Al                  .
  | Found nuclear charge :  13.0000
  | Found atomic mass :    26.9815386000000      amu
  | Found l_max for Hartree potential  :   4
  | Found cutoff potl. onset [A], width [A], scale factor :    3.50000    1.50000    1.00000
  | Threshold for basis-dependent cutoff potential is   0.100000E-03
  | Found data for basic radial integration grid :    41 points, outermost radius =    5.000 A
  | Found multiplier for basic radial grid :   1
  | Found angular grid specification: user-specified.
  | Specified grid contains     4 separate shells.
  | Check grid settings after all constraints further below.
  | Found free-atom valence shell :  3 s   2.000
  | Found free-atom valence shell :  3 p   1.000
  | Found free-ion valence shell :  3 s   1.000
  | Found free-ion valence shell :  2 p   6.000
  | Found ionic basis function :  3 d , default cutoff radius.
  | Found ionic basis function :  3 p , default cutoff radius.
  | Found ionic basis function :  3 s , default cutoff radius.
  Species Al                  : Missing cutoff potential type.
  Defaulting to exp(1/x)/(1-x)^2 type cutoff potential.
  Species Al: No 'logarithmic' tag. Using default grid for free atom:
  | Default logarithmic grid data [bohr] : 0.1000E-03 0.1000E+03 0.1012E+01
  | Will include ionic basis functions of  2.0-fold positive Al                   ion.
  Species Al: On-site basis accuracy parameter (for Gram-Schmidt orthonormalisation) not specified.
  Using default value basis_acc =  0.1000000E-03.
  Species Al                  : Using default innermost maximum threshold i_radial=  2 for radial functions.
  Species Al                  : Default cutoff onset for free atom density etc. : 0.35000000E+01 AA.
  Species Al                  : Basic radial grid will be enhanced according to radial_multiplier =   1, to contain    41 grid points.
 
  Reading configuration options for species F                   .
  | Found nuclear charge :   9.0000
  | Found atomic mass :    18.9984032000000      amu
  | Found l_max for Hartree potential  :   4
  | Found cutoff potl. onset [A], width [A], scale factor :    3.50000    1.50000    1.00000
  | Threshold for basis-dependent cutoff potential is   0.100000E-03
  | Found data for basic radial integration grid :    37 points, outermost radius =    5.000 A
  | Found multiplier for basic radial grid :   1
  | Found angular grid specification: user-specified.
  | Specified grid contains     4 separate shells.
  | Check grid settings after all constraints further below.
  | Found free-atom valence shell :  2 s   2.000
  | Found free-atom valence shell :  2 p   5.000
  | Found free-ion valence shell :  2 s   1.000
  | Found free-ion valence shell :  2 p   4.000
  | Found hydrogenic basis function :  2 p   1.700
  | Found hydrogenic basis function :  3 d   7.400
  | Found hydrogenic basis function :  3 s   6.800
  Species F                   : Missing cutoff potential type.
  Defaulting to exp(1/x)/(1-x)^2 type cutoff potential.
  Species F : No 'logarithmic' tag. Using default grid for free atom:
  | Default logarithmic grid data [bohr] : 0.1000E-03 0.1000E+03 0.1012E+01
  Species F : On-site basis accuracy parameter (for Gram-Schmidt orthonormalisation) not specified.
  Using default value basis_acc =  0.1000000E-03.
  Species F                   : Using default innermost maximum threshold i_radial=  2 for radial functions.
  Species F                   : Default cutoff onset for free atom density etc. : 0.35000000E+01 AA.
  Species F                   : Basic radial grid will be enhanced according to radial_multiplier =   1, to contain    37 grid points.
 
  Finished reading input file 'control.in'.
 
------------------------------------------------------------


------------------------------------------------------------
          Reading geometry description geometry.in.
------------------------------------------------------------
  | The smallest distance between any two atoms is         1.42575117 AA.
  | The first atom of this pair is atom number                      2 .
  | The second atom of this pair is atom number                    10 .
  Input structure read successfully.
  The structure contains       12 atoms,  and a total of        120.000 electrons.

  Input geometry:
  | No unit cell requested.
  | Atomic structure:
  |       Atom                x [A]            y [A]            z [A]
  |    1: Species Al            1.28192906        0.04549872        2.45011124
  |    2: Species Al            1.16494000        1.08417100       -0.06284200
  |    3: Species Al           -0.32369518        0.83425356       -2.32756407
  |    4: Species F            -1.67483580       -0.36981614       -2.22701848
  |    5: Species F             1.87278419        0.02867005        0.58341151
  |    6: Species F             0.04422698        1.81606005       -3.79772719
  |    7: Species F             0.03868017        1.74659168       -0.63337409
  |    8: Species F             2.32572855        2.17467151       -0.27291344
  |    9: Species F             1.24887042        0.33516353       -1.27309438
  |   10: Species F             0.66259227        1.44009762        1.22313210
  |   11: Species F             2.53915873        0.59043882        3.62616501
  |   12: Species F             0.02201216       -1.20338386        2.82209579

 
  Finished reading input file 'control.in'.
 

------------------------------------------------------------
          Reading geometry description geometry.in.
------------------------------------------------------------
 
  Consistency checks for stacksize environment parameter are next.
 
  | Maximum stacksize for task 0: unlimited
  | Maximum stacksize for task 1: unlimited
  | Maximum stacksize for task 2: unlimited
  | Maximum stacksize for task 3: unlimited
  | Maximum stacksize for task 4: unlimited
  | Maximum stacksize for task 5: unlimited
  | Maximum stacksize for task 6: unlimited
  | Maximum stacksize for task 7: unlimited
  | Maximum stacksize for task 8: unlimited
  | Maximum stacksize for task 9: unlimited
  | Maximum stacksize for task 10: unlimited
  | Maximum stacksize for task 11: unlimited
  | Maximum stacksize for task 12: unlimited
  | Maximum stacksize for task 13: unlimited
  | Maximum stacksize for task 14: unlimited
  | Maximum stacksize for task 15: unlimited
  | Maximum stacksize for task 16: unlimited
  | Maximum stacksize for task 17: unlimited
  | Maximum stacksize for task 18: unlimited
  | Maximum stacksize for task 19: unlimited
  | Maximum stacksize for task 20: unlimited
  | Maximum stacksize for task 21: unlimited
  | Maximum stacksize for task 22: unlimited
  | Maximum stacksize for task 23: unlimited
  | Current stacksize for task 0: unlimited
  | Current stacksize for task 1: unlimited
  | Current stacksize for task 2: unlimited
  | Current stacksize for task 3: unlimited
  | Current stacksize for task 4: unlimited
  | Current stacksize for task 5: unlimited
  | Current stacksize for task 6: unlimited
  | Current stacksize for task 7: unlimited
  | Current stacksize for task 8: unlimited
  | Current stacksize for task 9: unlimited
  | Current stacksize for task 10: unlimited
  | Current stacksize for task 11: unlimited
  | Current stacksize for task 12: unlimited
  | Current stacksize for task 13: unlimited
  | Current stacksize for task 14: unlimited
  | Current stacksize for task 15: unlimited
  | Current stacksize for task 16: unlimited
  | Current stacksize for task 17: unlimited
  | Current stacksize for task 18: unlimited
  | Current stacksize for task 19: unlimited
  | Current stacksize for task 20: unlimited
  | Current stacksize for task 21: unlimited
  | Current stacksize for task 22: unlimited
  | Current stacksize for task 23: unlimited
 
  Consistency checks for the contents of control.in are next.
 
  MPI_IN_PLACE appears to work with this MPI implementation.
  | Keeping use_mpi_in_place .true. (see manual).
  Target number of points in a grid batch is not set. Defaulting to  100
  Method for grid partitioning is not set. Defaulting to parallel hash+maxmin partitioning.
  Batch size limit is not set. Defaulting to    200
  By default, will store active basis functions for each batch.
  If in need of memory, prune_basis_once .false. can be used to disable this option.
  communication_type for Hartree potential was not specified.
  Defaulting to calc_hartree .
  Pulay mixer: Number of initial linear mixing iterations not set.
  Defaulting to    0 iterations.
  Work space size for distributed Hartree potential not set.
  Defaulting to   0.200000E+03 MB.
  Algorithm-dependent basis array size parameters:
  | n_max_pulay                         :       10
  Presetting      1001 iterations before the initial mixing cycle
  is restarted anyway using the sc_init_iter criterion / keyword.
  Presetting a factor      1.000 between actual scf density residual
  and density convergence criterion sc_accuracy_rho below which sc_init_iter
  takes no effect.
  Geometry relaxation not requested: no relaxation will be performed.
  Forces evaluation will include force correction term due to incomplete self-consistency (default).
  Handling of forces: Unphysical translation and rotation will be removed from forces.
  No accuracy limit for integral partition fn. given. Defaulting to  0.1000E-14.
  No threshold value for u(r) in integrations given. Defaulting to  0.1000E-05.
  No accuracy for occupation numbers given. Defaulting to  0.1000E-12.
  No threshold value for occupation numbers given. Defaulting to  0.0000E+00.
  No accuracy for fermi level given. Defaulting to  0.1000E-19.
  Maximum # of iterations to find E_F not set. Defaulting to  200.
  Preferred method for the eigenvalue solver ('KS_method') not specified in 'control.in'.
  Calling BLACS routine to test compilation state
  Since ScaLAPACK support is enabled, defaulting to ELPA (via ELSI).
  Will not use alltoall communication since running on < 1024 CPUs.
  Threshold for basis singularities not set.
  Default threshold for basis singularities:  0.1000E-04
  partition_type (choice of integration weights) for integrals was not specified.
  | Using a version of the partition function of Stratmann and coworkers ('stratmann_sparse').
  | At each grid point, the set of atoms used to build the partition table is smoothly restricted to
  | only those atoms whose free-atom density would be non-zero at that grid point.
  Partitioning for Hartree potential was not defined. Using partition_type for integrals.
  | Adjusted default value of keyword multip_moments_threshold to:       0.10000000E-11
  | This value may affect high angular momentum components of the Hartree potential in periodic systems.
  No q(lm)/r^(l+1) cutoff set for long-range Hartree potential.
  | Using default value of  0.100000E-09 .
  | Verify using the multipole_threshold keyword.
  Defaulting to new monopole extrapolation.
  Density update method: automatic selection selected.
  Charge integration errors on the 3D integration grid will be compensated
  by explicit normalization and distribution of residual charges.
  Use the "compensate_multipole_errors" flag to change this behaviour.
  Set 'collect_eigenvectors' to be '.true.' for use_density_matrix .false.
 
  Consistency checks for the contents of geometry.in are next.
 
  Number of empty states per atom not set in control.in - providing a guess from actual geometry.
  | Total number of empty states used during s.c.f. cycle:       36
  If you use a very high smearing, use empty_states (per atom!) in control.in to increase this value.

  Structure-dependent array size parameters: 
  | Maximum number of distinct radial functions  :       14
  | Maximum number of basis functions            :      180
  | Number of Kohn-Sham states (occupied + empty):       96
------------------------------------------------------------

------------------------------------------------------------
          Preparing all fixed parts of the calculation.
------------------------------------------------------------
  Determining machine precision:
    2.225073858507201E-308
  Setting up grids for atomic and cluster calculations.

  Creating wave function, potential, and density for free atoms.

  Species: Al

  List of occupied orbitals and eigenvalues:
    n    l              occ      energy [Ha]    energy [eV]
    1    0           2.0000       -55.621123     -1513.5278
    2    0           2.0000        -3.957030      -107.6763
    3    0           2.0000        -0.272233        -7.4078
    2    1           6.0000        -2.540949       -69.1427
    3    1           1.0000        -0.083300        -2.2667


  Species: F

  List of occupied orbitals and eigenvalues:
    n    l              occ      energy [Ha]    energy [eV]
    1    0           2.0000       -24.399611      -663.9472
    2    0           2.0000        -1.098702       -29.8972
    2    1           5.0000        -0.408210       -11.1080


  Adding cutoff potential to free-atom effective potential.
  Creating fixed part of basis set: Ionic, confined, hydrogenic.
 
  Al                   ion:

  List of free ionic orbitals and eigenvalues:
    n    l      energy [Ha]    energy [eV]
    1    0       -56.418846     -1535.2349
    2    0        -4.732717      -128.7838
    3    0        -0.872690       -23.7471
    2    1        -3.317230       -90.2664


  List of ionic basis orbitals and eigenvalues:
    n    l      energy [Ha]    energy [eV]    outer radius [A]
    3    2        -0.346815        -9.4373       4.594041
    3    1        -0.631870       -17.1940       4.538221
    3    0        -0.872657       -23.7462       4.538221

 
  F                    hydrogenic:
 
  List of hydrogenic basis orbitals: 
    n    l      effective z      eigenvalue [eV]  inner max. [A]     outer max. [A]     outer radius [A]   
    2    1         1.700000        -9.7616           1.243167           1.243167           4.598524
    3    2         7.400000       -82.7828           0.642437           0.642437           3.305741
    3    0         6.800000       -69.9026           0.057798           1.022307           3.781556
 
  Creating atomic-like basis functions for current effective potential.

  Species Al                  :

  List of atomic basis orbitals and eigenvalues:
    n    l      energy [Ha]    energy [eV]    outer radius [A]
    1    0       -55.621123     -1513.5278       0.850197
    2    0        -3.957030      -107.6763       3.144911
    3    0        -0.272233        -7.4078       4.594041
    2    1        -2.540949       -69.1427       3.731966
    3    1        -0.083300        -2.2667       4.594041


  Species F                   :

  List of atomic basis orbitals and eigenvalues:
    n    l      energy [Ha]    energy [eV]    outer radius [A]
    1    0       -24.399611      -663.9472       1.258458
    2    0        -1.098702       -29.8972       4.325857
    2    1        -0.408210       -11.1080       4.487453

  Assembling full basis from fixed parts.
  | Species Al :   atomic orbital   1 s accepted.
  | Species Al :   atomic orbital   2 s accepted.
  | Species Al :    ionic orbital   3 s accepted.
  | Species Al :   atomic orbital   3 s accepted.
  | Species Al :   atomic orbital   2 p accepted.
  | Species Al :    ionic orbital   3 p accepted.
  | Species Al :   atomic orbital   3 p accepted.
  | Species Al :    ionic orbital   3 d accepted.
  | Species F :   atomic orbital   1 s accepted.
  | Species F :    hydro orbital   3 s accepted.
  | Species F :   atomic orbital   2 s accepted.
  | Species F :   atomic orbital   2 p accepted.
  | Species F :    hydro orbital   2 p accepted.
  | Species F :    hydro orbital   3 d accepted.
 
  Basis size parameters after reduction:
  | Total number of radial functions:       14
  | Total number of basis functions :      180
 
  Per-task memory consumption for arrays in subroutine allocate_ext:
  |           4.807768MB.
  Testing on-site integration grid accuracy.
  |  Species  Function  <phi|h_atom|phi> (log., in eV)  <phi|h_atom|phi> (rad., in eV)
           1        1              -1513.5277717935              -1513.5271881332
           1        2               -107.6762691836               -107.6762662489
           1        3                 -6.9467474784                 -6.9471269649
           1        4                  5.5771951849                  5.4862107220 ***
           1        5                -69.1427313144                -69.1427312731
           1        6                 -1.5197375330                 -1.5230432022
           1        7                  6.8210948310                  6.5529872240 ***
           1        8                  4.3216540965                  4.2851170187 ***
           2        9               -663.9471986398               -663.9470363334
           2       10                 16.8514011578                 16.8512525338
           2       11                -28.4490593856                -28.4490661472
           2       12                -11.1080115307                -11.1080620173
           2       13                  7.1940182175                  7.1685154137
           2       14                 44.8544281765                 44.8543763625
 * Note: Onsite integrals marked "***" above are less accurate than
 * onsite_accuracy_threshold =    0.03000 eV. Usually, this is harmless.
 * When in doubt, tighten the "radial" and/or "radial_multiplier" flags to check.

  Preparing densities etc. for the partition functions (integrals / Hartree potential).

  Preparations completed.
  max(cpu_time)          :      0.184 s.
  Wall clock time (cpu1) :      0.185 s.
------------------------------------------------------------

------------------------------------------------------------
          Begin self-consistency loop: Initialization.

          Date     :  20220517, Time     :  105720.222
------------------------------------------------------------

  Initializing index lists of integration centers etc. from given atomic structure:
  | Number of centers in hartree potential         :        12
  | Number of centers in hartree multipole         :        12
  | Number of centers in electron density summation:        12
  | Number of centers in basis integrals           :        12
  | Number of centers in integrals                 :        12
  | Number of centers in hamiltonian               :        12
  * Using 24 tasks for Scalapack Eigenvalue solver.
  Detailed listing of tasks and assigned k-points:
  (for non-periodic systems, the "k-point" denotes an internal label only)
   Task     0 k-point     1 on node-k98e-006
   Task     1 k-point     1 on node-k98e-006
   Task     2 k-point     1 on node-k98e-006
   Task     3 k-point     1 on node-k98e-006
   Task     4 k-point     1 on node-k98e-006
   Task     5 k-point     1 on node-k98e-006
   Task     6 k-point     1 on node-k98e-006
   Task     7 k-point     1 on node-k98e-006
   Task     8 k-point     1 on node-k98e-006
   Task     9 k-point     1 on node-k98e-006
   Task    10 k-point     1 on node-k98e-006
   Task    11 k-point     1 on node-k98e-006
   Task    12 k-point     1 on node-k98e-006
   Task    13 k-point     1 on node-k98e-006
   Task    14 k-point     1 on node-k98e-006
   Task    15 k-point     1 on node-k98e-006
   Task    16 k-point     1 on node-k98e-006
   Task    17 k-point     1 on node-k98e-006
   Task    18 k-point     1 on node-k98e-006
   Task    19 k-point     1 on node-k98e-006
   Task    20 k-point     1 on node-k98e-006
   Task    21 k-point     1 on node-k98e-006
   Task    22 k-point     1 on node-k98e-006
   Task    23 k-point     1 on node-k98e-006
  Tasks:    24 split into      6 X      4 BLACS grid
  Calculating block size based on n_basis =          180  max_nprow =            6  max_npcol =            4
  ScaLAPACK block size set to:           16
  Allocating        0.012 MB for ovlp
  Allocating        0.012 MB for ham
  Allocating        0.012 MB for eigenvec
  Required Scalapack workspace - INTEGER:            1  REAL:             1
  Partitioning the integration grid into batches with parallel hashing+maxmin method.
  | Number of batches:     1035
  | Maximal batch size:     199
  | Minimal batch size:      20
  | Average batch size:      88.812
  | Standard deviation of batch sizes:      25.844

  Integration load balanced across    24 MPI tasks.
  Work distribution over tasks is as follows:
  Task     0 has       3883 integration points.
  Task     1 has       3784 integration points.
  Task     2 has       3893 integration points.
  Task     3 has       3900 integration points.
  Task     4 has       3786 integration points.
  Task     5 has       3770 integration points.
  Task     6 has       3790 integration points.
  Task     7 has       3800 integration points.
  Task     8 has       3763 integration points.
  Task     9 has       3785 integration points.
  Task    10 has       3898 integration points.
  Task    11 has       3789 integration points.
  Task    12 has       3761 integration points.
  Task    13 has       3770 integration points.
  Task    14 has       3888 integration points.
  Task    15 has       3902 integration points.
  Task    16 has       3887 integration points.
  Task    17 has       3906 integration points.
  Task    18 has       3798 integration points.
  Task    19 has       3780 integration points.
  Task    20 has       3807 integration points.
  Task    21 has       3794 integration points.
  Task    22 has       3903 integration points.
  Task    23 has       3883 integration points.
  Initializing partition tables, free-atom densities, potentials, etc. across the integration grid (initialize_grid_storage).
  | initialize_grid_storage: Actual outermost partition radius vs. multipole_radius_free
  | (-- VB: in principle, multipole_radius_free should be larger, hence this output)
  | Species        1: Confinement radius =              4.999999999999999 AA, multipole_radius_free =              5.004487022111096 AA.
  | Species        1: outer_partition_radius set to              5.004487022111096 AA .
  | Species        2: Confinement radius =              4.999999999999999 AA, multipole_radius_free =              5.009370088163274 AA.
  | Species        2: outer_partition_radius set to              5.009370088163274 AA .
  | The sparse table of interatomic distances needs          1.64 kbyte instead of         1.15 kbyte of memory.
  | Using the partition_type stratmann_smoother will reduce your memory usage.
  | Net number of integration points:    91920
  | of which are non-zero points    :    84776
  Renormalizing the initial density to the exact electron count on the 3D integration grid.
  | Initial density: Formal number of electrons (from input files) :     120.0000000000
  | Integrated number of electrons on 3D grid     :     119.9998244297
  | Charge integration error                      :      -0.0001755703
  | Normalization factor for density and gradient :       1.0000014631
  Renormalizing the free-atom superposition density to the exact electron count on the 3D integration grid.
  | Formal number of electrons (from input files) :     120.0000000000
  | Integrated number of electrons on 3D grid     :     119.9998244297
  | Charge integration error                      :      -0.0001755703
  | Normalization factor for density and gradient :       1.0000014631
  Obtaining max. number of non-zero basis functions in each batch (get_n_compute_maxes).
  | Maximal number of non-zero basis functions:      160 in task     0
  | Maximal number of non-zero basis functions:      161 in task     1
  | Maximal number of non-zero basis functions:      162 in task     2
  | Maximal number of non-zero basis functions:      161 in task     3
  | Maximal number of non-zero basis functions:      163 in task     4
  | Maximal number of non-zero basis functions:      161 in task     5
  | Maximal number of non-zero basis functions:      161 in task     6
  | Maximal number of non-zero basis functions:      166 in task     7
  | Maximal number of non-zero basis functions:      161 in task     8
  | Maximal number of non-zero basis functions:      160 in task     9
  | Maximal number of non-zero basis functions:      161 in task    10
  | Maximal number of non-zero basis functions:      161 in task    11
  | Maximal number of non-zero basis functions:      161 in task    12
  | Maximal number of non-zero basis functions:      163 in task    13
  | Maximal number of non-zero basis functions:      166 in task    14
  | Maximal number of non-zero basis functions:      159 in task    15
  | Maximal number of non-zero basis functions:      161 in task    16
  | Maximal number of non-zero basis functions:      162 in task    17
  | Maximal number of non-zero basis functions:      160 in task    18
  | Maximal number of non-zero basis functions:      158 in task    19
  | Maximal number of non-zero basis functions:      162 in task    20
  | Maximal number of non-zero basis functions:      162 in task    21
  | Maximal number of non-zero basis functions:      164 in task    22
  | Maximal number of non-zero basis functions:      163 in task    23
  Selecting the method for density update.
  Loop over occupied states selected for charge density update.
  Allocating        0.132 MB for KS_eigenvector
  Integrating Hamiltonian matrix: batch-based integration.
  Time summed over all CPUs for integration: real work        0.701 s, elapsed        0.737 s
  Integrating overlap matrix.
  Time summed over all CPUs for integration: real work        0.270 s, elapsed        0.281 s
  Deallocating overlap matrix.

  Updating Kohn-Sham eigenvalues and eigenvectors using ELSI and the ELPA eigensolver.
  Overlap matrix is not singular
  | Lowest and highest eigenvalues :  0.1809E-02,  0.5554E+01
  Finished singularity check of overlap matrix
  | Time :     0.004 s
  Starting ELPA eigensolver
  Finished Cholesky decomposition
  | Time :     0.002 s
  Finished transformation to standard eigenproblem
  | Time :     0.001 s
  Finished solving standard eigenproblem
  | Time :     0.004 s
  Finished back-transformation of eigenvectors
  | Time :     0.000 s

  Obtaining occupation numbers and chemical potential using ELSI.
  | Chemical potential (Fermi level):    -7.22709767 eV
  Writing Kohn-Sham eigenvalues.

  State    Occupation    Eigenvalue [Ha]    Eigenvalue [eV]
      1       2.00000         -55.518682        -1510.74021
      2       2.00000         -55.484034        -1509.79737
      3       2.00000         -55.484034        -1509.79737
      4       2.00000         -24.452061         -665.37443
      5       2.00000         -24.452060         -665.37440
      6       2.00000         -24.452059         -665.37439
      7       2.00000         -24.452058         -665.37436
      8       2.00000         -24.374819         -663.27258
      9       2.00000         -24.341780         -662.37355
     10       2.00000         -24.341780         -662.37355
     11       2.00000         -24.340965         -662.35135
     12       2.00000         -24.340965         -662.35135
     13       2.00000          -4.006432         -109.02056
     14       2.00000          -3.949002         -107.45781
     15       2.00000          -3.949001         -107.45778
     16       2.00000          -2.609842          -71.01743
     17       2.00000          -2.607723          -70.95976
     18       2.00000          -2.589780          -70.47151
     19       2.00000          -2.541787          -69.16555
     20       2.00000          -2.541785          -69.16548
     21       2.00000          -2.541527          -69.15848
     22       2.00000          -2.541526          -69.15845
     23       2.00000          -2.539184          -69.09470
     24       2.00000          -2.539183          -69.09467
     25       2.00000          -1.350296          -36.74343
     26       2.00000          -1.294972          -35.23799
     27       2.00000          -1.281501          -34.87142
     28       2.00000          -1.251945          -34.06716
     29       2.00000          -1.195495          -32.53106
     30       2.00000          -1.151618          -31.33711
     31       2.00000          -1.151603          -31.33672
     32       2.00000          -1.148793          -31.26025
     33       2.00000          -1.148784          -31.26001
     34       2.00000          -0.688921          -18.74649
     35       2.00000          -0.654593          -17.81239
     36       2.00000          -0.642430          -17.48142
     37       2.00000          -0.626243          -17.04094
     38       2.00000          -0.620385          -16.88152
     39       2.00000          -0.599217          -16.30551
     40       2.00000          -0.582062          -15.83872
     41       2.00000          -0.577807          -15.72293
     42       2.00000          -0.564648          -15.36487
     43       2.00000          -0.530695          -14.44095
     44       2.00000          -0.529777          -14.41597
     45       2.00000          -0.520409          -14.16105
     46       2.00000          -0.504471          -13.72737
     47       2.00000          -0.502500          -13.67371
     48       2.00000          -0.496151          -13.50096
     49       2.00000          -0.486680          -13.24324
     50       2.00000          -0.486423          -13.23623
     51       2.00000          -0.479068          -13.03610
     52       2.00000          -0.478640          -13.02446
     53       2.00000          -0.456962          -12.43457
     54       2.00000          -0.456520          -12.42253
     55       2.00000          -0.455437          -12.39308
     56       2.00000          -0.455188          -12.38630
     57       2.00000          -0.451333          -12.28139
     58       2.00000          -0.451300          -12.28049
     59       2.00000          -0.449457          -12.23036
     60       2.00000          -0.449261          -12.22500
     61       0.00000          -0.137717           -3.74747
     62       0.00000          -0.125063           -3.40314
     63       0.00000          -0.041244           -1.12231
     64       0.00000          -0.035631           -0.96957
     65       0.00000          -0.024033           -0.65396
     66       0.00000           0.005581            0.15187
     67       0.00000           0.020694            0.56312
     68       0.00000           0.037052            1.00824
     69       0.00000           0.085004            2.31307
     70       0.00000           0.104939            2.85554
     71       0.00000           0.115159            3.13363
     72       0.00000           0.148975            4.05381
     73       0.00000           0.153037            4.16434
     74       0.00000           0.161063            4.38275
     75       0.00000           0.172990            4.70730
     76       0.00000           0.177448            4.82859
     77       0.00000           0.180582            4.91388
     78       0.00000           0.185809            5.05611
     79       0.00000           0.201089            5.47190
     80       0.00000           0.216892            5.90194
     81       0.00000           0.229054            6.23287
     82       0.00000           0.230176            6.26340
     83       0.00000           0.240147            6.53474
     84       0.00000           0.253378            6.89475
     85       0.00000           0.255560            6.95413
     86       0.00000           0.274646            7.47351
     87       0.00000           0.283816            7.72303
     88       0.00000           0.296694            8.07346
     89       0.00000           0.322376            8.77230
     90       0.00000           0.328089            8.92775
     91       0.00000           0.340132            9.25547
     92       0.00000           0.343711            9.35285
     93       0.00000           0.358534            9.75620
     94       0.00000           0.376550           10.24646
     95       0.00000           0.388946           10.58375
     96       0.00000           0.389584           10.60112

  Highest occupied state (VBM) at    -12.22500105 eV
  | Occupation number:      2.00000000

  Lowest unoccupied state (CBM) at    -3.74746579 eV
  | Occupation number:      0.00000000

  Overall HOMO-LUMO gap:      8.47753526 eV.
  Calculating total energy contributions from superposition of free atom densities.

  Total energy components:
  | Sum of eigenvalues            :        -892.32731177 Ha      -24281.46158032 eV
  | XC energy correction          :        -144.80174953 Ha       -3940.25608273 eV
  | XC potential correction       :         188.57071460 Ha        5131.27022040 eV
  | Free-atom electrostatic energy:        -776.52428430 Ha      -21130.30087369 eV
  | Hartree energy correction     :           0.00000000 Ha           0.00000000 eV
  | Entropy correction            :           0.00000000 Ha           0.00000000 eV
  | ---------------------------
  | Total energy                  :       -1625.08263100 Ha      -44220.74831634 eV
  | Total energy, T -> 0          :       -1625.08263100 Ha      -44220.74831634 eV  <-- do not rely on this value for anything but (periodic) metals
  | Electronic free energy        :       -1625.08263100 Ha      -44220.74831634 eV

  Derived energy quantities:
  | Kinetic energy                :        1629.15667283 Ha       44331.60863500 eV
  | Electrostatic energy          :       -3109.43755429 Ha      -84612.10086861 eV
  | Energy correction for multipole
  | error in Hartree potential    :           0.00000000 Ha           0.00000000 eV
  | Sum of eigenvalues per atom                           :       -2023.45513169 eV
  | Total energy (T->0) per atom                          :       -3685.06235969 eV  <-- do not rely on this value for anything but (periodic) metals
  | Electronic free energy per atom                       :       -3685.06235969 eV
  Initialize hartree_potential_storage
  Max. number of atoms included in rho_multipole:           12

  End scf initialization - timings             :  max(cpu_time)    wall_clock(cpu1)
  | Time for scf. initialization                :        0.116 s           0.116 s
  | Boundary condition initialization           :        0.000 s           0.000 s
  | Integration                                 :        0.044 s           0.044 s
  | Solution of K.-S. eqns.                     :        0.011 s           0.011 s
  | Grid partitioning                           :        0.038 s           0.038 s
  | Preloading free-atom quantities on grid     :        0.015 s           0.015 s
  | Free-atom superposition energy              :        0.005 s           0.004 s
  | Total energy evaluation                     :        0.000 s           0.001 s

  Partial memory accounting:
  | Current value for overall tracked memory usage:
  |   Minimum:        0.273 MB (on task 23)
  |   Maximum:        0.292 MB (on task  0)
  |   Average:        0.287 MB
  | Peak value for overall tracked memory usage:
  |   Minimum:        1.321 MB (on task 19 after allocating wave)
  |   Maximum:        1.386 MB (on task 14 after allocating wave)
  |   Average:        1.351 MB
  | Largest tracked array allocation so far:
  |   Minimum:        0.240 MB (H_times_psi on task 19)
  |   Maximum:        0.533 MB (all_coords on task 14)
  |   Average:        0.267 MB
  Note:  These values currently only include a subset of arrays which are explicitly tracked.
  The "true" memory usage will be greater.
------------------------------------------------------------
  Evaluating new KS density.
  Integration grid: deviation in total charge (<rho> - N_e) =   4.263256E-14

  Time for density update prior                :  max(cpu_time)    wall_clock(cpu1)
  | self-consistency iterative process          :        0.027 s           0.028 s

------------------------------------------------------------
          Begin self-consistency iteration #    1

  Date     :  20220517, Time     :  105720.366
------------------------------------------------------------
  Pulay mixing of updated and previous charge densities.
  Renormalizing the density to the exact electron count on the 3D integration grid.
  | Formal number of electrons (from input files) :     120.0000000000
  | Integrated number of electrons on 3D grid     :     120.0000000000
  | Charge integration error                      :       0.0000000000
  | Normalization factor for density and gradient :       1.0000000000

  Evaluating partitioned Hartree potential by multipole expansion.
  | Original multipole sum: apparent total charge =  -0.173660E-13
  | Sum of charges compensated after spline to logarithmic grids =   0.130495E-03
  | Analytical far-field extrapolation by fixed multipoles:
  | Hartree multipole sum: apparent total charge =  -0.188173E-13
  Summing up the Hartree potential.
  Time summed over all CPUs for potential: real work        0.378 s, elapsed        0.386 s
  | RMS charge density error from multipole expansion :   0.126124E-01

  Integrating Hamiltonian matrix: batch-based integration.
  Time summed over all CPUs for integration: real work        0.656 s, elapsed        0.685 s

  Updating Kohn-Sham eigenvalues and eigenvectors using ELSI and the ELPA eigensolver.
  Starting ELPA eigensolver
  Finished transformation to standard eigenproblem
  | Time :     0.001 s
  Finished solving standard eigenproblem
  | Time :     0.003 s
  Finished back-transformation of eigenvectors
  | Time :     0.000 s

  Obtaining occupation numbers and chemical potential using ELSI.
  | Chemical potential (Fermi level):    -6.39173954 eV
  Writing Kohn-Sham eigenvalues.

  State    Occupation    Eigenvalue [Ha]    Eigenvalue [eV]
      1       2.00000         -55.658949        -1514.55705
      2       2.00000         -55.658948        -1514.55703
      3       2.00000         -55.414298        -1507.89976
      4       2.00000         -24.161900         -657.47876
      5       2.00000         -24.161899         -657.47874
      6       2.00000         -24.161897         -657.47868
      7       2.00000         -24.161895         -657.47861
      8       2.00000         -24.090037         -655.52327
      9       2.00000         -24.090035         -655.52320
     10       2.00000         -24.082182         -655.30952
     11       2.00000         -24.082177         -655.30939
     12       2.00000         -24.007891         -653.28795
     13       2.00000          -4.094069         -111.40529
     14       2.00000          -4.094067         -111.40524
     15       2.00000          -3.923269         -106.75757
     16       2.00000          -2.688253          -73.15110
     17       2.00000          -2.688251          -73.15102
     18       2.00000          -2.687008          -73.11721
     19       2.00000          -2.687006          -73.11715
     20       2.00000          -2.685362          -73.07241
     21       2.00000          -2.685361          -73.07240
     22       2.00000          -2.522781          -68.64835
     23       2.00000          -2.519915          -68.57037
     24       2.00000          -2.508231          -68.25243
     25       2.00000          -1.218282          -33.15113
     26       2.00000          -1.164523          -31.68829
     27       2.00000          -1.143705          -31.12180
     28       2.00000          -1.112422          -30.27053
     29       2.00000          -1.033752          -28.12982
     30       2.00000          -1.033719          -28.12892
     31       2.00000          -1.025334          -27.90076
     32       2.00000          -1.025293          -27.89964
     33       2.00000          -0.983841          -26.77167
     34       2.00000          -0.587469          -15.98584
     35       2.00000          -0.534733          -14.55082
     36       2.00000          -0.528168          -14.37218
     37       2.00000          -0.506041          -13.77009
     38       2.00000          -0.505074          -13.74376
     39       2.00000          -0.491943          -13.38645
     40       2.00000          -0.457152          -12.43975
     41       2.00000          -0.450218          -12.25105
     42       2.00000          -0.449236          -12.22432
     43       2.00000          -0.415129          -11.29622
     44       2.00000          -0.404290          -11.00130
     45       2.00000          -0.396752          -10.79617
     46       2.00000          -0.393037          -10.69508
     47       2.00000          -0.378985          -10.31271
     48       2.00000          -0.377345          -10.26807
     49       2.00000          -0.360355           -9.80576
     50       2.00000          -0.346609           -9.43170
     51       2.00000          -0.346379           -9.42546
     52       2.00000          -0.344595           -9.37691
     53       2.00000          -0.344358           -9.37046
     54       2.00000          -0.333550           -9.07636
     55       2.00000          -0.332788           -9.05562
     56       2.00000          -0.329530           -8.96698
     57       2.00000          -0.328542           -8.94009
     58       2.00000          -0.320407           -8.71872
     59       2.00000          -0.280265           -7.62639
     60       2.00000          -0.278794           -7.58638
     61       0.00000          -0.135563           -3.68885
     62       0.00000          -0.121047           -3.29386
     63       0.00000          -0.058153           -1.58243
     64       0.00000          -0.051868           -1.41140
     65       0.00000          -0.013713           -0.37315
     66       0.00000           0.020629            0.56135
     67       0.00000           0.028314            0.77046
     68       0.00000           0.041555            1.13076
     69       0.00000           0.087063            2.36911
     70       0.00000           0.139875            3.80619
     71       0.00000           0.144196            3.92378
     72       0.00000           0.154242            4.19714
     73       0.00000           0.156823            4.26737
     74       0.00000           0.166435            4.52892
     75       0.00000           0.171060            4.65478
     76       0.00000           0.183945            5.00539
     77       0.00000           0.192592            5.24069
     78       0.00000           0.206496            5.61904
     79       0.00000           0.216360            5.88745
     80       0.00000           0.220258            5.99352
     81       0.00000           0.222045            6.04214
     82       0.00000           0.233475            6.35318
     83       0.00000           0.234118            6.37066
     84       0.00000           0.260050            7.07631
     85       0.00000           0.280247            7.62592
     86       0.00000           0.282853            7.69681
     87       0.00000           0.290626            7.90834
     88       0.00000           0.313725            8.53690
     89       0.00000           0.345420            9.39936
     90       0.00000           0.356755            9.70780
     91       0.00000           0.375197           10.20963
     92       0.00000           0.399165           10.86183
     93       0.00000           0.401356           10.92145
     94       0.00000           0.408445           11.11436
     95       0.00000           0.411835           11.20661
     96       0.00000           0.422310           11.49164

  Highest occupied state (VBM) at     -7.58637741 eV
  | Occupation number:      2.00000000

  Lowest unoccupied state (CBM) at    -3.68884897 eV
  | Occupation number:      0.00000000

  Overall HOMO-LUMO gap:      3.89752844 eV.

  Total energy components:
  | Sum of eigenvalues            :        -880.15659033 Ha      -23950.27939964 eV
  | XC energy correction          :        -146.46535607 Ha       -3985.52511986 eV
  | XC potential correction       :         190.75789204 Ha        5190.78634658 eV
  | Free-atom electrostatic energy:        -776.52428430 Ha      -21130.30087369 eV
  | Hartree energy correction     :         -12.37232640 Ha        -336.66813096 eV
  | Entropy correction            :           0.00000000 Ha           0.00000000 eV
  | ---------------------------
  | Total energy                  :       -1624.76066507 Ha      -44211.98717757 eV
  | Total energy, T -> 0          :       -1624.76066507 Ha      -44211.98717757 eV  <-- do not rely on this value for anything but (periodic) metals
  | Electronic free energy        :       -1624.76066507 Ha      -44211.98717757 eV

  Derived energy quantities:
  | Kinetic energy                :        1638.59005258 Ha       44588.30395851 eV
  | Electrostatic energy          :       -3116.88536157 Ha      -84814.76601621 eV
  | Energy correction for multipole
  | error in Hartree potential    :           0.05067226 Ha           1.37886242 eV
  | Sum of eigenvalues per atom                           :       -1995.85661664 eV
  | Total energy (T->0) per atom                          :       -3684.33226480 eV  <-- do not rely on this value for anything but (periodic) metals
  | Electronic free energy per atom                       :       -3684.33226480 eV
  Evaluating new KS density.
  Integration grid: deviation in total charge (<rho> - N_e) =  -1.421085E-14

  Self-consistency convergence accuracy:
  | Change of charge density      :  0.7247E+00
  | Change of sum of eigenvalues  :  0.3312E+03 eV
  | Change of total energy        :  0.8761E+01 eV


------------------------------------------------------------
  End self-consistency iteration #     1       :  max(cpu_time)    wall_clock(cpu1)
  | Time for this iteration                     :        0.079 s           0.078 s
  | Charge density update                       :        0.026 s           0.026 s
  | Density mixing                              :        0.000 s           0.000 s
  | Hartree multipole update                    :        0.001 s           0.002 s
  | Hartree multipole summation                 :        0.016 s           0.016 s
  | Integration                                 :        0.029 s           0.029 s
  | Solution of K.-S. eqns.                     :        0.004 s           0.005 s
  | Total energy evaluation                     :        0.000 s           0.000 s

  Partial memory accounting:
  | Current value for overall tracked memory usage:
  |   Minimum:        0.273 MB (on task 23)
  |   Maximum:        0.292 MB (on task  0)
  |   Average:        0.287 MB
  | Peak value for overall tracked memory usage:
  |   Minimum:        1.321 MB (on task 19 after allocating wave)
  |   Maximum:        1.386 MB (on task 14 after allocating wave)
  |   Average:        1.351 MB
  | Largest tracked array allocation so far:
  |   Minimum:        0.720 MB (gradient_basis_wave on task 19)
  |   Maximum:        0.756 MB (gradient_basis_wave on task  7)
  |   Average:        0.736 MB
  Note:  These values currently only include a subset of arrays which are explicitly tracked.
  The "true" memory usage will be greater.
------------------------------------------------------------

------------------------------------------------------------
          Begin self-consistency iteration #    2

  Date     :  20220517, Time     :  105720.450
------------------------------------------------------------
  Pulay mixing of updated and previous charge densities.
  Renormalizing the density to the exact electron count on the 3D integration grid.
  | Formal number of electrons (from input files) :     120.0000000000
  | Integrated number of electrons on 3D grid     :     120.0000000000
  | Charge integration error                      :      -0.0000000000
  | Normalization factor for density and gradient :       1.0000000000

  Evaluating partitioned Hartree potential by multipole expansion.
  | Original multipole sum: apparent total charge =  -0.499826E-13
  | Sum of charges compensated after spline to logarithmic grids =   0.904995E-04
  | Analytical far-field extrapolation by fixed multipoles:
  | Hartree multipole sum: apparent total charge =  -0.517044E-13
  Summing up the Hartree potential.
  Time summed over all CPUs for potential: real work        0.377 s, elapsed        0.384 s
  | RMS charge density error from multipole expansion :   0.151249E-01

  Integrating Hamiltonian matrix: batch-based integration.
  Time summed over all CPUs for integration: real work        0.655 s, elapsed        0.681 s

  Updating Kohn-Sham eigenvalues and eigenvectors using ELSI and the ELPA eigensolver.
  Starting ELPA eigensolver
  Finished transformation to standard eigenproblem
  | Time :     0.001 s
  Finished solving standard eigenproblem
  | Time :     0.003 s
  Finished back-transformation of eigenvectors
  | Time :     0.000 s

  Obtaining occupation numbers and chemical potential using ELSI.
  | Chemical potential (Fermi level):    -6.66546200 eV
  Highest occupied state (VBM) at     -8.24967811 eV
  | Occupation number:      2.00000000

  Lowest unoccupied state (CBM) at    -4.01903152 eV
  | Occupation number:      0.00000000

  Overall HOMO-LUMO gap:      4.23064659 eV.

  Checking to see if s.c.f. parameters should be adjusted.

  Total energy components:
  | Sum of eigenvalues            :        -883.75867939 Ha      -24048.29723022 eV
  | XC energy correction          :        -145.95742266 Ha       -3971.70354869 eV
  | XC potential correction       :         190.08921300 Ha        5172.59066436 eV
  | Free-atom electrostatic energy:        -776.52428430 Ha      -21130.30087369 eV
  | Hartree energy correction     :          -8.55168078 Ha        -232.70307372 eV
  | Entropy correction            :           0.00000000 Ha           0.00000000 eV
  | ---------------------------
  | Total energy                  :       -1624.70285413 Ha      -44210.41406197 eV
  | Total energy, T -> 0          :       -1624.70285413 Ha      -44210.41406197 eV  <-- do not rely on this value for anything but (periodic) metals
  | Electronic free energy        :       -1624.70285413 Ha      -44210.41406197 eV

  Derived energy quantities:
  | Kinetic energy                :        1634.44673178 Ha       44475.55846319 eV
  | Electrostatic energy          :       -3113.19216325 Ha      -84714.26897647 eV
  | Energy correction for multipole
  | error in Hartree potential    :           0.05669459 Ha           1.54273826 eV
  | Sum of eigenvalues per atom                           :       -2004.02476919 eV
  | Total energy (T->0) per atom                          :       -3684.20117183 eV  <-- do not rely on this value for anything but (periodic) metals
  | Electronic free energy per atom                       :       -3684.20117183 eV
  Evaluating new KS density.
  Integration grid: deviation in total charge (<rho> - N_e) =  -2.842171E-14

  Self-consistency convergence accuracy:
  | Change of charge density      :  0.4591E+00
  | Change of sum of eigenvalues  : -0.9802E+02 eV
  | Change of total energy        :  0.1573E+01 eV


------------------------------------------------------------
  End self-consistency iteration #     2       :  max(cpu_time)    wall_clock(cpu1)
  | Time for this iteration                     :        0.081 s           0.079 s
  | Charge density update                       :        0.026 s           0.026 s
  | Density mixing                              :        0.004 s           0.002 s
  | Hartree multipole update                    :        0.001 s           0.001 s
  | Hartree multipole summation                 :        0.016 s           0.016 s
  | Integration                                 :        0.029 s           0.029 s
  | Solution of K.-S. eqns.                     :        0.004 s           0.004 s
  | Total energy evaluation                     :        0.000 s           0.001 s

  Partial memory accounting:
  | Current value for overall tracked memory usage:
  |   Minimum:        0.274 MB (on task 23)
  |   Maximum:        0.293 MB (on task  0)
  |   Average:        0.288 MB
  | Peak value for overall tracked memory usage:
  |   Minimum:        1.321 MB (on task 19 after allocating wave)
  |   Maximum:        1.386 MB (on task 14 after allocating wave)
  |   Average:        1.351 MB
  | Largest tracked array allocation so far:
  |   Minimum:        0.720 MB (gradient_basis_wave on task 19)
  |   Maximum:        0.756 MB (gradient_basis_wave on task  7)
  |   Average:        0.736 MB
  Note:  These values currently only include a subset of arrays which are explicitly tracked.
  The "true" memory usage will be greater.
------------------------------------------------------------

------------------------------------------------------------
          Begin self-consistency iteration #    3

  Date     :  20220517, Time     :  105720.536
------------------------------------------------------------
  Pulay mixing of updated and previous charge densities.
  Renormalizing the density to the exact electron count on the 3D integration grid.
  | Formal number of electrons (from input files) :     120.0000000000
  | Integrated number of electrons on 3D grid     :     120.0000000000
  | Charge integration error                      :       0.0000000000
  | Normalization factor for density and gradient :       1.0000000000

  Evaluating partitioned Hartree potential by multipole expansion.
  | Original multipole sum: apparent total charge =   0.152998E-13
  | Sum of charges compensated after spline to logarithmic grids =   0.112637E-03
  | Analytical far-field extrapolation by fixed multipoles:
  | Hartree multipole sum: apparent total charge =   0.151768E-13
  Summing up the Hartree potential.
  Time summed over all CPUs for potential: real work        0.376 s, elapsed        0.384 s
  | RMS charge density error from multipole expansion :   0.189778E-01

  Integrating Hamiltonian matrix: batch-based integration.
  Time summed over all CPUs for integration: real work        0.656 s, elapsed        0.680 s

  Updating Kohn-Sham eigenvalues and eigenvectors using ELSI and the ELPA eigensolver.
  Starting ELPA eigensolver
  Finished transformation to standard eigenproblem
  | Time :     0.000 s
  Finished solving standard eigenproblem
  | Time :     0.004 s
  Finished back-transformation of eigenvectors
  | Time :     0.000 s

  Obtaining occupation numbers and chemical potential using ELSI.
  | Chemical potential (Fermi level):    -6.69301651 eV
  Highest occupied state (VBM) at     -8.22066693 eV
  | Occupation number:      2.00000000

  Lowest unoccupied state (CBM) at    -4.03572907 eV
  | Occupation number:      0.00000000

  Overall HOMO-LUMO gap:      4.18493786 eV.

  Total energy components:
  | Sum of eigenvalues            :        -884.09743325 Ha      -24057.51519163 eV
  | XC energy correction          :        -145.98502324 Ha       -3972.45459861 eV
  | XC potential correction       :         190.12434056 Ha        5173.54653379 eV
  | Free-atom electrostatic energy:        -776.52428430 Ha      -21130.30087369 eV
  | Hartree energy correction     :          -8.21907988 Ha        -223.65254277 eV
  | Entropy correction            :           0.00000000 Ha           0.00000000 eV
  | ---------------------------
  | Total energy                  :       -1624.70148011 Ha      -44210.37667290 eV
  | Total energy, T -> 0          :       -1624.70148011 Ha      -44210.37667290 eV  <-- do not rely on this value for anything but (periodic) metals
  | Electronic free energy        :       -1624.70148011 Ha      -44210.37667290 eV

  Derived energy quantities:
  | Kinetic energy                :        1633.52050755 Ha       44450.35461949 eV
  | Electrostatic energy          :       -3112.23696441 Ha      -84688.27669378 eV
  | Energy correction for multipole
  | error in Hartree potential    :           0.06988994 Ha           1.90180204 eV
  | Sum of eigenvalues per atom                           :       -2004.79293264 eV
  | Total energy (T->0) per atom                          :       -3684.19805608 eV  <-- do not rely on this value for anything but (periodic) metals
  | Electronic free energy per atom                       :       -3684.19805608 eV
  Evaluating new KS density.
  Integration grid: deviation in total charge (<rho> - N_e) =  -2.842171E-14

  Self-consistency convergence accuracy:
  | Change of charge density      :  0.1211E+00
  | Change of sum of eigenvalues  : -0.9218E+01 eV
  | Change of total energy        :  0.3739E-01 eV


------------------------------------------------------------
  End self-consistency iteration #     3       :  max(cpu_time)    wall_clock(cpu1)
  | Time for this iteration                     :        0.081 s           0.078 s
  | Charge density update                       :        0.026 s           0.026 s
  | Density mixing                              :        0.004 s           0.000 s
  | Hartree multipole update                    :        0.001 s           0.002 s
  | Hartree multipole summation                 :        0.016 s           0.016 s
  | Integration                                 :        0.029 s           0.029 s
  | Solution of K.-S. eqns.                     :        0.004 s           0.004 s
  | Total energy evaluation                     :        0.000 s           0.000 s

  Partial memory accounting:
  | Current value for overall tracked memory usage:
  |   Minimum:        0.274 MB (on task 23)
  |   Maximum:        0.293 MB (on task  0)
  |   Average:        0.288 MB
  | Peak value for overall tracked memory usage:
  |   Minimum:        1.321 MB (on task 19 after allocating wave)
  |   Maximum:        1.386 MB (on task 14 after allocating wave)
  |   Average:        1.351 MB
  | Largest tracked array allocation so far:
  |   Minimum:        0.720 MB (gradient_basis_wave on task 19)
  |   Maximum:        0.756 MB (gradient_basis_wave on task  7)
  |   Average:        0.736 MB
  Note:  These values currently only include a subset of arrays which are explicitly tracked.
  The "true" memory usage will be greater.
------------------------------------------------------------

------------------------------------------------------------
          Begin self-consistency iteration #    4

  Date     :  20220517, Time     :  105720.619
------------------------------------------------------------
  Pulay mixing of updated and previous charge densities.
  Renormalizing the density to the exact electron count on the 3D integration grid.
  | Formal number of electrons (from input files) :     120.0000000000
  | Integrated number of electrons on 3D grid     :     120.0000000000
  | Charge integration error                      :      -0.0000000000
  | Normalization factor for density and gradient :       1.0000000000

  Evaluating partitioned Hartree potential by multipole expansion.
  | Original multipole sum: apparent total charge =  -0.384217E-13
  | Sum of charges compensated after spline to logarithmic grids =   0.126626E-03
  | Analytical far-field extrapolation by fixed multipoles:
  | Hartree multipole sum: apparent total charge =  -0.366998E-13
  Summing up the Hartree potential.
  Time summed over all CPUs for potential: real work        0.377 s, elapsed        0.385 s
  | RMS charge density error from multipole expansion :   0.221323E-01

  Integrating Hamiltonian matrix: batch-based integration.
  Time summed over all CPUs for integration: real work        0.655 s, elapsed        0.681 s

  Updating Kohn-Sham eigenvalues and eigenvectors using ELSI and the ELPA eigensolver.
  Starting ELPA eigensolver
  Finished transformation to standard eigenproblem
  | Time :     0.000 s
  Finished solving standard eigenproblem
  | Time :     0.004 s
  Finished back-transformation of eigenvectors
  | Time :     0.000 s

  Obtaining occupation numbers and chemical potential using ELSI.
  | Chemical potential (Fermi level):    -6.71227160 eV
  Highest occupied state (VBM) at     -7.99910277 eV
  | Occupation number:      2.00000000

  Lowest unoccupied state (CBM) at    -4.04212499 eV
  | Occupation number:      0.00000000

  Overall HOMO-LUMO gap:      3.95697778 eV.

  Total energy components:
  | Sum of eigenvalues            :        -884.24906946 Ha      -24061.64142274 eV
  | XC energy correction          :        -145.96190556 Ha       -3971.82553441 eV
  | XC potential correction       :         190.09276930 Ha        5172.68743612 eV
  | Free-atom electrostatic energy:        -776.52428430 Ha      -21130.30087369 eV
  | Hartree energy correction     :          -8.05733257 Ha        -219.25117459 eV
  | Entropy correction            :           0.00000000 Ha           0.00000000 eV
  | ---------------------------
  | Total energy                  :       -1624.69982258 Ha      -44210.33156931 eV
  | Total energy, T -> 0          :       -1624.69982258 Ha      -44210.33156931 eV  <-- do not rely on this value for anything but (periodic) metals
  | Electronic free energy        :       -1624.69982258 Ha      -44210.33156931 eV

  Derived energy quantities:
  | Kinetic energy                :        1632.54642159 Ha       44423.84839208 eV
  | Electrostatic energy          :       -3111.28433862 Ha      -84662.35442698 eV
  | Energy correction for multipole
  | error in Hartree potential    :           0.08003420 Ha           2.17784139 eV
  | Sum of eigenvalues per atom                           :       -2005.13678523 eV
  | Total energy (T->0) per atom                          :       -3684.19429744 eV  <-- do not rely on this value for anything but (periodic) metals
  | Electronic free energy per atom                       :       -3684.19429744 eV
  Evaluating new KS density.
  Integration grid: deviation in total charge (<rho> - N_e) =   4.263256E-14

  Self-consistency convergence accuracy:
  | Change of charge density      :  0.8665E-01
  | Change of sum of eigenvalues  : -0.4126E+01 eV
  | Change of total energy        :  0.4510E-01 eV


------------------------------------------------------------
  End self-consistency iteration #     4       :  max(cpu_time)    wall_clock(cpu1)
  | Time for this iteration                     :        0.081 s           0.080 s
  | Charge density update                       :        0.026 s           0.026 s
  | Density mixing                              :        0.004 s           0.002 s
  | Hartree multipole update                    :        0.001 s           0.002 s
  | Hartree multipole summation                 :        0.016 s           0.016 s
  | Integration                                 :        0.029 s           0.029 s
  | Solution of K.-S. eqns.                     :        0.004 s           0.004 s
  | Total energy evaluation                     :        0.000 s           0.000 s

  Partial memory accounting:
  | Current value for overall tracked memory usage:
  |   Minimum:        0.274 MB (on task 23)
  |   Maximum:        0.293 MB (on task  0)
  |   Average:        0.288 MB
  | Peak value for overall tracked memory usage:
  |   Minimum:        1.321 MB (on task 19 after allocating wave)
  |   Maximum:        1.386 MB (on task 14 after allocating wave)
  |   Average:        1.351 MB
  | Largest tracked array allocation so far:
  |   Minimum:        0.720 MB (gradient_basis_wave on task 19)
  |   Maximum:        0.756 MB (gradient_basis_wave on task  7)
  |   Average:        0.736 MB
  Note:  These values currently only include a subset of arrays which are explicitly tracked.
  The "true" memory usage will be greater.
------------------------------------------------------------

------------------------------------------------------------
          Begin self-consistency iteration #    5

  Date     :  20220517, Time     :  105720.704
------------------------------------------------------------
  Pulay mixing of updated and previous charge densities.
  Renormalizing the density to the exact electron count on the 3D integration grid.
  | Formal number of electrons (from input files) :     120.0000000000
  | Integrated number of electrons on 3D grid     :     120.0000000000
  | Charge integration error                      :       0.0000000000
  | Normalization factor for density and gradient :       1.0000000000

  Evaluating partitioned Hartree potential by multipole expansion.
  | Original multipole sum: apparent total charge =   0.513847E-13
  | Sum of charges compensated after spline to logarithmic grids =   0.127460E-03
  | Analytical far-field extrapolation by fixed multipoles:
  | Hartree multipole sum: apparent total charge =   0.504500E-13
  Summing up the Hartree potential.
  Time summed over all CPUs for potential: real work        0.377 s, elapsed        0.385 s
  | RMS charge density error from multipole expansion :   0.221270E-01

  Integrating Hamiltonian matrix: batch-based integration.
  Time summed over all CPUs for integration: real work        0.656 s, elapsed        0.681 s

  Updating Kohn-Sham eigenvalues and eigenvectors using ELSI and the ELPA eigensolver.
  Starting ELPA eigensolver
  Finished transformation to standard eigenproblem
  | Time :     0.001 s
  Finished solving standard eigenproblem
  | Time :     0.003 s
  Finished back-transformation of eigenvectors
  | Time :     0.000 s

  Obtaining occupation numbers and chemical potential using ELSI.
  | Chemical potential (Fermi level):    -6.69921177 eV
  Highest occupied state (VBM) at     -8.06518923 eV
  | Occupation number:      2.00000000

  Lowest unoccupied state (CBM) at    -4.01788656 eV
  | Occupation number:      0.00000000

  Overall HOMO-LUMO gap:      4.04730267 eV.

  Total energy components:
  | Sum of eigenvalues            :        -884.25148052 Ha      -24061.70703112 eV
  | XC energy correction          :        -145.95193201 Ha       -3971.55414048 eV
  | XC potential correction       :         190.07970390 Ha        5172.33190846 eV
  | Free-atom electrostatic energy:        -776.52428430 Ha      -21130.30087369 eV
  | Hartree energy correction     :          -8.05174044 Ha        -219.09900507 eV
  | Entropy correction            :           0.00000000 Ha           0.00000000 eV
[...]
   Total forces(   7)            : -0.161001E+02  0.866581E+01 -0.853315E+01
  atom #    8
   Hellmann-Feynman              :  0.497283E+01  0.467109E+01 -0.901647E+00
   Ionic forces                  :  0.000000E+00  0.000000E+00  0.000000E+00
   Multipole                     :  0.153046E+00  0.143571E+00 -0.277430E-01
   Hartree pot. SCF incomplete   : -0.401466E-06 -0.364127E-06  0.559419E-07
   Pulay + GGA                   : -0.262763E+01 -0.246796E+01  0.477678E+00
   ----------------------------------------------------------------
   Total forces(   8)            :  0.249825E+01  0.234669E+01 -0.451711E+00
  atom #    9
   Hellmann-Feynman              : -0.131427E+01 -0.915409E+01 -0.136683E+02
   Ionic forces                  :  0.000000E+00  0.000000E+00  0.000000E+00
   Multipole                     :  0.704438E+00 -0.589541E-01 -0.635605E+00
   Hartree pot. SCF incomplete   :  0.937968E-06 -0.658399E-06  0.382453E-06
   Pulay + GGA                   :  0.949586E+00 -0.129018E+01 -0.291927E+01
   ----------------------------------------------------------------
   Total forces(   9)            :  0.339751E+00 -0.105032E+02 -0.172232E+02
  atom #   10
   Hellmann-Feynman              : -0.646229E+01  0.185412E+01  0.150756E+02
   Ionic forces                  :  0.000000E+00  0.000000E+00  0.000000E+00
   Multipole                     :  0.937318E-01  0.808428E+00  0.491136E+00
   Hartree pot. SCF incomplete   : -0.730401E-06  0.968651E-06 -0.471848E-06
   Pulay + GGA                   : -0.667033E+00  0.154918E+01  0.286898E+01
   ----------------------------------------------------------------
   Total forces(  10)            : -0.703559E+01  0.421173E+01  0.184357E+02
  atom #   11
   Hellmann-Feynman              :  0.220004E+01  0.951879E+00  0.206359E+01
   Ionic forces                  :  0.000000E+00  0.000000E+00  0.000000E+00
   Multipole                     :  0.610013E+00  0.320082E+00  0.447985E+00
   Hartree pot. SCF incomplete   : -0.878775E-06 -0.226909E-06 -0.116231E-05
   Pulay + GGA                   : -0.512580E+01 -0.228962E+01 -0.464415E+01
   ----------------------------------------------------------------
   Total forces(  11)            : -0.231575E+01 -0.101766E+01 -0.213258E+01
  atom #   12
   Hellmann-Feynman              : -0.216514E+01 -0.205785E+01  0.442839E+00
   Ionic forces                  :  0.000000E+00  0.000000E+00  0.000000E+00
   Multipole                     : -0.584051E+00 -0.528723E+00  0.615120E-01
   Hartree pot. SCF incomplete   :  0.862316E-06  0.850616E-06 -0.243808E-06
   Pulay + GGA                   :  0.499899E+01  0.487125E+01 -0.129073E+01
   ----------------------------------------------------------------
   Total forces(  12)            :  0.224980E+01  0.228467E+01 -0.786377E+00


  Self-consistency convergence accuracy:
  | Change of charge density      :  0.3724E-06
  | Change of sum of eigenvalues  :  0.4024E-04 eV
  | Change of total energy        : -0.2712E-07 eV
  | Change of forces              :  0.8902E-06 eV/A

  Writing Kohn-Sham eigenvalues.

  State    Occupation    Eigenvalue [Ha]    Eigenvalue [eV]
      1       2.00000         -55.638141        -1513.99083
      2       2.00000         -55.638136        -1513.99071
      3       2.00000         -55.387717        -1507.17647
      4       2.00000         -24.249127         -659.85232
      5       2.00000         -24.249124         -659.85223
      6       2.00000         -24.249118         -659.85208
      7       2.00000         -24.249113         -659.85195
      8       2.00000         -24.228088         -659.27983
      9       2.00000         -24.228082         -659.27966
     10       2.00000         -24.220960         -659.08585
     11       2.00000         -24.220952         -659.08564
     12       2.00000         -24.117007         -656.25715
     13       2.00000          -4.088943         -111.26579
     14       2.00000          -4.088938         -111.26565
     15       2.00000          -3.926375         -106.84209
     16       2.00000          -2.683821          -73.03049
     17       2.00000          -2.683815          -73.03032
     18       2.00000          -2.680205          -72.93208
     19       2.00000          -2.680199          -72.93192
     20       2.00000          -2.677599          -72.86117
     21       2.00000          -2.677595          -72.86107
     22       2.00000          -2.523057          -68.65588
     23       2.00000          -2.522081          -68.62932
     24       2.00000          -2.508838          -68.26896
     25       2.00000          -1.243159          -33.82808
     26       2.00000          -1.189877          -32.37820
     27       2.00000          -1.171421          -31.87600
     28       2.00000          -1.140803          -31.04282
     29       2.00000          -1.075917          -29.27720
     30       2.00000          -1.075889          -29.27644
     31       2.00000          -1.068316          -29.07036
     32       2.00000          -1.068280          -29.06936
     33       2.00000          -0.999896          -27.20856
     34       2.00000          -0.612159          -16.65768
     35       2.00000          -0.559584          -15.22706
     36       2.00000          -0.555796          -15.12398
     37       2.00000          -0.531911          -14.47404
     38       2.00000          -0.527967          -14.36670
     39       2.00000          -0.515735          -14.03386
     40       2.00000          -0.484623          -13.18725
     41       2.00000          -0.475787          -12.94683
     42       2.00000          -0.475340          -12.93466
     43       2.00000          -0.450121          -12.24840
     44       2.00000          -0.440507          -11.98681
     45       2.00000          -0.425789          -11.58630
     46       2.00000          -0.420669          -11.44699
     47       2.00000          -0.420580          -11.44458
     48       2.00000          -0.418890          -11.39857
     49       2.00000          -0.391217          -10.64555
     50       2.00000          -0.384376          -10.45941
     51       2.00000          -0.383884          -10.44601
     52       2.00000          -0.382785          -10.41610
     53       2.00000          -0.382302          -10.40296
     54       2.00000          -0.374038          -10.17810
     55       2.00000          -0.373163          -10.15427
     56       2.00000          -0.369633          -10.05822
     57       2.00000          -0.368984          -10.04056
     58       2.00000          -0.336436           -9.15489
     59       2.00000          -0.296966           -8.08086
     60       2.00000          -0.295617           -8.04416
     61       0.00000          -0.147530           -4.01450
     62       0.00000          -0.133531           -3.63356
     63       0.00000          -0.061325           -1.66873
     64       0.00000          -0.055175           -1.50139
     65       0.00000          -0.020276           -0.55173
     66       0.00000           0.015836            0.43092
     67       0.00000           0.021347            0.58089
     68       0.00000           0.034229            0.93141
     69       0.00000           0.083441            2.27053
     70       0.00000           0.135676            3.69194
     71       0.00000           0.137263            3.73511
     72       0.00000           0.154565            4.20592
     73       0.00000           0.157078            4.27432
     74       0.00000           0.160036            4.35481
     75       0.00000           0.163292            4.44341
     76       0.00000           0.175541            4.77670
     77       0.00000           0.184241            5.01344
     78       0.00000           0.196909            5.35817
     79       0.00000           0.207383            5.64318
     80       0.00000           0.217869            5.92852
     81       0.00000           0.219846            5.98232
     82       0.00000           0.229159            6.23573
     83       0.00000           0.229403            6.24237
     84       0.00000           0.254662            6.92972
     85       0.00000           0.273340            7.43796
     86       0.00000           0.278675            7.58313
     87       0.00000           0.282559            7.68883
     88       0.00000           0.310825            8.45797
     89       0.00000           0.338555            9.21255
     90       0.00000           0.347486            9.45559
     91       0.00000           0.366317            9.96800
     92       0.00000           0.389519           10.59936
     93       0.00000           0.391286           10.64744
     94       0.00000           0.394969           10.74766
     95       0.00000           0.398055           10.83164
     96       0.00000           0.410719           11.17624

  Highest occupied state (VBM) at     -8.04416065 eV
  | Occupation number:      2.00000000

  Lowest unoccupied state (CBM) at    -4.01449752 eV
  | Occupation number:      0.00000000

  Overall HOMO-LUMO gap:      4.02966313 eV.
  | Chemical Potential                          :    -6.69681441 eV

  Self-consistency cycle converged.


------------------------------------------------------------
  End self-consistency iteration #    13       :  max(cpu_time)    wall_clock(cpu1)
  | Time for this iteration                     :        0.262 s           0.260 s
  | Charge density & force component update     :        0.142 s           0.142 s
  | Density mixing                              :        0.005 s           0.002 s
  | Hartree multipole update                    :        0.001 s           0.001 s
  | Hartree multipole summation                 :        0.049 s           0.049 s
  | Hartree pot. SCF incomplete forces          :        0.032 s           0.032 s
  | Integration                                 :        0.029 s           0.028 s
  | Solution of K.-S. eqns.                     :        0.004 s           0.004 s
  | Total energy evaluation                     :        0.000 s           0.000 s

  Partial memory accounting:
  | Current value for overall tracked memory usage:
  |   Minimum:        0.274 MB (on task 23)
  |   Maximum:        0.293 MB (on task  0)
  |   Average:        0.289 MB
  | Peak value for overall tracked memory usage:
  |   Minimum:        2.956 MB (on task 19 after allocating hessian_basis_wave)
  |   Maximum:        3.086 MB (on task 14 after allocating hessian_basis_wave)
  |   Average:        3.016 MB
  | Largest tracked array allocation so far:
  |   Minimum:        1.439 MB (hessian_basis_wave on task 19)
  |   Maximum:        1.512 MB (hessian_basis_wave on task  7)
  |   Average:        1.472 MB
  Note:  These values currently only include a subset of arrays which are explicitly tracked.
  The "true" memory usage will be greater.
------------------------------------------------------------
  Removing unitary transformations (pure translations, rotations) from forces on atoms.
  Atomic forces before filtering:
  | Net force on center of mass :   0.254282E-02  0.717183E-02  0.369335E-02 eV/A
  | Net torque on center of mass:   0.667718E-02 -0.107212E-01  0.463820E-02 eV
  Atomic forces after filtering:
  | Net force on center of mass :   0.820668E-14  0.107044E-14 -0.321131E-14 eV/A
  | Net torque on center of mass:  -0.302107E-14  0.358752E-14  0.679741E-14 eV

  Energy and forces in a compact form:
  | Total energy uncorrected      :         -0.442103291523228E+05 eV
  | Total energy corrected        :         -0.442103291523228E+05 eV  <-- do not rely on this value for anything but (periodic) metals
  | Electronic free energy        :         -0.442103291523228E+05 eV
  Total atomic forces (unitary forces cleaned) [eV/Ang]:
  |    1          0.317104157982565E+00         -0.122751835984209E+00          0.870560413467848E+00
  |    2          0.912487793132377E+01          0.857646735576223E+01         -0.164838515330647E+01
  |    3         -0.271206326740995E+00          0.165238436695129E+00         -0.879257000272133E+00
  |    4          0.248894407092455E+01          0.216773280781734E+01         -0.716558837957005E-01
  |    5          0.940167753953173E+01         -0.149575720388310E+02          0.974515741611729E+01
  |    6         -0.697820479626558E+00         -0.181372399381710E+01          0.267732605920297E+01
  |    7         -0.161000357416446E+02          0.866534341541137E+01         -0.853349668604963E+01
  |    8          0.249848051802399E+01          0.234551738313754E+01         -0.452563055332091E+00
  |    9          0.339172689484875E+00         -0.105042078981229E+02         -0.172235289673763E+02
  |   10         -0.703532898226787E+01          0.421137327752753E+01          0.184352504628761E+02
  |   11         -0.231532916981907E+01         -0.101823356457470E+01         -0.213319318973538E+01
  |   12          0.224946379282762E+01          0.228481665497883E+01         -0.786214415796500E+00

  ------------------------------------ 
  Start decomposition of the XC Energy 
  ------------------------------------ 
  X and C from original XC functional choice 
  Hartree-Fock Energy :          0.000000000 Ha              0.000000000 eV
  X Energy            :       -140.948637662 Ha          -3835.407574170 eV
  C Energy            :         -5.008003862 Ha           -136.274718660 eV
  Total XC Energy     :       -145.956641524 Ha          -3971.682292829 eV
  ------------------------------------ 
  LDA X and C from self-consistent density 
  X Energy LDA        :       -133.580093614 Ha          -3634.899288867 eV
  C Energy LDA        :         -8.865205531 Ha           -241.234516371 eV
  ------------------------------------ 
  End decomposition of the XC Energy 
  ------------------------------------ 

------------------------------------------------------------

------------------------------------------------------------------------------
  Final output of selected total energy values:

  The following output summarizes some interesting total energy values
  at the end of a run (AFTER all relaxation, molecular dynamics, etc.).

  | Total energy of the DFT / Hartree-Fock s.c.f. calculation      :         -44210.329152323 eV
  | Final zero-broadening corrected energy (caution - metals only) :         -44210.329152323 eV
  | For reference only, the value of 1 Hartree used in FHI-aims is :             27.211384500 eV

  Before relying on these values, please be sure to understand exactly which
  total energy value is referred to by a given number. Different objects may
  all carry the same name 'total energy'. Definitions:

  Total energy of the DFT / Hartree-Fock s.c.f. calculation:
  | Note that this energy does not include ANY quantities calculated after the
  | s.c.f. cycle, in particular not ANY RPA, MP2, etc. many-body perturbation terms.

  Final zero-broadening corrected energy:
  | For metallic systems only, a broadening of the occupation numbers at the Fermi
  | level can be extrapolated back to zero broadening by an electron-gas inspired
  | formula. For all systems that are not real metals, this value can be
  | meaningless and should be avoided.

------------------------------------------------------------------------------
  Methods described in the following list of references were used in this FHI-aims run.
  If you publish the results, please make sure to cite these reference if they apply.
  FHI-aims is an academic code, and for our developers (often, Ph.D. students
  and postdocs), scientific credit in the community is essential.
  Thank you for helping us!

  For any use of FHI-aims, please cite:

    Volker Blum, Ralf Gehrke, Felix Hanke, Paula Havu, Ville Havu,
    Xinguo Ren, Karsten Reuter, and Matthias Scheffler
    'Ab initio molecular simulations with numeric atom-centered orbitals'
    Computer Physics Communications 180, 2175-2196 (2009)
    http://dx.doi.org/10.1016/j.cpc.2009.06.022


  The ELSI infrastructure was used in your run to solve the Kohn-Sham electronic structure.
  Please check out http://elsi-interchange.org to learn more.
  If scalability is important for your project, please acknowledge ELSI by citing:

    V. W-z. Yu, F. Corsetti, A. Garcia, W. P. Huhn, M. Jacquelin, W. Jia,
    B. Lange, L. Lin, J. Lu, W. Mi, A. Seifitokaldani, A. Vazquez-Mayagoitia,
    C. Yang, H. Yang, and V. Blum
    'ELSI: A unified software interface for Kohn-Sham electronic structure solvers'
    Computer Physics Communications 222, 267-285 (2018).
    http://dx.doi.org/10.1016/j.cpc.2017.09.007


  For the real-space grid partitioning and parallelization used in this calculation, please cite:

    Ville Havu, Volker Blum, Paula Havu, and Matthias Scheffler,
    'Efficient O(N) integration for all-electron electronic structure calculation'
    'using numerically tabulated basis functions'
    Journal of Computational Physics 228, 8367-8379 (2009).
    http://dx.doi.org/10.1016/j.jcp.2009.08.008

  Of course, there are many other important community references, e.g., those cited in the
  above references. Our list is limited to references that describe implementations in the
  FHI-aims code. The reason is purely practical (length of this list) - please credit others as well.

------------------------------------------------------------
          Leaving FHI-aims.
          Date     :  20220517, Time     :  105721.850

          Computational steps:
          | Number of self-consistency cycles          :           13
          | Number of SCF (re)initializations          :            1

          Detailed time accounting                     :  max(cpu_time)    wall_clock(cpu1)
          | Total time                                  :        1.789 s           2.510 s
          | Preparation time                            :        0.184 s           0.185 s
          | Boundary condition initalization            :        0.000 s           0.000 s
          | Grid partitioning                           :        0.038 s           0.038 s
          | Preloading free-atom quantities on grid     :        0.015 s           0.015 s
          | Free-atom superposition energy              :        0.005 s           0.004 s
          | Total time for integrations                 :        0.417 s           0.417 s
          | Total time for solution of K.-S. equations  :        0.065 s           0.064 s
          | Total time for density & force components   :        0.599 s           0.599 s
          | Total time for mixing                       :        0.055 s           0.025 s
          | Total time for Hartree multipole update     :        0.018 s           0.020 s
          | Total time for Hartree multipole sum        :        0.278 s           0.275 s
          | Total time for total energy evaluation      :        0.002 s           0.005 s
          | Total time NSC force correction             :        0.064 s           0.064 s
          | Total time for scaled ZORA corrections      :        0.000 s           0.000 s

          Partial memory accounting:
          | Residual value for overall tracked memory usage across tasks:     0.000000 MB (should be 0.000000 MB)
          | Peak values for overall tracked memory usage:
          |   Minimum:        2.956 MB (on task 19 after allocating hessian_basis_wave)
          |   Maximum:        3.086 MB (on task 14 after allocating hessian_basis_wave)
          |   Average:        3.016 MB
          | Largest tracked array allocation:
          |   Minimum:        1.439 MB (hessian_basis_wave on task 19)
          |   Maximum:        1.512 MB (hessian_basis_wave on task  7)
          |   Average:        1.472 MB
          Note:  These values currently only include a subset of arrays which are explicitly tracked.
          The "true" memory usage will be greater.

          Have a nice day.
------------------------------------------------------------
