------------------------------------------------------------
          Invoking FHI-aims ...

          When using FHI-aims, please cite the following reference:

            Volker Blum, Ralf Gehrke, Felix Hanke, Paula Havu,
            Ville Havu, Xinguo Ren, Karsten Reuter, and Matthias Scheffler,
            'Ab Initio Molecular Simulations with Numeric Atom-Centered Orbitals',
            Computer Physics Communications 180, 2175-2196 (2009)

          In addition, many other developments in FHI-aims are likely important for
          your particular application. A partial list of references is given at the end of
          this file. Thank you for giving credit to the authors of these developments.

          For any questions about FHI-aims, please visit our slack channel at

            https://fhi-aims.slack.com

          and our main development and support site at

            https://aims-git.rz-berlin.mpg.de .

          The latter site, in particular, has a wiki to collect information, as well
          as an issue tracker to log discussions, suggest improvements, and report issues
          or bugs. https://aims-git.rz-berlin.mpg.de is also the main development site
          of the project and all new and updated code versions can be obtained there.
          Please send an email to aims-coordinators@fhi-berlin.mpg.de and we will add
          you to these sites. They are for you and everyone is welcome there.

------------------------------------------------------------



  Date     :  20220517, Time     :  112415.294
  Time zero on CPU 1             :   0.417410000000000E-01  s.
  Internal wall clock time zero  :           422018655.294  s.

  FHI-aims created a unique identifier for this run for later identification
  aims_uuid : 8ECF9BE5-CFA1-44F4-AC66-898B59E2256C

  Build configuration of the current instance of FHI-aims
  -------------------------------------------------------
  FHI-aims version      : 210914
  Commit number         : GITDIR-NOTFOUND
  CMake host system     : Linux-3.10.0-693.17.1.el7.x86_64
  CMake version         : 3.21.1
  Fortran compiler      : /shared/ucl/apps/intel/2018.Update3/impi/2018.3.222/intel64/bin/mpiifort (Intel) version 18.0.3.20180410
  Fortran compiler flags: -O3 -ip -fp-model precise
  C compiler            : /shared/ucl/apps/intel/2018.Update3/compilers_and_libraries_2018.3.222/linux/bin/intel64/icc (Intel) version 18.0.3.20180410
  C compiler flags      : -O3 -ip -fp-model precise -std=gnu99
  ELPA2 kernel          : AVX2
  Using MPI
  Using ScaLAPACK
  Using LibXC
  Using i-PI
  Using RLSY
  Linking against: /shared/ucl/apps/intel/2019.Update5/compilers_and_libraries_2019.5.281/linux/mkl/lib/intel64/libmkl_intel_lp64.so
                   /shared/ucl/apps/intel/2019.Update5/compilers_and_libraries_2019.5.281/linux/mkl/lib/intel64/libmkl_sequential.so
                   /shared/ucl/apps/intel/2019.Update5/compilers_and_libraries_2019.5.281/linux/mkl/lib/intel64/libmkl_core.so
                   /shared/ucl/apps/intel/2019.Update5/compilers_and_libraries_2019.5.281/linux/mkl/lib/intel64/libmkl_blacs_intelmpi_lp64.so
                   /shared/ucl/apps/intel/2019.Update5/compilers_and_libraries_2019.5.281/linux/mkl/lib/intel64/libmkl_scalapack_lp64.so

  Using       24 parallel tasks.
  Task        0 on host node-k98e-006 reporting.
  Task        1 on host node-k98e-006 reporting.
  Task        2 on host node-k98e-006 reporting.
  Task        3 on host node-k98e-006 reporting.
  Task        4 on host node-k98e-006 reporting.
  Task        5 on host node-k98e-006 reporting.
  Task        6 on host node-k98e-006 reporting.
  Task        7 on host node-k98e-006 reporting.
  Task        8 on host node-k98e-006 reporting.
  Task        9 on host node-k98e-006 reporting.
  Task       10 on host node-k98e-006 reporting.
  Task       11 on host node-k98e-006 reporting.
  Task       12 on host node-k98e-006 reporting.
  Task       13 on host node-k98e-006 reporting.
  Task       14 on host node-k98e-006 reporting.
  Task       15 on host node-k98e-006 reporting.
  Task       16 on host node-k98e-006 reporting.
  Task       17 on host node-k98e-006 reporting.
  Task       18 on host node-k98e-006 reporting.
  Task       19 on host node-k98e-006 reporting.
  Task       20 on host node-k98e-006 reporting.
  Task       21 on host node-k98e-006 reporting.
  Task       22 on host node-k98e-006 reporting.
  Task       23 on host node-k98e-006 reporting.

  Performing system and environment tests:
  | Environment variable OMP_NUM_THREADS correctly set to 1.
  | Checking for ScaLAPACK...
  | Testing pdtran()...
  | All pdtran() tests passed.

  Obtaining array dimensions for all initial allocations:
  
  -----------------------------------------------------------------------
  Parsing control.in (first pass over file, find array dimensions only).
  The contents of control.in will be repeated verbatim below
  unless switched off by setting 'verbatim_writeout .false.' .
  in the first line of control.in .
  -----------------------------------------------------------------------
  
  #########################################################################################  Physical model
  #########################################################################################
  xc                 pbesol
  spin               none
  relativistic       atomic_zora scalar
  charge             0.0
  #  SCF convergence
  occupation_type    gaussian 0.01
  mixer              pulay
  n_max_pulay        10
  charge_mix_param   0.5
  sc_accuracy_rho    1E-5
  sc_accuracy_eev    1E-3
  sc_accuracy_etot   1E-6
  sc_accuracy_forces 1E-4
  sc_iter_limit      1500
  #  Relaxation
  #relax_geometry   bfgs 1.e-3
  
  ################################################################################
  #
  #  FHI-aims code project
  #  VB, Fritz-Haber Institut, 2009
  #
  #  Suggested "light" defaults for Al atom (to be pasted into control.in file)
  #  Be sure to double-check any results obtained with these settings for post-processing,
  #  e.g., with the "tight" defaults and larger basis sets.
  #
  ################################################################################
    species        Al
  #     global species definitions
      nucleus             13
      mass                26.9815386
  #
      l_hartree           4
  #
      cut_pot             3.5          1.5  1.0
      basis_dep_cutoff    1e-4
  #
      radial_base         41 5.0
      radial_multiplier   1
      angular_grids       specified
        division   0.6594  110
        division   0.8170  194
        division   0.9059  302
  #      division   1.0363  434
  #      division   1.1443  590
  #      division   1.2621  770
  #      division   2.8177  974
  #      outer_grid   974
        outer_grid   302
  ################################################################################
  #
  #  Definition of "minimal" basis
  #
  ################################################################################
  #     valence basis states
      valence      3  s   2.
      valence      3  p   1.
  #     ion occupancy
      ion_occ      3  s   1.
      ion_occ      2  p   6.
  ################################################################################
  #
  #  Suggested additional basis functions. For production calculations,
  #  uncomment them one after another (the most important basis functions are
  #  listed first).
  #
  #  Constructed for dimers: 2.0 A, 2.5 A, 3.0 A, 3.75 A, 4.5 A
  #
  ################################################################################
  #  "First tier" - improvements: -199.47 meV to -10.63 meV
       ionic 3 d auto
       ionic 3 p auto
  #     hydro 4 f 4.7
       ionic 3 s auto
  #  "Second tier" - improvements: -5.35 meV to -1.57 meV
  #     hydro 5 g 7
  #     hydro 3 d 6
  #     hydro 2 s 11.6
  #     hydro 2 p 0.9
  #  "Third tier" - improvements: -0.63 meV to -0.20 meV
  #     hydro 5 f 7.6
  #     hydro 4 p 7.2
  #     hydro 4 s 3.7
  #     hydro 4 d 7.6
  #  "Fourth tier" - improvements: -0.17 meV to -0.08 meV
  #     hydro 4 d 13.6
  #     hydro 5 g 11.2
  #     hydro 4 d 0.9
  #     hydro 1 s 0.4
  #     hydro 4 p 0.1
  #     hydro 5 f 9.8
  #  Further basis functions that fell out of the optimization - noise level...
  #     hydro 4 p 5
  
  ################################################################################
  #
  #  FHI-aims code project
  #  VB, Fritz-Haber Institut, 2009
  #
  #  Suggested "light" defaults for F atom (to be pasted into control.in file)
  #  Be sure to double-check any results obtained with these settings for post-processing,
  #  e.g., with the "tight" defaults and larger basis sets.
  #
  ################################################################################
    species        F
  #     global species definitions
      nucleus             9
      mass                18.9984032
  #
      l_hartree           4
  #
      cut_pot             3.5  1.5  1.0
      basis_dep_cutoff    1e-4
  #
      radial_base         37 5.0
      radial_multiplier   1
      angular_grids specified
        division   0.4014  110
        division   0.5291  194
        division   0.6019  302
  #      division   0.6814  434
  #      division   0.7989  590
  #      division   0.8965  770
  #      division   1.3427  974
  #      outer_grid   974
        outer_grid   302
  ################################################################################
  #
  #  Definition of "minimal" basis
  #
  ################################################################################
  #     valence basis states
      valence      2  s   2.
      valence      2  p   5.
  #     ion occupancy
      ion_occ      2  s   1.
      ion_occ      2  p   4.
  ################################################################################
  #
  #  Suggested additional basis functions. For production calculations,
  #  uncomment them one after another (the most important basis functions are
  #  listed first).
  #
  #  Constructed for dimers: 1.2 A, 1.418 A, 1.75 A, 2.25 A, 3.25 A
  #
  ################################################################################
  #  "First tier" - improvements: -149.44 meV to -45.88 meV
       hydro 2 p 1.7
       hydro 3 d 7.4
       hydro 3 s 6.8
  #  "Second tier" - improvements: -12.96 meV to -1.56 meV
  #     hydro 4 f 11.2
  #     ionic 2 p auto
  #     hydro 1 s 0.75
  #     hydro 4 d 8.8
  #     hydro 5 g 16.8
  #  "Third tier" - improvements: -0.58 meV to -0.05 meV
  #     hydro 3 p 6.2
  #     hydro 3 s 3.2
  #     hydro 4 f 9.6
  #     hydro 3 s 19.6
  #     hydro 4 d 8.6
  #     hydro 5 g 14.4
  # Further basis functions: -0.05 meV and below
  #     hydro 3 p 4.2
  
  -----------------------------------------------------------------------
  Completed first pass over input file control.in .
  -----------------------------------------------------------------------
  
  
  -----------------------------------------------------------------------
  Parsing geometry.in (first pass over file, find array dimensions only).
  The contents of geometry.in will be repeated verbatim below
  unless switched off by setting 'verbatim_writeout .false.' .
  in the first line of geometry.in .
  -----------------------------------------------------------------------
  
  atom 0.317913195 -0.413790078 1.941751717 Al
  atom 2.622013363 -1.867319854 -0.598878490 Al
  atom -1.128390982 -1.915484740 -1.145244136 Al
  atom 3.659681711 -0.245162793 -1.217511203 F
  atom -1.986921851 -0.317680889 -2.040118621 F
  atom 2.778478387 -3.870311677 -0.478113592 F
  atom -1.262382573 -3.922207185 -1.066793669 F
  atom 2.034840996 -1.473759332 1.387077400 F
  atom 0.862725164 -1.413509882 -1.709856665 F
  atom 0.067184751 -1.297794441 3.740754281 F
  atom 0.418190579 1.380128366 1.095278072 F
  atom -1.142224869 -1.514561321 0.924236812 F
  
  -----------------------------------------------------------------------
  Completed first pass over input file geometry.in .
  -----------------------------------------------------------------------
  

  Basic array size parameters:
  | Number of species                 :        2
  | Number of atoms                   :       12
  | Max. basis fn. angular momentum   :        2
  | Max. atomic/ionic basis occupied n:        3
  | Max. number of basis fn. types    :        3
  | Max. radial fns per species/type  :        5
  | Max. logarithmic grid size        :     1340
  | Max. radial integration grid size :       41
  | Max. angular integration grid size:      302
  | Max. angular grid division number :        8
  | Radial grid for Hartree potential :     1340
  | Number of spin channels           :        1

------------------------------------------------------------
          Reading file control.in.
------------------------------------------------------------
  XC: Using PBEsol gradient-corrected functionals.
  Spin treatment: No spin polarisation.
  Scalar relativistic treatment of kinetic energy: on-site free-atom approximation to ZORA.
  Charge =   0.000000E+00: Neutral system requested explicitly.
  Occupation type: Gaussian broadening, width =   0.100000E-01 eV.
  Using pulay charge density mixing.
  Pulay mixing - number of memorized iterations:   10
  Charge density mixing - mixing parameter:     0.5000
  Convergence accuracy of self-consistent charge density:  0.1000E-04
  Convergence accuracy of sum of eigenvalues:  0.1000E-02
  Convergence accuracy of total energy:  0.1000E-05
  Convergence accuracy of forces:  0.1000E-03
  Maximum number of s.-c. iterations  :  1500
 
  Reading configuration options for species Al                  .
  | Found nuclear charge :  13.0000
  | Found atomic mass :    26.9815386000000      amu
  | Found l_max for Hartree potential  :   4
  | Found cutoff potl. onset [A], width [A], scale factor :    3.50000    1.50000    1.00000
  | Threshold for basis-dependent cutoff potential is   0.100000E-03
  | Found data for basic radial integration grid :    41 points, outermost radius =    5.000 A
  | Found multiplier for basic radial grid :   1
  | Found angular grid specification: user-specified.
  | Specified grid contains     4 separate shells.
  | Check grid settings after all constraints further below.
  | Found free-atom valence shell :  3 s   2.000
  | Found free-atom valence shell :  3 p   1.000
  | Found free-ion valence shell :  3 s   1.000
  | Found free-ion valence shell :  2 p   6.000
  | Found ionic basis function :  3 d , default cutoff radius.
  | Found ionic basis function :  3 p , default cutoff radius.
  | Found ionic basis function :  3 s , default cutoff radius.
  Species Al                  : Missing cutoff potential type.
  Defaulting to exp(1/x)/(1-x)^2 type cutoff potential.
  Species Al: No 'logarithmic' tag. Using default grid for free atom:
  | Default logarithmic grid data [bohr] : 0.1000E-03 0.1000E+03 0.1012E+01
  | Will include ionic basis functions of  2.0-fold positive Al                   ion.
  Species Al: On-site basis accuracy parameter (for Gram-Schmidt orthonormalisation) not specified.
  Using default value basis_acc =  0.1000000E-03.
  Species Al                  : Using default innermost maximum threshold i_radial=  2 for radial functions.
  Species Al                  : Default cutoff onset for free atom density etc. : 0.35000000E+01 AA.
  Species Al                  : Basic radial grid will be enhanced according to radial_multiplier =   1, to contain    41 grid points.
 
  Reading configuration options for species F                   .
  | Found nuclear charge :   9.0000
  | Found atomic mass :    18.9984032000000      amu
  | Found l_max for Hartree potential  :   4
  | Found cutoff potl. onset [A], width [A], scale factor :    3.50000    1.50000    1.00000
  | Threshold for basis-dependent cutoff potential is   0.100000E-03
  | Found data for basic radial integration grid :    37 points, outermost radius =    5.000 A
  | Found multiplier for basic radial grid :   1
  | Found angular grid specification: user-specified.
  | Specified grid contains     4 separate shells.
  | Check grid settings after all constraints further below.
  | Found free-atom valence shell :  2 s   2.000
  | Found free-atom valence shell :  2 p   5.000
  | Found free-ion valence shell :  2 s   1.000
  | Found free-ion valence shell :  2 p   4.000
  | Found hydrogenic basis function :  2 p   1.700
  | Found hydrogenic basis function :  3 d   7.400
  | Found hydrogenic basis function :  3 s   6.800
  Species F                   : Missing cutoff potential type.
  Defaulting to exp(1/x)/(1-x)^2 type cutoff potential.
  Species F : No 'logarithmic' tag. Using default grid for free atom:
  | Default logarithmic grid data [bohr] : 0.1000E-03 0.1000E+03 0.1012E+01
  Species F : On-site basis accuracy parameter (for Gram-Schmidt orthonormalisation) not specified.
  Using default value basis_acc =  0.1000000E-03.
  Species F                   : Using default innermost maximum threshold i_radial=  2 for radial functions.
  Species F                   : Default cutoff onset for free atom density etc. : 0.35000000E+01 AA.
  Species F                   : Basic radial grid will be enhanced according to radial_multiplier =   1, to contain    37 grid points.
 
  Finished reading input file 'control.in'.
 
------------------------------------------------------------


------------------------------------------------------------
          Reading geometry description geometry.in.
------------------------------------------------------------
  | The smallest distance between any two atoms is         1.98613106 AA.
  | The first atom of this pair is atom number                      1 .
  | The second atom of this pair is atom number                    11 .
  Input structure read successfully.
  The structure contains       12 atoms,  and a total of        120.000 electrons.

  Input geometry:
  | No unit cell requested.
  | Atomic structure:
  |       Atom                x [A]            y [A]            z [A]
  |    1: Species Al            0.31791319       -0.41379008        1.94175172
  |    2: Species Al            2.62201336       -1.86731985       -0.59887849
  |    3: Species Al           -1.12839098       -1.91548474       -1.14524414
  |    4: Species F             3.65968171       -0.24516279       -1.21751120
  |    5: Species F            -1.98692185       -0.31768089       -2.04011862
  |    6: Species F             2.77847839       -3.87031168       -0.47811359
  |    7: Species F            -1.26238257       -3.92220718       -1.06679367
  |    8: Species F             2.03484100       -1.47375933        1.38707740
  |    9: Species F             0.86272516       -1.41350988       -1.70985666
  |   10: Species F             0.06718475       -1.29779444        3.74075428
  |   11: Species F             0.41819058        1.38012837        1.09527807
  |   12: Species F            -1.14222487       -1.51456132        0.92423681

 
  Finished reading input file 'control.in'.
 

------------------------------------------------------------
          Reading geometry description geometry.in.
------------------------------------------------------------
 
  Consistency checks for stacksize environment parameter are next.
 
  | Maximum stacksize for task 0: unlimited
  | Maximum stacksize for task 1: unlimited
  | Maximum stacksize for task 2: unlimited
  | Maximum stacksize for task 3: unlimited
  | Maximum stacksize for task 4: unlimited
  | Maximum stacksize for task 5: unlimited
  | Maximum stacksize for task 6: unlimited
  | Maximum stacksize for task 7: unlimited
  | Maximum stacksize for task 8: unlimited
  | Maximum stacksize for task 9: unlimited
  | Maximum stacksize for task 10: unlimited
  | Maximum stacksize for task 11: unlimited
  | Maximum stacksize for task 12: unlimited
  | Maximum stacksize for task 13: unlimited
  | Maximum stacksize for task 14: unlimited
  | Maximum stacksize for task 15: unlimited
  | Maximum stacksize for task 16: unlimited
  | Maximum stacksize for task 17: unlimited
  | Maximum stacksize for task 18: unlimited
  | Maximum stacksize for task 19: unlimited
  | Maximum stacksize for task 20: unlimited
  | Maximum stacksize for task 21: unlimited
  | Maximum stacksize for task 22: unlimited
  | Maximum stacksize for task 23: unlimited
  | Current stacksize for task 0: unlimited
  | Current stacksize for task 1: unlimited
  | Current stacksize for task 2: unlimited
  | Current stacksize for task 3: unlimited
  | Current stacksize for task 4: unlimited
  | Current stacksize for task 5: unlimited
  | Current stacksize for task 6: unlimited
  | Current stacksize for task 7: unlimited
  | Current stacksize for task 8: unlimited
  | Current stacksize for task 9: unlimited
  | Current stacksize for task 10: unlimited
  | Current stacksize for task 11: unlimited
  | Current stacksize for task 12: unlimited
  | Current stacksize for task 13: unlimited
  | Current stacksize for task 14: unlimited
  | Current stacksize for task 15: unlimited
  | Current stacksize for task 16: unlimited
  | Current stacksize for task 17: unlimited
  | Current stacksize for task 18: unlimited
  | Current stacksize for task 19: unlimited
  | Current stacksize for task 20: unlimited
  | Current stacksize for task 21: unlimited
  | Current stacksize for task 22: unlimited
  | Current stacksize for task 23: unlimited
 
  Consistency checks for the contents of control.in are next.
 
  MPI_IN_PLACE appears to work with this MPI implementation.
  | Keeping use_mpi_in_place .true. (see manual).
  Target number of points in a grid batch is not set. Defaulting to  100
  Method for grid partitioning is not set. Defaulting to parallel hash+maxmin partitioning.
  Batch size limit is not set. Defaulting to    200
  By default, will store active basis functions for each batch.
  If in need of memory, prune_basis_once .false. can be used to disable this option.
  communication_type for Hartree potential was not specified.
  Defaulting to calc_hartree .
  Pulay mixer: Number of initial linear mixing iterations not set.
  Defaulting to    0 iterations.
  Work space size for distributed Hartree potential not set.
  Defaulting to   0.200000E+03 MB.
  Algorithm-dependent basis array size parameters:
  | n_max_pulay                         :       10
  Presetting      1001 iterations before the initial mixing cycle
  is restarted anyway using the sc_init_iter criterion / keyword.
  Presetting a factor      1.000 between actual scf density residual
  and density convergence criterion sc_accuracy_rho below which sc_init_iter
  takes no effect.
  Geometry relaxation not requested: no relaxation will be performed.
  Forces evaluation will include force correction term due to incomplete self-consistency (default).
  Handling of forces: Unphysical translation and rotation will be removed from forces.
  No accuracy limit for integral partition fn. given. Defaulting to  0.1000E-14.
  No threshold value for u(r) in integrations given. Defaulting to  0.1000E-05.
  No accuracy for occupation numbers given. Defaulting to  0.1000E-12.
  No threshold value for occupation numbers given. Defaulting to  0.0000E+00.
  No accuracy for fermi level given. Defaulting to  0.1000E-19.
  Maximum # of iterations to find E_F not set. Defaulting to  200.
  Preferred method for the eigenvalue solver ('KS_method') not specified in 'control.in'.
  Calling BLACS routine to test compilation state
  Since ScaLAPACK support is enabled, defaulting to ELPA (via ELSI).
  Will not use alltoall communication since running on < 1024 CPUs.
  Threshold for basis singularities not set.
  Default threshold for basis singularities:  0.1000E-04
  partition_type (choice of integration weights) for integrals was not specified.
  | Using a version of the partition function of Stratmann and coworkers ('stratmann_sparse').
  | At each grid point, the set of atoms used to build the partition table is smoothly restricted to
  | only those atoms whose free-atom density would be non-zero at that grid point.
  Partitioning for Hartree potential was not defined. Using partition_type for integrals.
  | Adjusted default value of keyword multip_moments_threshold to:       0.10000000E-11
  | This value may affect high angular momentum components of the Hartree potential in periodic systems.
  No q(lm)/r^(l+1) cutoff set for long-range Hartree potential.
  | Using default value of  0.100000E-09 .
  | Verify using the multipole_threshold keyword.
  Defaulting to new monopole extrapolation.
  Density update method: automatic selection selected.
  Charge integration errors on the 3D integration grid will be compensated
  by explicit normalization and distribution of residual charges.
  Use the "compensate_multipole_errors" flag to change this behaviour.
  Set 'collect_eigenvectors' to be '.true.' for use_density_matrix .false.
 
  Consistency checks for the contents of geometry.in are next.
 
  Number of empty states per atom not set in control.in - providing a guess from actual geometry.
  | Total number of empty states used during s.c.f. cycle:       36
  If you use a very high smearing, use empty_states (per atom!) in control.in to increase this value.

  Structure-dependent array size parameters: 
  | Maximum number of distinct radial functions  :       14
  | Maximum number of basis functions            :      180
  | Number of Kohn-Sham states (occupied + empty):       96
------------------------------------------------------------

------------------------------------------------------------
          Preparing all fixed parts of the calculation.
------------------------------------------------------------
  Determining machine precision:
    2.225073858507201E-308
  Setting up grids for atomic and cluster calculations.

  Creating wave function, potential, and density for free atoms.

  Species: Al

  List of occupied orbitals and eigenvalues:
    n    l              occ      energy [Ha]    energy [eV]
    1    0           2.0000       -55.621123     -1513.5278
    2    0           2.0000        -3.957030      -107.6763
    3    0           2.0000        -0.272233        -7.4078
    2    1           6.0000        -2.540949       -69.1427
    3    1           1.0000        -0.083300        -2.2667


  Species: F

  List of occupied orbitals and eigenvalues:
    n    l              occ      energy [Ha]    energy [eV]
    1    0           2.0000       -24.399611      -663.9472
    2    0           2.0000        -1.098702       -29.8972
    2    1           5.0000        -0.408210       -11.1080


  Adding cutoff potential to free-atom effective potential.
  Creating fixed part of basis set: Ionic, confined, hydrogenic.
 
  Al                   ion:

  List of free ionic orbitals and eigenvalues:
    n    l      energy [Ha]    energy [eV]
    1    0       -56.418846     -1535.2349
    2    0        -4.732717      -128.7838
    3    0        -0.872690       -23.7471
    2    1        -3.317230       -90.2664


  List of ionic basis orbitals and eigenvalues:
    n    l      energy [Ha]    energy [eV]    outer radius [A]
    3    2        -0.346815        -9.4373       4.594041
    3    1        -0.631870       -17.1940       4.538221
    3    0        -0.872657       -23.7462       4.538221

 
  F                    hydrogenic:
 
  List of hydrogenic basis orbitals: 
    n    l      effective z      eigenvalue [eV]  inner max. [A]     outer max. [A]     outer radius [A]   
    2    1         1.700000        -9.7616           1.243167           1.243167           4.598524
    3    2         7.400000       -82.7828           0.642437           0.642437           3.305741
    3    0         6.800000       -69.9026           0.057798           1.022307           3.781556
 
  Creating atomic-like basis functions for current effective potential.

  Species Al                  :

  List of atomic basis orbitals and eigenvalues:
    n    l      energy [Ha]    energy [eV]    outer radius [A]
    1    0       -55.621123     -1513.5278       0.850197
    2    0        -3.957030      -107.6763       3.144911
    3    0        -0.272233        -7.4078       4.594041
    2    1        -2.540949       -69.1427       3.731966
    3    1        -0.083300        -2.2667       4.594041


  Species F                   :

  List of atomic basis orbitals and eigenvalues:
    n    l      energy [Ha]    energy [eV]    outer radius [A]
    1    0       -24.399611      -663.9472       1.258458
    2    0        -1.098702       -29.8972       4.325857
    2    1        -0.408210       -11.1080       4.487453

  Assembling full basis from fixed parts.
  | Species Al :   atomic orbital   1 s accepted.
  | Species Al :   atomic orbital   2 s accepted.
  | Species Al :    ionic orbital   3 s accepted.
  | Species Al :   atomic orbital   3 s accepted.
  | Species Al :   atomic orbital   2 p accepted.
  | Species Al :    ionic orbital   3 p accepted.
  | Species Al :   atomic orbital   3 p accepted.
  | Species Al :    ionic orbital   3 d accepted.
  | Species F :   atomic orbital   1 s accepted.
  | Species F :    hydro orbital   3 s accepted.
  | Species F :   atomic orbital   2 s accepted.
  | Species F :   atomic orbital   2 p accepted.
  | Species F :    hydro orbital   2 p accepted.
  | Species F :    hydro orbital   3 d accepted.
 
  Basis size parameters after reduction:
  | Total number of radial functions:       14
  | Total number of basis functions :      180
 
  Per-task memory consumption for arrays in subroutine allocate_ext:
  |           4.807768MB.
  Testing on-site integration grid accuracy.
  |  Species  Function  <phi|h_atom|phi> (log., in eV)  <phi|h_atom|phi> (rad., in eV)
           1        1              -1513.5277717935              -1513.5271881332
           1        2               -107.6762691836               -107.6762662489
           1        3                 -6.9467474784                 -6.9471269649
           1        4                  5.5771951849                  5.4862107220 ***
           1        5                -69.1427313144                -69.1427312731
           1        6                 -1.5197375330                 -1.5230432022
           1        7                  6.8210948310                  6.5529872240 ***
           1        8                  4.3216540965                  4.2851170187 ***
           2        9               -663.9471986398               -663.9470363334
           2       10                 16.8514011578                 16.8512525338
           2       11                -28.4490593856                -28.4490661472
           2       12                -11.1080115307                -11.1080620173
           2       13                  7.1940182175                  7.1685154137
           2       14                 44.8544281765                 44.8543763625
 * Note: Onsite integrals marked "***" above are less accurate than
 * onsite_accuracy_threshold =    0.03000 eV. Usually, this is harmless.
 * When in doubt, tighten the "radial" and/or "radial_multiplier" flags to check.

  Preparing densities etc. for the partition functions (integrals / Hartree potential).

  Preparations completed.
  max(cpu_time)          :      0.183 s.
  Wall clock time (cpu1) :      0.185 s.
------------------------------------------------------------

------------------------------------------------------------
          Begin self-consistency loop: Initialization.

          Date     :  20220517, Time     :  112415.535
------------------------------------------------------------

  Initializing index lists of integration centers etc. from given atomic structure:
  | Number of centers in hartree potential         :        12
  | Number of centers in hartree multipole         :        12
  | Number of centers in electron density summation:        12
  | Number of centers in basis integrals           :        12
  | Number of centers in integrals                 :        12
  | Number of centers in hamiltonian               :        12
  * Using 24 tasks for Scalapack Eigenvalue solver.
  Detailed listing of tasks and assigned k-points:
  (for non-periodic systems, the "k-point" denotes an internal label only)
   Task     0 k-point     1 on node-k98e-006
   Task     1 k-point     1 on node-k98e-006
   Task     2 k-point     1 on node-k98e-006
   Task     3 k-point     1 on node-k98e-006
   Task     4 k-point     1 on node-k98e-006
   Task     5 k-point     1 on node-k98e-006
   Task     6 k-point     1 on node-k98e-006
   Task     7 k-point     1 on node-k98e-006
   Task     8 k-point     1 on node-k98e-006
   Task     9 k-point     1 on node-k98e-006
   Task    10 k-point     1 on node-k98e-006
   Task    11 k-point     1 on node-k98e-006
   Task    12 k-point     1 on node-k98e-006
   Task    13 k-point     1 on node-k98e-006
   Task    14 k-point     1 on node-k98e-006
   Task    15 k-point     1 on node-k98e-006
   Task    16 k-point     1 on node-k98e-006
   Task    17 k-point     1 on node-k98e-006
   Task    18 k-point     1 on node-k98e-006
   Task    19 k-point     1 on node-k98e-006
   Task    20 k-point     1 on node-k98e-006
   Task    21 k-point     1 on node-k98e-006
   Task    22 k-point     1 on node-k98e-006
   Task    23 k-point     1 on node-k98e-006
  Tasks:    24 split into      6 X      4 BLACS grid
  Calculating block size based on n_basis =          180  max_nprow =            6  max_npcol =            4
  ScaLAPACK block size set to:           16
  Allocating        0.012 MB for ovlp
  Allocating        0.012 MB for ham
  Allocating        0.012 MB for eigenvec
  Required Scalapack workspace - INTEGER:            1  REAL:             1
  Partitioning the integration grid into batches with parallel hashing+maxmin method.
  | Number of batches:      950
  | Maximal batch size:     200
  | Minimal batch size:      14
  | Average batch size:      96.758
  | Standard deviation of batch sizes:      34.090

  Integration load balanced across    24 MPI tasks.
  Work distribution over tasks is as follows:
  Task     0 has       3843 integration points.
  Task     1 has       3883 integration points.
  Task     2 has       3776 integration points.
  Task     3 has       3747 integration points.
  Task     4 has       3782 integration points.
  Task     5 has       3868 integration points.
  Task     6 has       3838 integration points.
  Task     7 has       3878 integration points.
  Task     8 has       3754 integration points.
  Task     9 has       3858 integration points.
  Task    10 has       3840 integration points.
  Task    11 has       3866 integration points.
  Task    12 has       3810 integration points.
  Task    13 has       3890 integration points.
  Task    14 has       3761 integration points.
  Task    15 has       3874 integration points.
  Task    16 has       3846 integration points.
  Task    17 has       3882 integration points.
  Task    18 has       3754 integration points.
  Task    19 has       3747 integration points.
  Task    20 has       3845 integration points.
  Task    21 has       3863 integration points.
  Task    22 has       3862 integration points.
  Task    23 has       3853 integration points.
  Initializing partition tables, free-atom densities, potentials, etc. across the integration grid (initialize_grid_storage).
  | initialize_grid_storage: Actual outermost partition radius vs. multipole_radius_free
  | (-- VB: in principle, multipole_radius_free should be larger, hence this output)
  | Species        1: Confinement radius =              4.999999999999999 AA, multipole_radius_free =              5.004487022111096 AA.
  | Species        1: outer_partition_radius set to              5.004487022111096 AA .
  | Species        2: Confinement radius =              4.999999999999999 AA, multipole_radius_free =              5.009370088163274 AA.
  | Species        2: outer_partition_radius set to              5.009370088163274 AA .
  | The sparse table of interatomic distances needs          1.64 kbyte instead of         1.15 kbyte of memory.
  | Using the partition_type stratmann_smoother will reduce your memory usage.
  | Net number of integration points:    91920
  | of which are non-zero points    :    86946
  Renormalizing the initial density to the exact electron count on the 3D integration grid.
  | Initial density: Formal number of electrons (from input files) :     120.0000000000
  | Integrated number of electrons on 3D grid     :     119.9998217264
  | Charge integration error                      :      -0.0001782736
  | Normalization factor for density and gradient :       1.0000014856
  Renormalizing the free-atom superposition density to the exact electron count on the 3D integration grid.
  | Formal number of electrons (from input files) :     120.0000000000
  | Integrated number of electrons on 3D grid     :     119.9998217264
  | Charge integration error                      :      -0.0001782736
  | Normalization factor for density and gradient :       1.0000014856
  Obtaining max. number of non-zero basis functions in each batch (get_n_compute_maxes).
  | Maximal number of non-zero basis functions:      159 in task     0
  | Maximal number of non-zero basis functions:      163 in task     1
  | Maximal number of non-zero basis functions:      163 in task     2
  | Maximal number of non-zero basis functions:      164 in task     3
  | Maximal number of non-zero basis functions:      164 in task     4
  | Maximal number of non-zero basis functions:      160 in task     5
  | Maximal number of non-zero basis functions:      164 in task     6
  | Maximal number of non-zero basis functions:      163 in task     7
  | Maximal number of non-zero basis functions:      170 in task     8
  | Maximal number of non-zero basis functions:      160 in task     9
  | Maximal number of non-zero basis functions:      170 in task    10
  | Maximal number of non-zero basis functions:      158 in task    11
  | Maximal number of non-zero basis functions:      151 in task    12
  | Maximal number of non-zero basis functions:      159 in task    13
  | Maximal number of non-zero basis functions:      169 in task    14
  | Maximal number of non-zero basis functions:      162 in task    15
  | Maximal number of non-zero basis functions:      160 in task    16
  | Maximal number of non-zero basis functions:      163 in task    17
  | Maximal number of non-zero basis functions:      164 in task    18
  | Maximal number of non-zero basis functions:      170 in task    19
  | Maximal number of non-zero basis functions:      158 in task    20
  | Maximal number of non-zero basis functions:      157 in task    21
  | Maximal number of non-zero basis functions:      163 in task    22
  | Maximal number of non-zero basis functions:      156 in task    23
  Selecting the method for density update.
  Loop over occupied states selected for charge density update.
  Allocating        0.132 MB for KS_eigenvector
  Integrating Hamiltonian matrix: batch-based integration.
  Time summed over all CPUs for integration: real work        0.661 s, elapsed        0.712 s
  Integrating overlap matrix.
  Time summed over all CPUs for integration: real work        0.252 s, elapsed        0.280 s
  Deallocating overlap matrix.

  Updating Kohn-Sham eigenvalues and eigenvectors using ELSI and the ELPA eigensolver.
  Overlap matrix is not singular
  | Lowest and highest eigenvalues :  0.9932E-02,  0.4460E+01
  Finished singularity check of overlap matrix
  | Time :     0.004 s
  Starting ELPA eigensolver
  Finished Cholesky decomposition
  | Time :     0.001 s
  Finished transformation to standard eigenproblem
  | Time :     0.001 s
  Finished solving standard eigenproblem
  | Time :     0.004 s
  Finished back-transformation of eigenvectors
  | Time :     0.000 s

  Obtaining occupation numbers and chemical potential using ELSI.
  | Chemical potential (Fermi level):    -9.18781881 eV
  Writing Kohn-Sham eigenvalues.

  State    Occupation    Eigenvalue [Ha]    Eigenvalue [eV]
      1       2.00000         -55.479753        -1509.68090
      2       2.00000         -55.479583        -1509.67627
      3       2.00000         -55.479583        -1509.67626
      4       2.00000         -24.334297         -662.16992
      5       2.00000         -24.334297         -662.16992
      6       2.00000         -24.331425         -662.09176
      7       2.00000         -24.324856         -661.91301
      8       2.00000         -24.323034         -661.86342
      9       2.00000         -24.323034         -661.86342
     10       2.00000         -24.322558         -661.85047
     11       2.00000         -24.322394         -661.84600
     12       2.00000         -24.322394         -661.84600
     13       2.00000          -3.942733         -107.28722
     14       2.00000          -3.942457         -107.27972
     15       2.00000          -3.942456         -107.27970
     16       2.00000          -2.534801          -68.97543
     17       2.00000          -2.534480          -68.96671
     18       2.00000          -2.534480          -68.96671
     19       2.00000          -2.534077          -68.95575
     20       2.00000          -2.534074          -68.95566
     21       2.00000          -2.533828          -68.94896
     22       2.00000          -2.533827          -68.94894
     23       2.00000          -2.533773          -68.94747
     24       2.00000          -2.533766          -68.94729
     25       2.00000          -1.142957          -31.10144
     26       2.00000          -1.140807          -31.04294
     27       2.00000          -1.137406          -30.95040
     28       2.00000          -1.126193          -30.64528
     29       2.00000          -1.123518          -30.57248
     30       2.00000          -1.123495          -30.57185
     31       2.00000          -1.122643          -30.54868
     32       2.00000          -1.122454          -30.54353
     33       2.00000          -1.122303          -30.53943
     34       2.00000          -0.509480          -13.86365
     35       2.00000          -0.505577          -13.75745
     36       2.00000          -0.485153          -13.20169
     37       2.00000          -0.482972          -13.14235
     38       2.00000          -0.467788          -12.72916
     39       2.00000          -0.464146          -12.63006
     40       2.00000          -0.462744          -12.59191
     41       2.00000          -0.461661          -12.56242
     42       2.00000          -0.458937          -12.48830
     43       2.00000          -0.457919          -12.46061
     44       2.00000          -0.453929          -12.35205
     45       2.00000          -0.450197          -12.25048
     46       2.00000          -0.447911          -12.18829
     47       2.00000          -0.444410          -12.09302
     48       2.00000          -0.443620          -12.07151
     49       2.00000          -0.434082          -11.81196
     50       2.00000          -0.433658          -11.80044
     51       2.00000          -0.433024          -11.78319
     52       2.00000          -0.431712          -11.74748
     53       2.00000          -0.431571          -11.74364
     54       2.00000          -0.430804          -11.72278
     55       2.00000          -0.430488          -11.71417
     56       2.00000          -0.430088          -11.70329
     57       2.00000          -0.429294          -11.68168
     58       2.00000          -0.429014          -11.67406
     59       2.00000          -0.428958          -11.67254
     60       2.00000          -0.428789          -11.66795
     61       0.00000          -0.184426           -5.01848
     62       0.00000          -0.149044           -4.05569
     63       0.00000          -0.145833           -3.96833
     64       0.00000          -0.057558           -1.56623
     65       0.00000          -0.036730           -0.99948
     66       0.00000          -0.036662           -0.99764
     67       0.00000          -0.013477           -0.36672
     68       0.00000           0.000603            0.01641
     69       0.00000           0.009208            0.25056
     70       0.00000           0.014887            0.40510
     71       0.00000           0.041193            1.12091
     72       0.00000           0.042461            1.15544
     73       0.00000           0.130739            3.55759
     74       0.00000           0.147494            4.01353
     75       0.00000           0.164124            4.46603
     76       0.00000           0.168540            4.58621
     77       0.00000           0.170868            4.64955
     78       0.00000           0.181620            4.94213
     79       0.00000           0.184554            5.02196
     80       0.00000           0.189349            5.15244
     81       0.00000           0.191580            5.21316
     82       0.00000           0.201918            5.49446
     83       0.00000           0.202172            5.50138
     84       0.00000           0.208331            5.66898
     85       0.00000           0.219003            5.95937
     86       0.00000           0.238415            6.48760
     87       0.00000           0.255400            6.94978
     88       0.00000           0.255859            6.96228
     89       0.00000           0.261554            7.11725
     90       0.00000           0.264178            7.18864
     91       0.00000           0.271058            7.37586
     92       0.00000           0.275962            7.50930
     93       0.00000           0.282355            7.68326
     94       0.00000           0.294951            8.02603
     95       0.00000           0.312603            8.50636
     96       0.00000           0.316213            8.60459

  Highest occupied state (VBM) at    -11.66795069 eV
  | Occupation number:      2.00000000

  Lowest unoccupied state (CBM) at    -5.01848197 eV
  | Occupation number:      0.00000000

  Overall HOMO-LUMO gap:      6.64946872 eV.
  Calculating total energy contributions from superposition of free atom densities.

  Total energy components:
  | Sum of eigenvalues            :        -884.68332519 Ha      -24073.45812247 eV
  | XC energy correction          :        -143.93165828 Ha       -3916.57969515 eV
  | XC potential correction       :         187.38422174 Ha        5098.98410710 eV
  | Free-atom electrostatic energy:        -783.96798513 Ha      -21332.85427902 eV
  | Hartree energy correction     :           0.00000000 Ha           0.00000000 eV
  | Entropy correction            :           0.00000000 Ha           0.00000000 eV
  | ---------------------------
  | Total energy                  :       -1625.19874685 Ha      -44223.90798954 eV
  | Total energy, T -> 0          :       -1625.19874685 Ha      -44223.90798954 eV  <-- do not rely on this value for anything but (periodic) metals
  | Electronic free energy        :       -1625.19874685 Ha      -44223.90798954 eV

  Derived energy quantities:
  | Kinetic energy                :        1626.75425775 Ha       44266.23559469 eV
  | Electrostatic energy          :       -3108.02134633 Ha      -84573.56388908 eV
  | Energy correction for multipole
  | error in Hartree potential    :           0.00000000 Ha           0.00000000 eV
  | Sum of eigenvalues per atom                           :       -2006.12151021 eV
  | Total energy (T->0) per atom                          :       -3685.32566579 eV  <-- do not rely on this value for anything but (periodic) metals
  | Electronic free energy per atom                       :       -3685.32566579 eV
  Initialize hartree_potential_storage
  Max. number of atoms included in rho_multipole:           12

  End scf initialization - timings             :  max(cpu_time)    wall_clock(cpu1)
  | Time for scf. initialization                :        0.159 s           0.159 s
  | Boundary condition initialization           :        0.000 s           0.001 s
  | Integration                                 :        0.045 s           0.046 s
  | Solution of K.-S. eqns.                     :        0.013 s           0.013 s
  | Grid partitioning                           :        0.057 s           0.058 s
  | Preloading free-atom quantities on grid     :        0.026 s           0.026 s
  | Free-atom superposition energy              :        0.005 s           0.005 s
  | Total energy evaluation                     :        0.000 s           0.000 s

  Partial memory accounting:
  | Current value for overall tracked memory usage:
  |   Minimum:        0.273 MB (on task 23)
  |   Maximum:        0.292 MB (on task  0)
  |   Average:        0.287 MB
  | Peak value for overall tracked memory usage:
  |   Minimum:        1.285 MB (on task 12 after allocating wave)
  |   Maximum:        1.419 MB (on task  8 after allocating wave)
  |   Average:        1.358 MB
  | Largest tracked array allocation so far:
  |   Minimum:        0.230 MB (H_times_psi on task 12)
  |   Maximum:        0.458 MB (all_coords on task 10)
  |   Average:        0.271 MB
  Note:  These values currently only include a subset of arrays which are explicitly tracked.
  The "true" memory usage will be greater.
------------------------------------------------------------
  Evaluating new KS density.
  Integration grid: deviation in total charge (<rho> - N_e) =   0.000000E+00

  Time for density update prior                :  max(cpu_time)    wall_clock(cpu1)
  | self-consistency iterative process          :        0.027 s           0.027 s

------------------------------------------------------------
          Begin self-consistency iteration #    1

  Date     :  20220517, Time     :  112415.721
------------------------------------------------------------
  Pulay mixing of updated and previous charge densities.
  Renormalizing the density to the exact electron count on the 3D integration grid.
  | Formal number of electrons (from input files) :     120.0000000000
  | Integrated number of electrons on 3D grid     :     120.0000000000
  | Charge integration error                      :       0.0000000000
  | Normalization factor for density and gradient :       1.0000000000

  Evaluating partitioned Hartree potential by multipole expansion.
  | Original multipole sum: apparent total charge =   0.347566E-13
  | Sum of charges compensated after spline to logarithmic grids =   0.234497E-03
  | Analytical far-field extrapolation by fixed multipoles:
  | Hartree multipole sum: apparent total charge =   0.322476E-13
  Summing up the Hartree potential.
  Time summed over all CPUs for potential: real work        0.384 s, elapsed        0.397 s
  | RMS charge density error from multipole expansion :   0.877448E-02

  Integrating Hamiltonian matrix: batch-based integration.
  Time summed over all CPUs for integration: real work        0.612 s, elapsed        0.656 s

  Updating Kohn-Sham eigenvalues and eigenvectors using ELSI and the ELPA eigensolver.
  Starting ELPA eigensolver
  Finished transformation to standard eigenproblem
  | Time :     0.000 s
  Finished solving standard eigenproblem
  | Time :     0.003 s
  Finished back-transformation of eigenvectors
  | Time :     0.000 s

  Obtaining occupation numbers and chemical potential using ELSI.
  | Chemical potential (Fermi level):    -6.23920631 eV
  Writing Kohn-Sham eigenvalues.

  State    Occupation    Eigenvalue [Ha]    Eigenvalue [eV]
      1       2.00000         -55.707990        -1515.89155
      2       2.00000         -55.707987        -1515.89145
      3       2.00000         -55.703568        -1515.77122
      4       2.00000         -24.200978         -658.54211
      5       2.00000         -24.200976         -658.54207
      6       2.00000         -24.193093         -658.32755
      7       2.00000         -24.061405         -654.74415
      8       2.00000         -24.047731         -654.37205
      9       2.00000         -24.047720         -654.37176
     10       2.00000         -24.041489         -654.20220
     11       2.00000         -24.041479         -654.20194
     12       2.00000         -24.035322         -654.03438
     13       2.00000          -4.136039         -112.54736
     14       2.00000          -4.136034         -112.54722
     15       2.00000          -4.132323         -112.44622
     16       2.00000          -2.730086          -74.28943
     17       2.00000          -2.730080          -74.28926
     18       2.00000          -2.729649          -74.27754
     19       2.00000          -2.729644          -74.27739
     20       2.00000          -2.727039          -74.20649
     21       2.00000          -2.727033          -74.20635
     22       2.00000          -2.726295          -74.18625
     23       2.00000          -2.725951          -74.17689
     24       2.00000          -2.723319          -74.10528
     25       2.00000          -1.111122          -30.23516
     26       2.00000          -1.108142          -30.15408
     27       2.00000          -1.101368          -29.96974
     28       2.00000          -1.000745          -27.23167
     29       2.00000          -0.988016          -26.88527
     30       2.00000          -0.987923          -26.88275
     31       2.00000          -0.982087          -26.72394
     32       2.00000          -0.981974          -26.72088
     33       2.00000          -0.976856          -26.58160
     34       2.00000          -0.505391          -13.75239
     35       2.00000          -0.500059          -13.60731
     36       2.00000          -0.469592          -12.77826
     37       2.00000          -0.466090          -12.68297
     38       2.00000          -0.425975          -11.59136
     39       2.00000          -0.424641          -11.55506
     40       2.00000          -0.418118          -11.37757
     41       2.00000          -0.411359          -11.19365
     42       2.00000          -0.409410          -11.14060
     43       2.00000          -0.387069          -10.53269
     44       2.00000          -0.376669          -10.24967
     45       2.00000          -0.373007          -10.15004
     46       2.00000          -0.345317           -9.39655
     47       2.00000          -0.344628           -9.37780
     48       2.00000          -0.343728           -9.35331
     49       2.00000          -0.317475           -8.63893
     50       2.00000          -0.316337           -8.60796
     51       2.00000          -0.309255           -8.41525
     52       2.00000          -0.305295           -8.30751
     53       2.00000          -0.305135           -8.30314
     54       2.00000          -0.303033           -8.24594
     55       2.00000          -0.298094           -8.11155
     56       2.00000          -0.297642           -8.09925
     57       2.00000          -0.297479           -8.09482
     58       2.00000          -0.296356           -8.06427
     59       2.00000          -0.293103           -7.97573
     60       2.00000          -0.292934           -7.97114
     61       0.00000          -0.200277           -5.44981
     62       0.00000          -0.166299           -4.52522
     63       0.00000          -0.163339           -4.44469
     64       0.00000          -0.098678           -2.68516
     65       0.00000          -0.078997           -2.14962
     66       0.00000          -0.078619           -2.13934
     67       0.00000          -0.042786           -1.16426
     68       0.00000          -0.042148           -1.14691
     69       0.00000          -0.039687           -1.07993
     70       0.00000          -0.024575           -0.66873
     71       0.00000           0.016312            0.44388
     72       0.00000           0.017224            0.46868
     73       0.00000           0.093577            2.54636
     74       0.00000           0.125325            3.41026
     75       0.00000           0.142027            3.86474
     76       0.00000           0.142793            3.88560
     77       0.00000           0.151343            4.11825
     78       0.00000           0.157566            4.28759
     79       0.00000           0.165283            4.49758
     80       0.00000           0.172912            4.70518
     81       0.00000           0.173500            4.72117
     82       0.00000           0.180840            4.92092
     83       0.00000           0.187512            5.10246
     84       0.00000           0.197743            5.38085
     85       0.00000           0.201318            5.47814
     86       0.00000           0.209361            5.69701
     87       0.00000           0.217027            5.90560
     88       0.00000           0.222425            6.05249
     89       0.00000           0.229886            6.25551
     90       0.00000           0.236029            6.42269
     91       0.00000           0.244278            6.64714
     92       0.00000           0.253811            6.90654
     93       0.00000           0.261412            7.11338
     94       0.00000           0.269729            7.33969
     95       0.00000           0.308087            8.38346
     96       0.00000           0.317841            8.64888

  Highest occupied state (VBM) at     -7.97113943 eV
  | Occupation number:      2.00000000

  Lowest unoccupied state (CBM) at    -5.44980702 eV
  | Occupation number:      0.00000000

  Overall HOMO-LUMO gap:      2.52133241 eV.

  Total energy components:
  | Sum of eigenvalues            :        -880.02930808 Ha      -23946.81587351 eV
  | XC energy correction          :        -145.35920658 Ha       -3955.42526082 eV
  | XC potential correction       :         189.26184216 Ha        5150.07675826 eV
  | Free-atom electrostatic energy:        -783.96798513 Ha      -21332.85427902 eV
  | Hartree energy correction     :          -4.87206099 Ha        -132.57552504 eV
  | Entropy correction            :           0.00000000 Ha           0.00000000 eV
  | ---------------------------
  | Total energy                  :       -1624.96671862 Ha      -44217.59418013 eV
  | Total energy, T -> 0          :       -1624.96671862 Ha      -44217.59418013 eV  <-- do not rely on this value for anything but (periodic) metals
  | Electronic free energy        :       -1624.96671862 Ha      -44217.59418013 eV

  Derived energy quantities:
  | Kinetic energy                :        1633.06452123 Ha       44437.94660043 eV
  | Electrostatic energy          :       -3112.67203327 Ha      -84700.11551974 eV
  | Energy correction for multipole
  | error in Hartree potential    :           0.02413262 Ha           0.65668194 eV
  | Sum of eigenvalues per atom                           :       -1995.56798946 eV
  | Total energy (T->0) per atom                          :       -3684.79951501 eV  <-- do not rely on this value for anything but (periodic) metals
  | Electronic free energy per atom                       :       -3684.79951501 eV
  Evaluating new KS density.
  Integration grid: deviation in total charge (<rho> - N_e) =   8.526513E-14

  Self-consistency convergence accuracy:
  | Change of charge density      :  0.6453E+00
  | Change of sum of eigenvalues  :  0.1266E+03 eV
  | Change of total energy        :  0.6314E+01 eV


------------------------------------------------------------
  End self-consistency iteration #     1       :  max(cpu_time)    wall_clock(cpu1)
  | Time for this iteration                     :        0.078 s           0.078 s
  | Charge density update                       :        0.025 s           0.025 s
  | Density mixing                              :        0.001 s           0.001 s
  | Hartree multipole update                    :        0.001 s           0.001 s
  | Hartree multipole summation                 :        0.017 s           0.017 s
  | Integration                                 :        0.028 s           0.028 s
  | Solution of K.-S. eqns.                     :        0.004 s           0.004 s
  | Total energy evaluation                     :        0.000 s           0.000 s

  Partial memory accounting:
  | Current value for overall tracked memory usage:
  |   Minimum:        0.273 MB (on task 23)
  |   Maximum:        0.292 MB (on task  0)
  |   Average:        0.287 MB
  | Peak value for overall tracked memory usage:
  |   Minimum:        1.285 MB (on task 12 after allocating wave)
  |   Maximum:        1.419 MB (on task  8 after allocating wave)
  |   Average:        1.358 MB
  | Largest tracked array allocation so far:
  |   Minimum:        0.691 MB (gradient_basis_wave on task 12)
  |   Maximum:        0.778 MB (gradient_basis_wave on task  8)
  |   Average:        0.742 MB
  Note:  These values currently only include a subset of arrays which are explicitly tracked.
  The "true" memory usage will be greater.
------------------------------------------------------------

------------------------------------------------------------
          Begin self-consistency iteration #    2

  Date     :  20220517, Time     :  112415.804
------------------------------------------------------------
  Pulay mixing of updated and previous charge densities.
  Renormalizing the density to the exact electron count on the 3D integration grid.
  | Formal number of electrons (from input files) :     120.0000000000
  | Integrated number of electrons on 3D grid     :     120.0000000000
  | Charge integration error                      :       0.0000000000
  | Normalization factor for density and gradient :       1.0000000000

  Evaluating partitioned Hartree potential by multipole expansion.
  | Original multipole sum: apparent total charge =   0.951072E-13
  | Sum of charges compensated after spline to logarithmic grids =   0.193131E-03
  | Analytical far-field extrapolation by fixed multipoles:
  | Hartree multipole sum: apparent total charge =   0.962632E-13
  Summing up the Hartree potential.
  Time summed over all CPUs for potential: real work        0.382 s, elapsed        0.394 s
  | RMS charge density error from multipole expansion :   0.988461E-02

  Integrating Hamiltonian matrix: batch-based integration.
  Time summed over all CPUs for integration: real work        0.613 s, elapsed        0.655 s

  Updating Kohn-Sham eigenvalues and eigenvectors using ELSI and the ELPA eigensolver.
  Starting ELPA eigensolver
  Finished transformation to standard eigenproblem
  | Time :     0.000 s
  Finished solving standard eigenproblem
  | Time :     0.003 s
  Finished back-transformation of eigenvectors
  | Time :     0.000 s

  Obtaining occupation numbers and chemical potential using ELSI.
  | Chemical potential (Fermi level):    -9.46207339 eV
  Highest occupied state (VBM) at     -9.54767384 eV
  | Occupation number:      2.00000000

  Lowest unoccupied state (CBM) at    -5.84910431 eV
  | Occupation number:      0.00000000

  Overall HOMO-LUMO gap:      3.69856953 eV.

  Checking to see if s.c.f. parameters should be adjusted.

  Total energy components:
  | Sum of eigenvalues            :        -883.77141713 Ha      -24048.64384162 eV
  | XC energy correction          :        -144.68732258 Ha       -3937.14236695 eV
  | XC potential correction       :         188.37794312 Ha        5126.02464156 eV
  | Free-atom electrostatic energy:        -783.96798513 Ha      -21332.85427902 eV
  | Hartree energy correction     :          -0.77590885 Ha         -21.11355392 eV
  | Entropy correction            :          -0.00000000 Ha          -0.00000000 eV
  | ---------------------------
  | Total energy                  :       -1624.82469056 Ha      -44213.72939996 eV
  | Total energy, T -> 0          :       -1624.82469056 Ha      -44213.72939996 eV  <-- do not rely on this value for anything but (periodic) metals
  | Electronic free energy        :       -1624.82469056 Ha      -44213.72939996 eV

  Derived energy quantities:
  | Kinetic energy                :        1628.50754496 Ha       44313.94496693 eV
  | Electrostatic energy          :       -3108.64491294 Ha      -84590.53199994 eV
  | Energy correction for multipole
  | error in Hartree potential    :           0.02537623 Ha           0.69052225 eV
  | Sum of eigenvalues per atom                           :       -2004.05365347 eV
  | Total energy (T->0) per atom                          :       -3684.47745000 eV  <-- do not rely on this value for anything but (periodic) metals
  | Electronic free energy per atom                       :       -3684.47745000 eV
  Evaluating new KS density.
  Integration grid: deviation in total charge (<rho> - N_e) =   1.421085E-14

  Self-consistency convergence accuracy:
  | Change of charge density      :  0.7060E+00
  | Change of sum of eigenvalues  : -0.1018E+03 eV
  | Change of total energy        :  0.3865E+01 eV


------------------------------------------------------------
  End self-consistency iteration #     2       :  max(cpu_time)    wall_clock(cpu1)
  | Time for this iteration                     :        0.080 s           0.078 s
  | Charge density update                       :        0.026 s           0.026 s
  | Density mixing                              :        0.004 s           0.002 s
  | Hartree multipole update                    :        0.001 s           0.001 s
  | Hartree multipole summation                 :        0.017 s           0.017 s
  | Integration                                 :        0.028 s           0.028 s
  | Solution of K.-S. eqns.                     :        0.004 s           0.004 s
  | Total energy evaluation                     :        0.000 s           0.000 s

  Partial memory accounting:
  | Current value for overall tracked memory usage:
  |   Minimum:        0.274 MB (on task 23)
  |   Maximum:        0.293 MB (on task  0)
  |   Average:        0.288 MB
  | Peak value for overall tracked memory usage:
  |   Minimum:        1.285 MB (on task 12 after allocating wave)
  |   Maximum:        1.419 MB (on task  8 after allocating wave)
  |   Average:        1.358 MB
  | Largest tracked array allocation so far:
  |   Minimum:        0.691 MB (gradient_basis_wave on task 12)
  |   Maximum:        0.778 MB (gradient_basis_wave on task  8)
  |   Average:        0.742 MB
  Note:  These values currently only include a subset of arrays which are explicitly tracked.
  The "true" memory usage will be greater.
------------------------------------------------------------

------------------------------------------------------------
          Begin self-consistency iteration #    3

  Date     :  20220517, Time     :  112415.888
------------------------------------------------------------
  Pulay mixing of updated and previous charge densities.
  Renormalizing the density to the exact electron count on the 3D integration grid.
  | Formal number of electrons (from input files) :     120.0000000000
  | Integrated number of electrons on 3D grid     :     120.0000000000
  | Charge integration error                      :      -0.0000000000
  | Normalization factor for density and gradient :       1.0000000000

  Evaluating partitioned Hartree potential by multipole expansion.
  | Original multipole sum: apparent total charge =  -0.149062E-13
  | Sum of charges compensated after spline to logarithmic grids =   0.257255E-03
  | Analytical far-field extrapolation by fixed multipoles:
  | Hartree multipole sum: apparent total charge =  -0.129015E-13
  Summing up the Hartree potential.
  Time summed over all CPUs for potential: real work        0.382 s, elapsed        0.394 s
  | RMS charge density error from multipole expansion :   0.131864E-01

  Integrating Hamiltonian matrix: batch-based integration.
  Time summed over all CPUs for integration: real work        0.613 s, elapsed        0.654 s

  Updating Kohn-Sham eigenvalues and eigenvectors using ELSI and the ELPA eigensolver.
  Starting ELPA eigensolver
  Finished transformation to standard eigenproblem
  | Time :     0.001 s
  Finished solving standard eigenproblem
  | Time :     0.003 s
  Finished back-transformation of eigenvectors
  | Time :     0.000 s

  Obtaining occupation numbers and chemical potential using ELSI.
  | Chemical potential (Fermi level):    -6.59312049 eV
  Highest occupied state (VBM) at     -9.20314098 eV
  | Occupation number:      2.00000000

  Lowest unoccupied state (CBM) at    -6.11495663 eV
  | Occupation number:      0.00000000

  Overall HOMO-LUMO gap:      3.08818435 eV.

  Total energy components:
  | Sum of eigenvalues            :        -885.27057197 Ha      -24089.43792040 eV
  | XC energy correction          :        -144.62634514 Ha       -3935.48308635 eV
  | XC potential correction       :         188.29695395 Ha        5123.82081403 eV
  | Free-atom electrostatic energy:        -783.96798513 Ha      -21332.85427902 eV
  | Hartree energy correction     :           0.74305855 Ha          20.21965187 eV
  | Entropy correction            :           0.00000000 Ha           0.00000000 eV
  | ---------------------------
  | Total energy                  :       -1624.82488974 Ha      -44213.73481987 eV
  | Total energy, T -> 0          :       -1624.82488974 Ha      -44213.73481987 eV  <-- do not rely on this value for anything but (periodic) metals
  | Electronic free energy        :       -1624.82488974 Ha      -44213.73481987 eV

  Derived energy quantities:
  | Kinetic energy                :        1626.78800067 Ha       44267.15378618 eV
  | Electrostatic energy          :       -3106.98654527 Ha      -84545.40551970 eV
  | Energy correction for multipole
  | error in Hartree potential    :           0.03307632 Ha           0.90005242 eV
  | Sum of eigenvalues per atom                           :       -2007.45316003 eV
  | Total energy (T->0) per atom                          :       -3684.47790166 eV  <-- do not rely on this value for anything but (periodic) metals
  | Electronic free energy per atom                       :       -3684.47790166 eV
  Evaluating new KS density.
  Integration grid: deviation in total charge (<rho> - N_e) =  -1.421085E-14

  Self-consistency convergence accuracy:
  | Change of charge density      :  0.1718E+00
  | Change of sum of eigenvalues  : -0.4079E+02 eV
  | Change of total energy        : -0.5420E-02 eV


------------------------------------------------------------
  End self-consistency iteration #     3       :  max(cpu_time)    wall_clock(cpu1)
  | Time for this iteration                     :        0.080 s           0.077 s
  | Charge density update                       :        0.025 s           0.025 s
  | Density mixing                              :        0.004 s           0.001 s
  | Hartree multipole update                    :        0.001 s           0.002 s
  | Hartree multipole summation                 :        0.017 s           0.016 s
  | Integration                                 :        0.028 s           0.028 s
  | Solution of K.-S. eqns.                     :        0.004 s           0.004 s
  | Total energy evaluation                     :        0.000 s           0.001 s

  Partial memory accounting:
  | Current value for overall tracked memory usage:
  |   Minimum:        0.274 MB (on task 23)
  |   Maximum:        0.293 MB (on task  0)
  |   Average:        0.288 MB
  | Peak value for overall tracked memory usage:
  |   Minimum:        1.285 MB (on task 12 after allocating wave)
  |   Maximum:        1.419 MB (on task  8 after allocating wave)
  |   Average:        1.358 MB
  | Largest tracked array allocation so far:
  |   Minimum:        0.691 MB (gradient_basis_wave on task 12)
  |   Maximum:        0.778 MB (gradient_basis_wave on task  8)
  |   Average:        0.742 MB
  Note:  These values currently only include a subset of arrays which are explicitly tracked.
  The "true" memory usage will be greater.
------------------------------------------------------------

------------------------------------------------------------
          Begin self-consistency iteration #    4

  Date     :  20220517, Time     :  112415.971
------------------------------------------------------------
  Pulay mixing of updated and previous charge densities.
  Renormalizing the density to the exact electron count on the 3D integration grid.
  | Formal number of electrons (from input files) :     120.0000000000
  | Integrated number of electrons on 3D grid     :     120.0000000000
  | Charge integration error                      :       0.0000000000
  | Normalization factor for density and gradient :       1.0000000000

  Evaluating partitioned Hartree potential by multipole expansion.
  | Original multipole sum: apparent total charge =  -0.291483E-14
  | Sum of charges compensated after spline to logarithmic grids =   0.311847E-03
  | Analytical far-field extrapolation by fixed multipoles:
  | Hartree multipole sum: apparent total charge =  -0.329610E-14
  Summing up the Hartree potential.
  Time summed over all CPUs for potential: real work        0.382 s, elapsed        0.394 s
  | RMS charge density error from multipole expansion :   0.161315E-01

  Integrating Hamiltonian matrix: batch-based integration.
  Time summed over all CPUs for integration: real work        0.613 s, elapsed        0.655 s

  Updating Kohn-Sham eigenvalues and eigenvectors using ELSI and the ELPA eigensolver.
  Starting ELPA eigensolver
  Finished transformation to standard eigenproblem
  | Time :     0.000 s
  Finished solving standard eigenproblem
  | Time :     0.003 s
  Finished back-transformation of eigenvectors
  | Time :     0.001 s

  Obtaining occupation numbers and chemical potential using ELSI.
  | Chemical potential (Fermi level):    -6.64533807 eV
  Highest occupied state (VBM) at     -9.37156783 eV
  | Occupation number:      2.00000000

  Lowest unoccupied state (CBM) at    -6.16079844 eV
  | Occupation number:      0.00000000

  Overall HOMO-LUMO gap:      3.21076939 eV.

  Total energy components:
  | Sum of eigenvalues            :        -885.84373190 Ha      -24105.03439562 eV
  | XC energy correction          :        -144.58185690 Ha       -3934.27249975 eV
  | XC potential correction       :         188.23736691 Ha        5122.19936828 eV
  | Free-atom electrostatic energy:        -783.96798513 Ha      -21332.85427902 eV
  | Hartree energy correction     :           1.33795988 Ha          36.40774079 eV
  | Entropy correction            :           0.00000000 Ha           0.00000000 eV
  | ---------------------------
  | Total energy                  :       -1624.81824713 Ha      -44213.55406532 eV
  | Total energy, T -> 0          :       -1624.81824713 Ha      -44213.55406532 eV  <-- do not rely on this value for anything but (periodic) metals
  | Electronic free energy        :       -1624.81824713 Ha      -44213.55406532 eV

  Derived energy quantities:
  | Kinetic energy                :        1625.52522074 Ha       44232.79179612 eV
  | Electrostatic energy          :       -3105.76161098 Ha      -84512.07336169 eV
  | Energy correction for multipole
  | error in Hartree potential    :           0.04007015 Ha           1.09036439 eV
  | Sum of eigenvalues per atom                           :       -2008.75286630 eV
  | Total energy (T->0) per atom                          :       -3684.46283878 eV  <-- do not rely on this value for anything but (periodic) metals
  | Electronic free energy per atom                       :       -3684.46283878 eV
  Evaluating new KS density.
  Integration grid: deviation in total charge (<rho> - N_e) =   2.842171E-14

  Self-consistency convergence accuracy:
  | Change of charge density      :  0.1621E+00
  | Change of sum of eigenvalues  : -0.1560E+02 eV
  | Change of total energy        :  0.1808E+00 eV


------------------------------------------------------------
  End self-consistency iteration #     4       :  max(cpu_time)    wall_clock(cpu1)
  | Time for this iteration                     :        0.080 s           0.078 s
  | Charge density update                       :        0.025 s           0.026 s
  | Density mixing                              :        0.004 s           0.002 s
  | Hartree multipole update                    :        0.001 s           0.001 s
  | Hartree multipole summation                 :        0.017 s           0.017 s
  | Integration                                 :        0.028 s           0.028 s
  | Solution of K.-S. eqns.                     :        0.004 s           0.004 s
  | Total energy evaluation                     :        0.000 s           0.000 s

  Partial memory accounting:
  | Current value for overall tracked memory usage:
  |   Minimum:        0.274 MB (on task 23)
  |   Maximum:        0.293 MB (on task  0)
  |   Average:        0.288 MB
  | Peak value for overall tracked memory usage:
  |   Minimum:        1.285 MB (on task 12 after allocating wave)
  |   Maximum:        1.419 MB (on task  8 after allocating wave)
  |   Average:        1.358 MB
  | Largest tracked array allocation so far:
  |   Minimum:        0.691 MB (gradient_basis_wave on task 12)
  |   Maximum:        0.778 MB (gradient_basis_wave on task  8)
  |   Average:        0.742 MB
  Note:  These values currently only include a subset of arrays which are explicitly tracked.
  The "true" memory usage will be greater.
------------------------------------------------------------

------------------------------------------------------------
          Begin self-consistency iteration #    5

  Date     :  20220517, Time     :  112416.055
------------------------------------------------------------
  Pulay mixing of updated and previous charge densities.
  Renormalizing the density to the exact electron count on the 3D integration grid.
  | Formal number of electrons (from input files) :     120.0000000000
  | Integrated number of electrons on 3D grid     :     120.0000000000
  | Charge integration error                      :       0.0000000000
  | Normalization factor for density and gradient :       1.0000000000

  Evaluating partitioned Hartree potential by multipole expansion.
  | Original multipole sum: apparent total charge =   0.982926E-13
  | Sum of charges compensated after spline to logarithmic grids =   0.306188E-03
  | Analytical far-field extrapolation by fixed multipoles:
  | Hartree multipole sum: apparent total charge =   0.964969E-13
  Summing up the Hartree potential.
  Time summed over all CPUs for potential: real work        0.382 s, elapsed        0.394 s
  | RMS charge density error from multipole expansion :   0.156378E-01

  Integrating Hamiltonian matrix: batch-based integration.
  Time summed over all CPUs for integration: real work        0.613 s, elapsed        0.655 s

  Updating Kohn-Sham eigenvalues and eigenvectors using ELSI and the ELPA eigensolver.
  Starting ELPA eigensolver
  Finished transformation to standard eigenproblem
  | Time :     0.000 s
  Finished solving standard eigenproblem
  | Time :     0.003 s
  Finished back-transformation of eigenvectors
  | Time :     0.000 s

  Obtaining occupation numbers and chemical potential using ELSI.
  | Chemical potential (Fermi level):    -6.58701386 eV
  Highest occupied state (VBM) at     -9.49485840 eV
  | Occupation number:      2.00000000

  Lowest unoccupied state (CBM) at    -6.05172366 eV
  | Occupation number:      0.00000000

  Overall HOMO-LUMO gap:      3.44313475 eV.

  Total energy components:
  | Sum of eigenvalues            :        -885.38839455 Ha      -24092.64403591 eV
  | XC energy correction          :        -144.56585050 Ha       -3933.83694350 eV
  | XC potential correction       :         188.21670886 Ha        5121.63723402 eV
  | Free-atom electrostatic energy:        -783.96798513 Ha      -21332.85427902 eV
  | Hartree energy correction     :           0.88835020 Ha          24.17323883 eV
  | Entropy correction            :           0.00000000 Ha           0.00000000 eV
[...]
   Total forces(   7)            :  0.227497E+00  0.450474E+01 -0.316819E+00
  atom #    8
   Hellmann-Feynman              :  0.378310E+00 -0.640207E+00  0.571509E+00
   Ionic forces                  :  0.000000E+00  0.000000E+00  0.000000E+00
   Multipole                     :  0.380753E-01 -0.117502E-01  0.555788E-01
   Hartree pot. SCF incomplete   :  0.554491E-05 -0.618550E-05  0.870252E-05
   Pulay + GGA                   : -0.172686E+01  0.147832E+01 -0.238344E+01
   ----------------------------------------------------------------
   Total forces(   8)            : -0.131047E+01  0.826358E+00 -0.175634E+01
  atom #    9
   Hellmann-Feynman              :  0.794116E-01  0.745629E+00 -0.619447E+00
   Ionic forces                  :  0.000000E+00  0.000000E+00  0.000000E+00
   Multipole                     :  0.574460E-02  0.171170E-01 -0.419915E-01
   Hartree pot. SCF incomplete   :  0.113916E-05  0.882313E-05 -0.860368E-05
   Pulay + GGA                   : -0.376347E+00 -0.193920E+01  0.275731E+01
   ----------------------------------------------------------------
   Total forces(   9)            : -0.291190E+00 -0.117644E+01  0.209586E+01
  atom #   10
   Hellmann-Feynman              : -0.230845E+00 -0.669984E+00  0.164244E+01
   Ionic forces                  :  0.000000E+00  0.000000E+00  0.000000E+00
   Multipole                     : -0.477399E-01 -0.378716E+00  0.360243E+00
   Hartree pot. SCF incomplete   : -0.166600E-05 -0.805400E-05  0.121453E-04
   Pulay + GGA                   :  0.810597E+00  0.326994E+01 -0.585112E+01
   ----------------------------------------------------------------
   Total forces(  10)            :  0.532010E+00  0.222123E+01 -0.384842E+01
  atom #   11
   Hellmann-Feynman              :  0.792578E-01  0.160814E+01 -0.683089E+00
   Ionic forces                  :  0.000000E+00  0.000000E+00  0.000000E+00
   Multipole                     :  0.565293E-01  0.446719E+00 -0.426745E+00
   Hartree pot. SCF incomplete   :  0.120839E-05  0.109992E-04 -0.927064E-05
   Pulay + GGA                   : -0.366913E+00 -0.609860E+01  0.305978E+01
   ----------------------------------------------------------------
   Total forces(  11)            : -0.231124E+00 -0.404373E+01  0.194994E+01
  atom #   12
   Hellmann-Feynman              : -0.510307E+00 -0.652020E+00  0.443764E+00
   Ionic forces                  :  0.000000E+00  0.000000E+00  0.000000E+00
   Multipole                     : -0.524191E-01 -0.124926E-01  0.423491E-01
   Hartree pot. SCF incomplete   : -0.763520E-05 -0.635475E-05  0.678371E-05
   Pulay + GGA                   :  0.229817E+01  0.152942E+01 -0.179840E+01
   ----------------------------------------------------------------
   Total forces(  12)            :  0.173543E+01  0.864900E+00 -0.131228E+01


  Self-consistency convergence accuracy:
  | Change of charge density      :  0.3628E-06
  | Change of sum of eigenvalues  : -0.8483E-04 eV
  | Change of total energy        :  0.3293E-07 eV
  | Change of forces              :  0.1016E-05 eV/A

  Writing Kohn-Sham eigenvalues.

  State    Occupation    Eigenvalue [Ha]    Eigenvalue [eV]
      1       2.00000         -55.683998        -1515.23867
      2       2.00000         -55.683991        -1515.23849
      3       2.00000         -55.681642        -1515.17458
      4       2.00000         -24.292411         -661.03014
      5       2.00000         -24.292410         -661.03010
      6       2.00000         -24.288618         -660.92691
      7       2.00000         -24.228523         -659.29166
      8       2.00000         -24.220628         -659.07682
      9       2.00000         -24.220616         -659.07650
     10       2.00000         -24.216678         -658.96932
     11       2.00000         -24.216667         -658.96903
     12       2.00000         -24.211741         -658.83499
     13       2.00000          -4.126194         -112.27945
     14       2.00000          -4.126186         -112.27923
     15       2.00000          -4.124350         -112.22927
     16       2.00000          -2.719942          -74.01338
     17       2.00000          -2.719933          -74.01314
     18       2.00000          -2.719667          -74.00590
     19       2.00000          -2.719659          -74.00567
     20       2.00000          -2.718097          -73.96320
     21       2.00000          -2.717771          -73.95430
     22       2.00000          -2.714425          -73.86328
     23       2.00000          -2.714417          -73.86305
     24       2.00000          -2.712586          -73.81323
     25       2.00000          -1.135818          -30.90718
     26       2.00000          -1.133129          -30.83400
     27       2.00000          -1.127233          -30.67357
     28       2.00000          -1.057420          -28.77387
     29       2.00000          -1.047431          -28.50204
     30       2.00000          -1.047367          -28.50031
     31       2.00000          -1.042670          -28.37250
     32       2.00000          -1.042570          -28.36978
     33       2.00000          -1.038095          -28.24800
     34       2.00000          -0.525000          -14.28597
     35       2.00000          -0.519599          -14.13902
     36       2.00000          -0.493361          -13.42503
     37       2.00000          -0.484399          -13.18117
     38       2.00000          -0.448486          -12.20394
     39       2.00000          -0.448237          -12.19716
     40       2.00000          -0.441808          -12.02221
     41       2.00000          -0.433917          -11.80749
     42       2.00000          -0.433853          -11.80575
     43       2.00000          -0.425425          -11.57639
     44       2.00000          -0.421083          -11.45824
     45       2.00000          -0.418103          -11.37716
     46       2.00000          -0.400189          -10.88969
     47       2.00000          -0.400135          -10.88822
     48       2.00000          -0.398644          -10.84765
     49       2.00000          -0.367366           -9.99654
     50       2.00000          -0.365914           -9.95704
     51       2.00000          -0.359748           -9.78925
     52       2.00000          -0.356933           -9.71264
     53       2.00000          -0.356841           -9.71015
     54       2.00000          -0.355735           -9.68005
     55       2.00000          -0.351919           -9.57621
     56       2.00000          -0.351755           -9.57175
     57       2.00000          -0.351389           -9.56177
     58       2.00000          -0.350573           -9.53958
     59       2.00000          -0.347323           -9.45113
     60       2.00000          -0.347171           -9.44700
     61       0.00000          -0.222771           -6.06190
     62       0.00000          -0.188346           -5.12515
     63       0.00000          -0.184750           -5.02731
     64       0.00000          -0.103576           -2.81845
     65       0.00000          -0.081430           -2.21583
     66       0.00000          -0.081075           -2.20617
     67       0.00000          -0.045185           -1.22955
     68       0.00000          -0.044511           -1.21121
     69       0.00000          -0.040962           -1.11462
     70       0.00000          -0.029141           -0.79296
     71       0.00000           0.009533            0.25940
     72       0.00000           0.010620            0.28898
     73       0.00000           0.093348            2.54013
     74       0.00000           0.122703            3.33892
     75       0.00000           0.143508            3.90505
     76       0.00000           0.144176            3.92322
     77       0.00000           0.146980            3.99953
     78       0.00000           0.149191            4.05969
     79       0.00000           0.159792            4.34817
     80       0.00000           0.166714            4.53652
     81       0.00000           0.169037            4.59972
     82       0.00000           0.176573            4.80479
     83       0.00000           0.181492            4.93864
     84       0.00000           0.189693            5.16180
     85       0.00000           0.194161            5.28339
     86       0.00000           0.207858            5.65611
     87       0.00000           0.214520            5.83740
     88       0.00000           0.215298            5.85856
     89       0.00000           0.228627            6.22125
     90       0.00000           0.232325            6.32188
     91       0.00000           0.238691            6.49510
     92       0.00000           0.246954            6.71996
     93       0.00000           0.253963            6.91067
     94       0.00000           0.262529            7.14378
     95       0.00000           0.295686            8.04602
     96       0.00000           0.304687            8.29094

  Highest occupied state (VBM) at     -9.44699548 eV
  | Occupation number:      2.00000000

  Lowest unoccupied state (CBM) at    -6.06189541 eV
  | Occupation number:      0.00000000

  Overall HOMO-LUMO gap:      3.38510007 eV.
  | Chemical Potential                          :    -6.58727410 eV

  Self-consistency cycle converged.


------------------------------------------------------------
  End self-consistency iteration #    15       :  max(cpu_time)    wall_clock(cpu1)
  | Time for this iteration                     :        0.279 s           0.278 s
  | Charge density & force component update     :        0.141 s           0.141 s
  | Density mixing                              :        0.005 s           0.002 s
  | Hartree multipole update                    :        0.001 s           0.001 s
  | Hartree multipole summation                 :        0.052 s           0.052 s
  | Hartree pot. SCF incomplete forces          :        0.034 s           0.035 s
  | Integration                                 :        0.028 s           0.028 s
  | Solution of K.-S. eqns.                     :        0.017 s           0.017 s
  | Total energy evaluation                     :        0.000 s           0.000 s

  Partial memory accounting:
  | Current value for overall tracked memory usage:
  |   Minimum:        0.274 MB (on task 23)
  |   Maximum:        0.293 MB (on task  0)
  |   Average:        0.289 MB
  | Peak value for overall tracked memory usage:
  |   Minimum:        2.872 MB (on task 12 after allocating hessian_basis_wave)
  |   Maximum:        3.162 MB (on task  8 after allocating hessian_basis_wave)
  |   Average:        3.036 MB
  | Largest tracked array allocation so far:
  |   Minimum:        1.382 MB (hessian_basis_wave on task 12)
  |   Maximum:        1.556 MB (hessian_basis_wave on task  8)
  |   Average:        1.484 MB
  Note:  These values currently only include a subset of arrays which are explicitly tracked.
  The "true" memory usage will be greater.
------------------------------------------------------------
  Removing unitary transformations (pure translations, rotations) from forces on atoms.
  Atomic forces before filtering:
  | Net force on center of mass :  -0.106428E-02 -0.643306E-02  0.325527E-02 eV/A
  | Net torque on center of mass:   0.971742E-02  0.139247E-02 -0.229461E-02 eV
  Atomic forces after filtering:
  | Net force on center of mass :   0.356812E-15 -0.178406E-15 -0.535218E-15 eV/A
  | Net torque on center of mass:  -0.207699E-14  0.755268E-15  0.295026E-14 eV

  Energy and forces in a compact form:
  | Total energy uncorrected      :         -0.442135203543284E+05 eV
  | Total energy corrected        :         -0.442135203543284E+05 eV  <-- do not rely on this value for anything but (periodic) metals
  | Electronic free energy        :         -0.442135203543284E+05 eV
  Total atomic forces (unitary forces cleaned) [eV/Ang]:
  |    1         -0.935483146015109E-01         -0.525115618676006E+00          0.691441646293467E+00
  |    2          0.203453386548976E+00          0.117230547938187E+00         -0.221715674143071E+00
  |    3         -0.135209353049725E+00          0.113548688997350E+00         -0.271112749944800E+00
  |    4         -0.211904520545121E+01         -0.372649728450992E+01          0.140877597631297E+01
  |    5          0.172272078755845E+01         -0.367864506104277E+01          0.196742307365914E+01
  |    6         -0.240999227887236E+00          0.449862549543457E+01         -0.385044251945169E+00
  |    7          0.227690046317579E+00          0.450502066327968E+01         -0.316693558361762E+00
  |    8         -0.131039422849056E+01          0.827166421009182E+00         -0.175658178218575E+01
  |    9         -0.291074032269660E+00         -0.117619661488035E+01          0.209559278501866E+01
  |   10          0.532040597567307E+00          0.222237068043457E+01         -0.384872190965384E+01
  |   11         -0.231147827166261E+00         -0.404302710973634E+01          0.194919222521795E+01
  |   12          0.173551337092385E+01          0.865519191751852E+00         -0.131255578026780E+01

  ------------------------------------ 
  Start decomposition of the XC Energy 
  ------------------------------------ 
  X and C from original XC functional choice 
  Hartree-Fock Energy :          0.000000000 Ha              0.000000000 eV
  X Energy            :       -139.694569561 Ha          -3801.282644887 eV
  C Energy            :         -4.883904215 Ha           -132.897795467 eV
  Total XC Energy     :       -144.578473776 Ha          -3934.180440354 eV
  ------------------------------------ 
  LDA X and C from self-consistent density 
  X Energy LDA        :       -132.219088332 Ha          -3597.864450841 eV
  C Energy LDA        :         -8.788928341 Ha           -239.158908431 eV
  ------------------------------------ 
  End decomposition of the XC Energy 
  ------------------------------------ 

------------------------------------------------------------

------------------------------------------------------------------------------
  Final output of selected total energy values:

  The following output summarizes some interesting total energy values
  at the end of a run (AFTER all relaxation, molecular dynamics, etc.).

  | Total energy of the DFT / Hartree-Fock s.c.f. calculation      :         -44213.520354328 eV
  | Final zero-broadening corrected energy (caution - metals only) :         -44213.520354328 eV
  | For reference only, the value of 1 Hartree used in FHI-aims is :             27.211384500 eV

  Before relying on these values, please be sure to understand exactly which
  total energy value is referred to by a given number. Different objects may
  all carry the same name 'total energy'. Definitions:

  Total energy of the DFT / Hartree-Fock s.c.f. calculation:
  | Note that this energy does not include ANY quantities calculated after the
  | s.c.f. cycle, in particular not ANY RPA, MP2, etc. many-body perturbation terms.

  Final zero-broadening corrected energy:
  | For metallic systems only, a broadening of the occupation numbers at the Fermi
  | level can be extrapolated back to zero broadening by an electron-gas inspired
  | formula. For all systems that are not real metals, this value can be
  | meaningless and should be avoided.

------------------------------------------------------------------------------
  Methods described in the following list of references were used in this FHI-aims run.
  If you publish the results, please make sure to cite these reference if they apply.
  FHI-aims is an academic code, and for our developers (often, Ph.D. students
  and postdocs), scientific credit in the community is essential.
  Thank you for helping us!

  For any use of FHI-aims, please cite:

    Volker Blum, Ralf Gehrke, Felix Hanke, Paula Havu, Ville Havu,
    Xinguo Ren, Karsten Reuter, and Matthias Scheffler
    'Ab initio molecular simulations with numeric atom-centered orbitals'
    Computer Physics Communications 180, 2175-2196 (2009)
    http://dx.doi.org/10.1016/j.cpc.2009.06.022


  The ELSI infrastructure was used in your run to solve the Kohn-Sham electronic structure.
  Please check out http://elsi-interchange.org to learn more.
  If scalability is important for your project, please acknowledge ELSI by citing:

    V. W-z. Yu, F. Corsetti, A. Garcia, W. P. Huhn, M. Jacquelin, W. Jia,
    B. Lange, L. Lin, J. Lu, W. Mi, A. Seifitokaldani, A. Vazquez-Mayagoitia,
    C. Yang, H. Yang, and V. Blum
    'ELSI: A unified software interface for Kohn-Sham electronic structure solvers'
    Computer Physics Communications 222, 267-285 (2018).
    http://dx.doi.org/10.1016/j.cpc.2017.09.007


  For the real-space grid partitioning and parallelization used in this calculation, please cite:

    Ville Havu, Volker Blum, Paula Havu, and Matthias Scheffler,
    'Efficient O(N) integration for all-electron electronic structure calculation'
    'using numerically tabulated basis functions'
    Journal of Computational Physics 228, 8367-8379 (2009).
    http://dx.doi.org/10.1016/j.jcp.2009.08.008

  Of course, there are many other important community references, e.g., those cited in the
  above references. Our list is limited to references that describe implementations in the
  FHI-aims code. The reason is purely practical (length of this list) - please credit others as well.

------------------------------------------------------------
          Leaving FHI-aims.
          Date     :  20220517, Time     :  112417.389

          Computational steps:
          | Number of self-consistency cycles          :           15
          | Number of SCF (re)initializations          :            1

          Detailed time accounting                     :  max(cpu_time)    wall_clock(cpu1)
          | Total time                                  :        2.015 s           2.095 s
          | Preparation time                            :        0.183 s           0.185 s
          | Boundary condition initalization            :        0.000 s           0.001 s
          | Grid partitioning                           :        0.057 s           0.058 s
          | Preloading free-atom quantities on grid     :        0.026 s           0.026 s
          | Free-atom superposition energy              :        0.005 s           0.005 s
          | Total time for integrations                 :        0.461 s           0.464 s
          | Total time for solution of K.-S. equations  :        0.087 s           0.086 s
          | Total time for density & force components   :        0.640 s           0.643 s
          | Total time for mixing                       :        0.065 s           0.033 s
          | Total time for Hartree multipole update     :        0.021 s           0.021 s
          | Total time for Hartree multipole sum        :        0.321 s           0.321 s
          | Total time for total energy evaluation      :        0.002 s           0.001 s
          | Total time NSC force correction             :        0.067 s           0.069 s
          | Total time for scaled ZORA corrections      :        0.000 s           0.000 s

          Partial memory accounting:
          | Residual value for overall tracked memory usage across tasks:     0.000000 MB (should be 0.000000 MB)
          | Peak values for overall tracked memory usage:
          |   Minimum:        2.872 MB (on task 12 after allocating hessian_basis_wave)
          |   Maximum:        3.162 MB (on task  8 after allocating hessian_basis_wave)
          |   Average:        3.036 MB
          | Largest tracked array allocation:
          |   Minimum:        1.382 MB (hessian_basis_wave on task 12)
          |   Maximum:        1.556 MB (hessian_basis_wave on task  8)
          |   Average:        1.484 MB
          Note:  These values currently only include a subset of arrays which are explicitly tracked.
          The "true" memory usage will be greater.

          Have a nice day.
------------------------------------------------------------
