********************************************************************************
*                       GENERAL UTILITY LATTICE PROGRAM                        *
*                                 Julian Gale                                  *
*                       Curtin Institute for Computation                       *
*                           Department of Chemistry                            *
*                    Curtin University, Western Australia                      *
********************************************************************************
* Version = 5.1.1 * Last modified =  24th November 2018                        *
********************************************************************************
*  optimise     - perform optimisation run                                     *
*  conp         - constant pressure calculation                                *
*  shell        - only shells and radii to be optimised                        *
*  phonon       - calculate phonons for final geometry                         *
*  eigenvectors - output phonon eigenvectors                                   *
********************************************************************************

  Job Started  at 14:40.09 25th May        2022                               

  Number of CPUs =     1

  Host name      = login03                                 


  Total number of configurations input =      1

********************************************************************************
*  Input for Configuration =   1                                               *
********************************************************************************

  Formula = Al3F9                                                       

  Number of irreducible atoms/shells =      21


  Total number atoms/shells =      21

  Dimensionality = 0               :  Cluster


  Charge on cluster =  -0.000000


  Initial cluster dipoles : x =      0.154221 e.Angs
                            y =     -0.601276 e.Angs
                            z =      0.029054 e.Angs

  Temperature of configuration =  0.000     K 

  Symmetry number =      1

  Cartesian coordinates of cluster :

--------------------------------------------------------------------------------
   No.  Atomic       x           y          z         Charge      Occupancy
        Label      (Angs)      (Angs)     (Angs)        (e)         (Frac)  
--------------------------------------------------------------------------------
      1 Al    c     -1.6906      2.5633     -1.2203     3.00000    1.000000    
      2 Al    c     -0.4260      0.0295     -2.4581     3.00000    1.000000    
      3 Al    c     -2.3029     -0.3524     -0.3986     3.00000    1.000000    
      4 F     c     -0.7461      3.7014     -0.1485     0.59000    1.000000    
      5 F     c     -3.0047      3.1504     -2.3091     0.59000    1.000000    
      6 F     c     -1.3738     -1.2196     -1.6330     0.59000    1.000000    
      7 F     c     -2.4230      1.3857     -0.1153     0.59000    1.000000    
      8 F     c     -3.3944     -1.4453      0.7589     0.59000    1.000000    
      9 F     c      0.7840     -0.5951     -3.8260     0.59000    1.000000    
     10 F     c     -0.4772      1.7816     -2.2504     0.59000    1.000000    
     11 F     c     -2.4383      0.4478     -2.2940     0.59000    1.000000    
     12 F     c     -0.3393      0.1156     -0.4428     0.59000    1.000000    
     13 F     s     -0.7461 *    3.7014 *   -0.1485 *  -1.59000    1.000000    
     14 F     s     -3.0047 *    3.1504 *   -2.3091 *  -1.59000    1.000000    
     15 F     s     -1.3738 *   -1.2196 *   -1.6330 *  -1.59000    1.000000    
     16 F     s     -2.4230 *    1.3857 *   -0.1153 *  -1.59000    1.000000    
     17 F     s     -3.3944 *   -1.4453 *    0.7589 *  -1.59000    1.000000    
     18 F     s      0.7840 *   -0.5951 *   -3.8260 *  -1.59000    1.000000    
     19 F     s     -0.4772 *    1.7816 *   -2.2504 *  -1.59000    1.000000    
     20 F     s     -2.4383 *    0.4478 *   -2.2940 *  -1.59000    1.000000    
     21 F     s     -0.3393 *    0.1156 *   -0.4428 *  -1.59000    1.000000    
--------------------------------------------------------------------------------


  Brillouin zone sampling points :

--------------------------------------------------------------------------------
  Point number          x          y          z            Weight
--------------------------------------------------------------------------------
        1           0.000000   0.000000   0.000000     1.00000000
--------------------------------------------------------------------------------


********************************************************************************
*  General input information                                                   *
********************************************************************************

  Species output for all configurations : 

--------------------------------------------------------------------------------
  Species    Type    Atomic    Atomic    Charge       Radii (Angs)     Library
                     Number     Mass       (e)     Cova   Ionic  VDW   Symbol
--------------------------------------------------------------------------------
    Al       Core       13      26.98   3.000000   1.350  0.000  2.050          
    F        Core        9      19.00   0.590000   0.710  0.000  1.300          
    F        Shell       9       0.00  -1.590000   0.710  0.000  1.300          
--------------------------------------------------------------------------------


  Accuracy factor for short range sums = 12.000

  Time limit = Infinity

  Maximum range for interatomic potentials =    100000.000000 Angstroms

  General interatomic potentials :

--------------------------------------------------------------------------------
Atom  Types   Potential      Parameter       Value         Units   Cutoffs(Ang)
  1     2                                                            Min /  Max 
--------------------------------------------------------------------------------
Al   c F    s Buckingham    Buckingham A     3760.0008    eV        0.000 10.000
                            Buckingham rho  0.22200000    Ang       
                            Buckingham C     0.0000000    eV*Ang^6  
--------------------------------------------------------------------------------
F    s F    s Buck 4 range  Buck4 A          1127.7000    eV        0.000 12.000
                            Buck4 rho       0.27530000    Ang       
                            Buck4 C          15.830000    eV*Ang^6  
                            Buck4 minimum    2.7900000    Ang       
--------------------------------------------------------------------------------
F    c F    s Spring (c-s)  Spring k 2       20.770000    eV*Ang^-2 0.000  0.800
                            Spring k 4       0.0000000    eV*Ang^-4 
--------------------------------------------------------------------------------

********************************************************************************
*  Output for configuration   1                                                *
********************************************************************************


  Components of energy : 

--------------------------------------------------------------------------------
  Interatomic potentials     =          14.06350864 eV    
  Monopole - monopole (real) =        -185.73815374 eV    
--------------------------------------------------------------------------------
  Total lattice energy       =        -171.67464510 eV    
--------------------------------------------------------------------------------
  Total lattice energy       =          -16563.9790 kJ/mol
--------------------------------------------------------------------------------


  Number of variables =       27

  Maximum number of calculations  =          2000
  Maximum Hessian update interval =            10
  Maximum step size               =   1.000000000
  Maximum parameter tolerance     =   0.000001000
  Maximum function  tolerance     =   0.000010000
  Maximum gradient  tolerance     =   0.000000010
  Maximum gradient  component     =   0.010000000

  Symmetry not applied to optimisation

  Newton-Raphson optimiser to be used

  BFGS hessian update to be used

  Lower half triangular hessian to be used

  Minimiser to switch to RFO
  When gradient norm is less than     0.010000

  Shell only optimisation

  Start of cluster optimisation :

  Cycle:      0 Energy:      -171.674645  Gnorm:      1.132399  CPU:    0.004
  ** Hessian calculated **
  Cycle:      1 Energy:      -182.880986  Gnorm:      0.368941  CPU:    0.006
  ** Hessian calculated **
  Cycle:      2 Energy:      -183.644536  Gnorm:      0.005873  CPU:    0.008
  ** Hessian has required structure
  Cycle:      3 Energy:      -183.644695  Gnorm:      0.003212  CPU:    0.011
  ** Hessian has required structure
  Cycle:      4 Energy:      -183.644721  Gnorm:      0.002683  CPU:    0.012
  ** Hessian has required structure
  Cycle:      5 Energy:      -183.644726  Gnorm:      0.002636  CPU:    0.014
  ** Hessian has required structure
  Cycle:      6 Energy:      -183.644728  Gnorm:      0.002529  CPU:    0.016
  ** Hessian has required structure
  Cycle:      7 Energy:      -183.644728  Gnorm:      0.002528  CPU:    0.017
  ** Hessian has required structure
  Cycle:      8 Energy:      -183.644728  Gnorm:      0.002537  CPU:    0.019
  ** Hessian has required structure
  Cycle:      9 Energy:      -183.644728  Gnorm:      0.002534  CPU:    0.020
  ** Hessian has required structure
  Cycle:     10 Energy:      -183.644729  Gnorm:      0.002515  CPU:    0.022
  ** Hessian has required structure
  Cycle:     11 Energy:      -183.644729  Gnorm:      0.002485  CPU:    0.023
  ** Hessian has required structure
  Cycle:     12 Energy:      -183.644761  Gnorm:      0.000001  CPU:    0.025
  ** Hessian has required structure

  XYZ File written as 005/4/sp_mod_70/sp_mod_70_eig.xyz



  **** Optimisation achieved ****


  Final energy =    -183.64476145 eV
  Final Gnorm  =       0.00000000

  Components of energy : 

--------------------------------------------------------------------------------
  Interatomic potentials     =          34.51704543 eV    
  Monopole - monopole (real) =        -218.16180688 eV    
--------------------------------------------------------------------------------
  Total lattice energy       =        -183.64476145 eV    
--------------------------------------------------------------------------------
  Total lattice energy       =          -17718.9122 kJ/mol
--------------------------------------------------------------------------------

  Final cartesian coordinates of atoms :

--------------------------------------------------------------------------------
   No.  Atomic        x           y          z          Radius
        Label       (Angs)      (Angs)     (Angs)       (Angs) 
--------------------------------------------------------------------------------
     1  Al    c    -1.690578    2.563259   -1.220325    0.000000
     2  Al    c    -0.426025    0.029532   -2.458120    0.000000
     3  Al    c    -2.302923   -0.352351   -0.398585    0.000000
     4  F     c    -0.746076    3.701440   -0.148537    0.000000
     5  F     c    -3.004721    3.150412   -2.309060    0.000000
     6  F     c    -1.373751   -1.219596   -1.633017    0.000000
     7  F     c    -2.423032    1.385731   -0.115265    0.000000
     8  F     c    -3.394355   -1.445299    0.758925    0.000000
     9  F     c     0.784010   -0.595147   -3.826031    0.000000
    10  F     c    -0.477232    1.781633   -2.250408    0.000000
    11  F     c    -2.438295    0.447798   -2.293987    0.000000
    12  F     c    -0.339345    0.115625   -0.442763    0.000000
    13  F     s    -0.888075    3.525257   -0.310612    0.000000
    14  F     s    -2.811610    3.082231   -2.145716    0.000000
    15  F     s    -1.375691   -1.194421   -1.630118    0.000000
    16  F     s    -2.366048    1.325037   -0.208232    0.000000
    17  F     s    -3.185922   -1.230216    0.538737    0.000000
    18  F     s     0.552618   -0.469554   -3.563596    0.000000
    19  F     s    -0.550864    1.694363   -2.200048    0.000000
    20  F     s    -2.302232    0.426223   -2.173991    0.000000
    21  F     s    -0.466666    0.123746   -0.557288    0.000000
--------------------------------------------------------------------------------


  Final Cartesian derivatives :

--------------------------------------------------------------------------------
   No.  Atomic          x             y             z           Radius
        Label       (eV/Angs)     (eV/Angs)    (eV/Angs)      (eV/Angs)
--------------------------------------------------------------------------------
      1 Al    c       0.000000      0.000000      0.000000      0.000000
      2 Al    c       0.000000      0.000000      0.000000      0.000000
      3 Al    c       0.000000      0.000000      0.000000      0.000000
      4 F     c       0.000000      0.000000      0.000000      0.000000
      5 F     c       0.000000      0.000000      0.000000      0.000000
      6 F     c       0.000000      0.000000      0.000000      0.000000
      7 F     c       0.000000      0.000000      0.000000      0.000000
      8 F     c       0.000000      0.000000      0.000000      0.000000
      9 F     c       0.000000      0.000000      0.000000      0.000000
     10 F     c       0.000000      0.000000      0.000000      0.000000
     11 F     c       0.000000      0.000000      0.000000      0.000000
     12 F     c       0.000000      0.000000      0.000000      0.000000
     13 F     s      -0.000000     -0.000000      0.000000      0.000000
     14 F     s       0.000000     -0.000000      0.000000      0.000000
     15 F     s       0.000000      0.000000      0.000000      0.000000
     16 F     s      -0.000000     -0.000000      0.000000      0.000000
     17 F     s      -0.000000      0.000000     -0.000000      0.000000
     18 F     s       0.000000     -0.000000      0.000000      0.000000
     19 F     s      -0.000000     -0.000000      0.000000      0.000000
     20 F     s       0.000000      0.000000      0.000000      0.000000
     21 F     s       0.000000      0.000000     -0.000000      0.000000
--------------------------------------------------------------------------------
  Maximum abs         0.000000      0.000000      0.000000      0.000000
--------------------------------------------------------------------------------


  Born effective charge tensors : 

-------------------------------------------------------------------------------
  Atom             x           y             z
-------------------------------------------------------------------------------
    1 Al    x       0.6584     -0.0728     -0.3663
            y      -0.0369      1.6530      0.0790
            z      -0.3596      0.0463      0.7263
-------------------------------------------------------------------------------
    2 Al    x       1.4349     -0.1016     -0.0216
            y      -0.0703      0.9423     -0.0534
            z      -0.0201      0.0059      1.4225
-------------------------------------------------------------------------------
    3 Al    x       1.4143      0.0811      0.0103
            y       0.0258      0.9999     -0.1569
            z       0.0043     -0.1943      1.3856
-------------------------------------------------------------------------------
    4 F     x      -0.3505      0.1595      0.1674
            y       0.1955     -0.3556      0.2053
            z       0.1741      0.1724     -0.3112
-------------------------------------------------------------------------------
    5 F     x      -0.2131     -0.0797      0.2542
            y      -0.1536     -0.5429     -0.1464
            z       0.2405     -0.0791     -0.3037
-------------------------------------------------------------------------------
    6 F     x      -0.3510      0.0014     -0.0122
            y       0.0391     -0.3687      0.0298
            z      -0.0053     -0.0045     -0.3429
-------------------------------------------------------------------------------
    7 F     x      -0.3078      0.0186      0.0403
            y      -0.0002     -0.2456      0.0021
            z       0.0415     -0.0078     -0.3243
-------------------------------------------------------------------------------
    8 F     x      -0.3546      0.1489     -0.1658
            y       0.1543     -0.3580     -0.1602
            z      -0.1645     -0.1534     -0.3306
-------------------------------------------------------------------------------
    9 F     x      -0.3175     -0.0871     -0.2134
            y      -0.0931     -0.4578      0.1098
            z      -0.2148      0.1036     -0.2678
-------------------------------------------------------------------------------
   10 F     x      -0.3121     -0.0260      0.0372
            y      -0.0174     -0.2580      0.0194
            z       0.0341      0.0386     -0.3075
-------------------------------------------------------------------------------
   11 F     x      -0.6427     -0.0368      0.1253
            y       0.0035     -0.5660      0.0443
            z       0.1327      0.0075     -0.6653
-------------------------------------------------------------------------------
   12 F     x      -0.6584     -0.0053      0.1444
            y      -0.0465     -0.4428      0.0271
            z       0.1368      0.0647     -0.6813
-------------------------------------------------------------------------------




  Moment of inertia tensor (10^-46 x kgm^2): 

-------------------------------------------------------------------------------
                x           y           z           Principal axis system
-------------------------------------------------------------------------------
       x        170.92        2.76       32.39          121.162678
       y          2.76      121.48       -0.17          135.939405
       z         32.39       -0.17      165.43          200.729246
-------------------------------------------------------------------------------
  Centre of mass (Ang) =    -1.484806     0.792159    -1.361201
-------------------------------------------------------------------------------


  Vibrational Frequency Calculation : 

--------------------------------------------------------------------------------

  Frequencies (cm-1) and Eigenvectors : 

  Frequency    -322.2512 -273.1506 -156.0428  -25.6548  -20.4556   -0.0000
  IR Intensity    0.0024    0.0543    0.0031    0.0016    0.0006    0.0000
     in X         0.0011    0.0242    0.0002    0.0007    0.0003    0.0000
     in Y         0.0000    0.0010    0.0030    0.0005    0.0000    0.0000
     in Z         0.0013    0.0291    0.0000    0.0004    0.0003    0.0000
  Raman Intsty    0.0000    0.0000    0.0055    0.0020    0.0000    0.0000

     1 x      -0.040046 -0.083894  0.048859  0.290554 -0.193132 -0.151455
     1 y      -0.008148 -0.017069  0.057288  0.048512 -0.039296  0.240759
     1 z       0.043943  0.092058  0.055149  0.273780  0.211929  0.161819
     2 x       0.372773  0.058703 -0.042219 -0.163273  0.097116 -0.151455
     2 y      -0.079859 -0.125053  0.002360 -0.012151  0.254023  0.240759
     2 z       0.252075 -0.238792 -0.013351 -0.135912 -0.096536  0.161819
     3 x      -0.301590  0.204303 -0.018092 -0.148481  0.129765 -0.151455
     3 y       0.094342  0.178566  0.007269 -0.009139 -0.207861  0.240759
     3 z      -0.330185 -0.049806 -0.039826 -0.152140 -0.152425  0.161819
     4 x       0.042361  0.062660  0.048902  0.423111 -0.259146 -0.127099
     4 y       0.008619  0.012749  0.017198 -0.225101 -0.052730  0.202040
     4 z      -0.046483 -0.068758  0.047754  0.343847  0.284368  0.135796
     5 x      -0.026328  0.076752  0.012843  0.282166 -0.242841 -0.127099
     5 y      -0.005357  0.015616 -0.076610  0.278413 -0.049408  0.202040
     5 z       0.028890 -0.084221 -0.002502  0.308766  0.266476  0.135796
     6 x       0.049496  0.260293  0.512819 -0.100714  0.203720 -0.127099
     6 y       0.010071  0.052961 -0.115368 -0.028301  0.041450  0.202040
     6 z      -0.054312 -0.285622  0.445951 -0.097028 -0.223545  0.135796
     7 x       0.194696 -0.153832 -0.230043 -0.049129 -0.051536 -0.127099
     7 y       0.035083  0.131535  0.011091 -0.023556 -0.233037  0.202040
     7 z       0.227753  0.110227 -0.190430 -0.040888  0.048620  0.135796
     8 x      -0.001492  0.122480 -0.008409 -0.141949  0.143906 -0.127099
     8 y       0.021356  0.022534  0.014506 -0.001303 -0.255919  0.202040
     8 z      -0.064170 -0.138053 -0.016654 -0.137773 -0.170559  0.135796
     9 x       0.066750  0.125619 -0.019825 -0.149937  0.104584 -0.127099
     9 y      -0.008079  0.027946  0.012184 -0.002931  0.306478  0.202040
     9 z      -0.007438 -0.134189 -0.004128 -0.129010 -0.102114  0.135796
    10 x      -0.237521 -0.067075 -0.213275 -0.041063 -0.084116 -0.127099
    10 y      -0.043796 -0.176481  0.014502 -0.021917  0.205436  0.202040
    10 z      -0.180761  0.132177 -0.208830 -0.049741  0.100230  0.135796
    11 x      -0.345197 -0.250046 -0.028397 -0.093322  0.063742 -0.127099
    11 y      -0.070235 -0.050876 -0.370183  0.035971  0.012970  0.202040
    11 z       0.378786  0.274378 -0.094519 -0.078375 -0.069945  0.135796
    12 x       0.220131 -0.390287 -0.060968 -0.103899  0.081472 -0.127099
    12 y       0.044789 -0.079410  0.412940 -0.043714  0.016577  0.202040
    12 z      -0.241551  0.428265  0.021007 -0.102790 -0.089401  0.135796


  Frequency      -0.0000    0.0000   54.0998   78.1667  131.9375  144.9214
  IR Intensity    0.0000    0.0000    0.0001    0.0163    0.0003    0.0085
     in X         0.0000    0.0000    0.0000    0.0005    0.0001    0.0002
     in Y         0.0000    0.0000    0.0000    0.0158    0.0000    0.0083
     in Z         0.0000    0.0000    0.0001    0.0000    0.0002    0.0000
  Raman Intsty    0.0000    0.0000    0.0000    0.0355    0.0000    0.1077

     1 x      -0.085790 -0.277111 -0.001125 -0.106793 -0.021650 -0.030201
     1 y       0.137206 -0.174065 -0.000229 -0.280784 -0.004405  0.276612
     1 z      -0.284435 -0.000384  0.001233 -0.149387  0.023757  0.023767
     2 x      -0.085790 -0.277111 -0.250079  0.159954 -0.057022 -0.024522
     2 y       0.137206 -0.174065  0.001352  0.044145  0.007342 -0.064832
     2 z      -0.284435 -0.000384 -0.235648  0.025985 -0.050178  0.077104
     3 x      -0.085790 -0.277111  0.257896  0.034882  0.056606  0.084425
     3 y       0.137206 -0.174065  0.000238  0.018699 -0.007426 -0.042665
     3 z      -0.284435 -0.000384  0.227073  0.163227  0.050635 -0.042445
     4 x      -0.071994 -0.232546  0.198287  0.087236 -0.342587  0.026688
     4 y       0.115141 -0.146072  0.040345 -0.484695 -0.069704  0.161966
     4 z      -0.238693 -0.000323 -0.217584 -0.010374  0.375923  0.054353
     5 x      -0.071994 -0.232546 -0.253386 -0.015872  0.410519 -0.022062
     5 y       0.115141 -0.146072 -0.051556  0.185820  0.083527  0.261003
     5 z      -0.238693 -0.000323  0.278041  0.019990 -0.450467  0.028291
     6 x      -0.071994 -0.232546 -0.009897 -0.114618 -0.009152 -0.158811
     6 y       0.115141 -0.146072 -0.002014  0.208023 -0.001862 -0.144731
     6 z      -0.238693 -0.000323  0.010860 -0.065882  0.010042 -0.171564
     7 x      -0.071994 -0.232546  0.260952 -0.373908 -0.021312 -0.073074
     7 y       0.115141 -0.146072  0.006517  0.017442 -0.005165 -0.020038
     7 z      -0.238693 -0.000323  0.171093 -0.000031  0.021733 -0.351516
     8 x      -0.071994 -0.232546  0.285697  0.152762  0.274888  0.320120
     8 y       0.115141 -0.146072 -0.000305 -0.091447 -0.017591  0.035350
     8 z      -0.238693 -0.000323  0.254876  0.155473  0.246770  0.259807
     9 x      -0.071994 -0.232546 -0.280390  0.185223 -0.274419  0.282513
     9 y       0.115141 -0.146072  0.001384 -0.084843  0.017687  0.027698
     9 z      -0.238693 -0.000323 -0.260697  0.119853 -0.247283  0.301075
    10 x      -0.071994 -0.232546 -0.194565 -0.044067 -0.019847 -0.347910
    10 y       0.115141 -0.146072  0.006991  0.084552 -0.003209 -0.075958
    10 z      -0.238693 -0.000323 -0.243941 -0.361967  0.023430 -0.049936
    11 x      -0.071994 -0.232546 -0.105124  0.047857 -0.120415 -0.090625
    11 y       0.115141 -0.146072 -0.021389  0.199031 -0.024500 -0.201997
    11 z      -0.238693 -0.000323  0.115354  0.080517  0.132132 -0.120044
    12 x      -0.071994 -0.232546  0.090450 -0.029527  0.128619  0.027766
    12 y       0.115141 -0.146072  0.018404  0.225822  0.026169 -0.244816
    12 z      -0.238693 -0.000323 -0.099251  0.014964 -0.141135 -0.020090


  Frequency     183.4983  189.6640  193.5845  202.5801  225.8571  231.7410
  IR Intensity    0.0026    0.0377    0.0013    0.0030    0.0475    0.0780
     in X         0.0001    0.0168    0.0006    0.0011    0.0180    0.0013
     in Y         0.0022    0.0007    0.0000    0.0014    0.0204    0.0701
     in Z         0.0003    0.0202    0.0007    0.0005    0.0091    0.0066
  Raman Intsty    0.0078    0.0000    0.0000    0.1048    0.0029    0.0729

     1 x      -0.029105 -0.001446 -0.014235 -0.227630 -0.197531  0.047087
     1 y      -0.069853 -0.000295 -0.002896  0.049036  0.141477 -0.280572
     1 z      -0.039476  0.001586  0.015619 -0.198351 -0.153782 -0.009111
     2 x       0.016177 -0.157134  0.152798  0.127969 -0.138744 -0.019267
     2 y      -0.013639  0.083198 -0.015719 -0.045750  0.067207 -0.105437
     2 z      -0.013927  0.142227  0.152712  0.102836 -0.060652 -0.198531
     3 x      -0.009370 -0.106749 -0.168806  0.122787 -0.086625 -0.177032
     3 y      -0.018836 -0.136889  0.012461 -0.046804  0.077812 -0.137538
     3 z       0.014105  0.147335 -0.135147  0.108522 -0.117841 -0.025414
     4 x       0.136472  0.224345  0.236468 -0.030923  0.196339 -0.275336
     4 y      -0.298532  0.045644  0.048112 -0.206759 -0.412456  0.190344
     4 z       0.069019 -0.246174 -0.259478 -0.066518  0.102452 -0.215627
     5 x      -0.058669  0.226968 -0.096089 -0.105291 -0.199112  0.164589
     5 y      -0.251626  0.046178 -0.019550  0.622508  0.052919  0.402550
     5 z      -0.100120 -0.249056  0.105439  0.019472 -0.171642  0.224634
     6 x      -0.012255 -0.082937 -0.024547  0.187929  0.068845  0.064495
     6 y      -0.050409 -0.016875 -0.004994 -0.029733  0.017041  0.034774
     6 z      -0.020516  0.091007  0.026937  0.165750  0.065900  0.065223
     7 x       0.000861  0.123036 -0.443536  0.105040  0.369592  0.113958
     7 y      -0.032459 -0.067965  0.018610 -0.034814  0.044531 -0.140641
     7 z      -0.011093  0.019108 -0.204133 -0.107328  0.096871  0.155903
     8 x      -0.226022  0.013968  0.287654 -0.226201  0.219195 -0.038740
     8 y       0.492698 -0.524356 -0.098950  0.027929 -0.064911  0.047542
     8 z       0.290820 -0.122202  0.190502 -0.151685  0.033310  0.288406
     9 x       0.170234  0.022884 -0.235565 -0.178039  0.068283  0.269021
     9 y       0.573315  0.531862  0.109548  0.037729 -0.095616  0.110160
     9 z      -0.143997  0.081764 -0.247659 -0.204533  0.198909 -0.049302
    10 x      -0.004865 -0.044443  0.251371 -0.087105  0.127012  0.190316
    10 y      -0.033625  0.083956 -0.057709 -0.073909 -0.004826 -0.125103
    10 z      -0.004808 -0.105350  0.415000  0.103513  0.363054  0.072113
    11 x       0.001839 -0.076947 -0.034645  0.086341 -0.207867 -0.119005
    11 y      -0.124038 -0.015657 -0.007049 -0.069167 -0.080349 -0.070697
    11 z      -0.021325  0.084435  0.038015  0.065859 -0.204332 -0.121560
    12 x       0.018976 -0.090699  0.094929  0.220691 -0.138344 -0.191492
    12 y      -0.153386 -0.018455  0.019315 -0.221928  0.202269  0.174950
    12 z      -0.011150  0.099525 -0.104167  0.159969 -0.088570 -0.142070


  Frequency     238.6368  254.1312  283.3802  291.4128  296.0101  333.2256
  IR Intensity    0.0135    0.0001    0.0252    0.0054    0.0334    0.0065
     in X         0.0060    0.0001    0.0140    0.0024    0.0184    0.0010
     in Y         0.0002    0.0000    0.0005    0.0001    0.0013    0.0039
     in Z         0.0072    0.0001    0.0107    0.0029    0.0137    0.0016
  Raman Intsty    0.0000    0.0000    1.3161    0.0000    0.6462    0.0129

     1 x       0.244052  0.011577  0.041824 -0.134234 -0.014312  0.026415
     1 y       0.049655  0.002356  0.072877 -0.027311 -0.026078 -0.108604
     1 z      -0.267800 -0.012704  0.051626  0.147297 -0.017878  0.003936
     2 x       0.022220  0.226301  0.254298  0.085441  0.064494  0.017339
     2 y      -0.280727  0.079928 -0.029724 -0.120351 -0.064564  0.133332
     2 z       0.050077  0.243750 -0.027974 -0.008291  0.263890  0.051407
     3 x      -0.102247 -0.248484  0.005848 -0.023049  0.276663  0.027976
     3 y       0.264444 -0.084441 -0.080278  0.133045 -0.021394  0.135496
     3 z       0.037736 -0.219409  0.244654 -0.060172  0.031074  0.039736
     4 x      -0.263447 -0.014596  0.058823  0.073287 -0.027525 -0.048824
     4 y      -0.053601 -0.002970  0.057057  0.014912 -0.006037 -0.009467
     4 z       0.289081  0.016017  0.064187 -0.080417 -0.026203 -0.046250
     5 x      -0.207056 -0.008731  0.012848  0.095111  0.012847  0.062837
     5 y      -0.042128 -0.001776 -0.134727  0.019351  0.109707  0.027608
     5 z       0.227206  0.009580 -0.013272 -0.104367  0.032050  0.062384
     6 x      -0.150098  0.093896 -0.218906 -0.131514 -0.298467 -0.067394
     6 y      -0.030539  0.019104  0.515830 -0.026755 -0.366698  0.218873
     6 z       0.164704 -0.103033 -0.103849  0.144311 -0.339992 -0.020833
     7 x       0.074496  0.258319  0.161035 -0.117714  0.031351 -0.151988
     7 y       0.279187 -0.099330 -0.112838  0.104230 -0.000133  0.161269
     7 z      -0.088323 -0.025287 -0.236828  0.472027  0.086344  0.277958
     8 x       0.193851  0.152725 -0.200535  0.130006 -0.021129  0.059184
     8 y      -0.212815  0.033668 -0.129599 -0.011725  0.127618  0.010433
     8 z      -0.140106  0.275922  0.056276 -0.079022 -0.153239 -0.092794
     9 x       0.077174 -0.280267  0.056563  0.060897 -0.175205 -0.086112
     9 y       0.267961 -0.059618 -0.077290  0.050566  0.096270 -0.019130
     9 z      -0.157293 -0.135969 -0.225840 -0.130457  0.015829  0.066641
    10 x       0.128774 -0.021526 -0.193404 -0.429579  0.087838  0.225819
    10 y      -0.237830  0.147509 -0.184952 -0.215588  0.011359  0.238139
    10 z      -0.134726 -0.234547  0.152105  0.128522  0.024359 -0.136614
    11 x       0.021731  0.198823 -0.140486  0.365151  0.123974 -0.265684
    11 y       0.004421  0.040454 -0.177985  0.074296 -0.334702 -0.535494
    11 z      -0.023845 -0.218170 -0.161026 -0.400685  0.050918 -0.341417
    12 x      -0.070884 -0.366005  0.104225  0.039966 -0.123165  0.186685
    12 y      -0.014422 -0.074470  0.288743  0.008133  0.496123 -0.283160
    12 z       0.077781  0.401621  0.148523 -0.043853 -0.020251  0.117625


  Frequency     375.8185  455.7893  459.8918  461.8867  521.5750  621.9052
  IR Intensity    0.0173    0.0669    0.0622    0.0032    0.0002    0.1027
     in X         0.0004    0.0367    0.0345    0.0014    0.0000    0.0457
     in Y         0.0169    0.0000    0.0007    0.0001    0.0002    0.0019
     in Z         0.0000    0.0302    0.0270    0.0017    0.0000    0.0550
  Raman Intsty    0.4337    4.0083    4.1756    0.0000    0.0755    0.0000

     1 x      -0.050530 -0.024061  0.037974  0.194581 -0.037079  0.438171
     1 y       0.195126  0.142225 -0.142979  0.039589  0.150535  0.089154
     1 z      -0.009869  0.004446  0.008101 -0.213514 -0.005879 -0.480809
     2 x       0.132261  0.270502  0.171208 -0.073441 -0.044365  0.075785
     2 y       0.066480 -0.063498  0.055420  0.041477 -0.196976  0.346231
     2 z      -0.141931  0.159941  0.231906  0.071185  0.059147 -0.052218
     3 x      -0.136304  0.197398  0.235328 -0.054019  0.088654  0.105495
     3 y       0.011837 -0.078372  0.068467 -0.067412 -0.169912 -0.309346
     3 z       0.152768  0.240159  0.161546  0.068693 -0.086815 -0.146701
     4 x       0.094800  0.106645 -0.089300 -0.023000  0.200599 -0.019332
     4 y       0.048095  0.115211 -0.076030 -0.004680  0.242490 -0.003935
     4 z       0.095311  0.118551 -0.095479  0.025236  0.227773  0.021211
     5 x      -0.106993 -0.099072  0.137948 -0.018561 -0.282589 -0.018099
     5 y       0.058140  0.007867 -0.073221 -0.003778  0.139513 -0.003683
     5 z      -0.086724 -0.088828  0.112137  0.020370 -0.231660  0.019862
     6 x      -0.029078  0.085809  0.083981  0.403260  0.007786 -0.166962
     6 y       0.058877 -0.341650  0.250474  0.082051  0.318960 -0.033971
     6 z      -0.015582  0.014854  0.122988 -0.442497  0.066238  0.183208
     7 x      -0.023714 -0.091557  0.081450 -0.083771 -0.153024 -0.154746
     7 y       0.178412  0.073658 -0.042591  0.266722 -0.361181 -0.106337
     7 z       0.086916  0.124273 -0.155610  0.150261  0.226877  0.244002
     8 x      -0.135545 -0.192742  0.112609 -0.220417  0.079437  0.030190
     8 y      -0.193286 -0.137861  0.145128 -0.188868  0.118551  0.059433
     8 z       0.140099  0.115391 -0.200145  0.236142 -0.085547 -0.030724
     9 x       0.157134  0.116691 -0.209595 -0.240927 -0.096409  0.037498
     9 y      -0.133736 -0.074904  0.079567  0.095003  0.082772 -0.045661
     9 z      -0.181061 -0.224152  0.153411  0.270093  0.107410 -0.043551
    10 x       0.050023  0.098101 -0.135460 -0.089366  0.270462 -0.240827
    10 y       0.193415  0.112249 -0.086717 -0.301950 -0.275015  0.025851
    10 z       0.006004 -0.083839  0.082408  0.039722 -0.237817  0.190064
    11 x       0.380728 -0.413453 -0.063276  0.088908  0.035355 -0.106976
    11 y      -0.376398  0.283627  0.028528  0.018092 -0.010002 -0.021766
    11 z       0.277173 -0.324197 -0.052373 -0.097565  0.030366  0.117386
    12 x      -0.322323 -0.139318 -0.448051  0.103891 -0.070210 -0.098906
    12 y      -0.159364 -0.038619 -0.202388  0.021137  0.001726 -0.020124
    12 z      -0.323289 -0.134123 -0.445843 -0.114014 -0.063664  0.108530


  Frequency     683.8289  690.9606  704.4046  740.0506  790.6886  813.6439
  IR Intensity    0.0122    0.0000    0.1126    0.0784    0.0042    0.0018
     in X         0.0054    0.0000    0.0010    0.0349    0.0014    0.0001
     in Y         0.0002    0.0000    0.1105    0.0014    0.0012    0.0017
     in Z         0.0066    0.0000    0.0010    0.0420    0.0016    0.0000
  Raman Intsty    0.0000    0.0286    0.0529    0.0000    0.1070    3.5702

     1 x       0.202194  0.090637 -0.072316  0.050774 -0.523175  0.080523
     1 y       0.041145 -0.504106  0.434379  0.010331 -0.027324  0.216083
     1 z      -0.221870 -0.010878  0.014645 -0.055715 -0.481846  0.113449
     2 x      -0.190503  0.142221  0.064792  0.283209  0.062787  0.360940
     2 y      -0.345186  0.367910  0.363092 -0.252641 -0.036592 -0.170244
     2 z       0.171320 -0.144465 -0.033880 -0.334607 -0.095916 -0.404865
     3 x      -0.209167 -0.192319 -0.091827  0.250280 -0.080248 -0.325382
     3 y       0.263868  0.299844  0.331223  0.361188 -0.065695 -0.309888
     3 z       0.267242  0.222629  0.137979 -0.250796  0.061037  0.348243
     4 x       0.004520  0.183910 -0.144034 -0.005711  0.230009 -0.080660
     4 y       0.000917  0.253052 -0.184785 -0.001162  0.255494 -0.100902
     4 z      -0.004964  0.214523 -0.165525  0.006267  0.256987 -0.092217
     5 x       0.005835 -0.236167  0.167999 -0.004130  0.376046 -0.034812
     5 y       0.001185  0.112697 -0.085261 -0.000840 -0.163133  0.005272
     5 z      -0.006397 -0.194328  0.137292  0.004532  0.312450 -0.030747
     6 x       0.201552 -0.001446 -0.002601 -0.112373  0.009954 -0.002274
     6 y       0.041009 -0.230433 -0.155171 -0.022864 -0.031813 -0.113916
     6 z      -0.221164 -0.044047 -0.031140  0.123308  0.003173 -0.023195
     7 x      -0.066461  0.057405 -0.066668 -0.016089 -0.003920 -0.017487
     7 y      -0.431188 -0.131864 -0.410596 -0.231713  0.004608  0.079383
     7 z       0.089010 -0.097870  0.088454  0.010233  0.015603  0.032558
     8 x       0.090622  0.056809 -0.021515 -0.234656  0.044781  0.189647
     8 y       0.075596  0.026501 -0.049045 -0.235835  0.045431  0.190541
     8 z      -0.097661 -0.060299  0.019981  0.248916 -0.045171 -0.201418
     9 x       0.099242 -0.057524  0.026063 -0.260363 -0.047485 -0.210652
     9 y      -0.036966  0.003238 -0.039363  0.135116  0.026658  0.109094
     9 z      -0.110679  0.065159 -0.032227  0.294272  0.056073  0.237834
    10 x      -0.157866 -0.065483  0.153574 -0.050234  0.013986  0.015523
    10 y       0.385542 -0.156863 -0.365790  0.218219  0.008251  0.086099
    10 z       0.157146  0.036976 -0.153219  0.062544 -0.004045 -0.003665
    11 x       0.025437 -0.009961  0.003284  0.000004  0.006450 -0.031444
    11 y       0.005176 -0.040644 -0.031115  0.000001 -0.001916  0.032493
    11 z      -0.027912 -0.016614 -0.002777 -0.000004  0.005523 -0.022631
    12 x       0.032440  0.024151  0.002289 -0.012678  0.014420  0.033835
    12 y       0.006600 -0.030692 -0.023868 -0.002579  0.010870  0.026588
    12 z      -0.035597  0.016319 -0.002339  0.013912  0.015157  0.035764




--------------------------------------------------------------------------------
  Vibrational properties (for cluster):  Temperature  =       0.000 K
--------------------------------------------------------------------------------
  Zero point energy            =        0.660424 eV
--------------------------------------------------------------------------------

  Phonon density of states : 

--------------------------------------------------------------------------------
 Frequency (cm-1) Density of States                                             
--------------------------------------------------------------------------------
    0.00000 |******************************                                0.034
   12.71319 |                                                              0.000
   25.42637 |                                                              0.000
   38.13956 |                                                              0.000
   50.85275 |******************************                                0.034
   63.56594 |                                                              0.000
   76.27912 |******************************                                0.034
   88.99231 |                                                              0.000
  101.70550 |                                                              0.000
  114.41869 |                                                              0.000
  127.13187 |******************************                                0.034
  139.84506 |******************************                                0.034
  152.55825 |                                                              0.000
  165.27143 |                                                              0.000
  177.98462 |************************************************************  0.069
  190.69781 |************************************************************  0.069
  203.41100 |                                                              0.000
  216.12418 |******************************                                0.034
  228.83737 |************************************************************  0.069
  241.55056 |******************************                                0.034
  254.26375 |                                                              0.000
  266.97693 |                                                              0.000
  279.69012 |************************************************************  0.069
  292.40331 |******************************                                0.034
  305.11649 |                                                              0.000
  317.82968 |                                                              0.000
  330.54287 |******************************                                0.034
  343.25606 |                                                              0.000
  355.96924 |                                                              0.000
  368.68243 |******************************                                0.034
  381.39562 |                                                              0.000
  394.10880 |                                                              0.000
  406.82199 |                                                              0.000
  419.53518 |                                                              0.000
  432.24837 |                                                              0.000
  444.96155 |******************************                                0.034
  457.67474 |************************************************************  0.069
  470.38793 |                                                              0.000
  483.10112 |                                                              0.000
  495.81430 |                                                              0.000
  508.52749 |                                                              0.000
  521.24068 |******************************                                0.034
  533.95386 |                                                              0.000
  546.66705 |                                                              0.000
  559.38024 |                                                              0.000
  572.09343 |                                                              0.000
  584.80661 |                                                              0.000
  597.51980 |                                                              0.000
  610.23299 |******************************                                0.034
  622.94618 |                                                              0.000
  635.65936 |                                                              0.000
  648.37255 |                                                              0.000
  661.08574 |                                                              0.000
  673.79892 |******************************                                0.034
  686.51211 |******************************                                0.034
  699.22530 |******************************                                0.034
  711.93849 |                                                              0.000
  724.65167 |                                                              0.000
  737.36486 |******************************                                0.034
  750.07805 |                                                              0.000
  762.79124 |                                                              0.000
  775.50442 |                                                              0.000
  788.21761 |******************************                                0.034
  800.93080 |******************************                                0.034
--------------------------------------------------------------------------------



  Time to end of optimisation =       0.0352 seconds


  Peak dynamic memory used =       0.65 MB 


  Timing analysis for GULP :

--------------------------------------------------------------------------------
  Task / Subroutine                                          Time (Seconds)
--------------------------------------------------------------------------------
  Calculation of real space energy and derivatives                0.0022
  Calculation of phonons                                          0.0017
  Calculation and manipulation of Hessian matrix                  0.0013
--------------------------------------------------------------------------------
  Total CPU time                                                  0.0352
--------------------------------------------------------------------------------


  Job Finished at 14:40.09 25th May        2022                               

