********************************************************************************
*                       GENERAL UTILITY LATTICE PROGRAM                        *
*                                 Julian Gale                                  *
*                       Curtin Institute for Computation                       *
*                           Department of Chemistry                            *
*                    Curtin University, Western Australia                      *
********************************************************************************
* Version = 5.1.1 * Last modified =  24th November 2018                        *
********************************************************************************
*  optimise     - perform optimisation run                                     *
*  conp         - constant pressure calculation                                *
*  shell        - only shells and radii to be optimised                        *
*  phonon       - calculate phonons for final geometry                         *
*  eigenvectors - output phonon eigenvectors                                   *
********************************************************************************

  Job Started  at 14:40.14 25th May        2022                               

  Number of CPUs =     1

  Host name      = login03                                 


  Total number of configurations input =      1

********************************************************************************
*  Input for Configuration =   1                                               *
********************************************************************************

  Formula = Al3F9                                                       

  Number of irreducible atoms/shells =      21


  Total number atoms/shells =      21

  Dimensionality = 0               :  Cluster


  Charge on cluster =  -0.000000


  Initial cluster dipoles : x =      0.000002 e.Angs
                            y =     -0.000000 e.Angs
                            z =      0.000001 e.Angs

  Temperature of configuration =  0.000     K 

  Symmetry number =      1

  Cartesian coordinates of cluster :

--------------------------------------------------------------------------------
   No.  Atomic       x           y          z         Charge      Occupancy
        Label      (Angs)      (Angs)     (Angs)        (e)         (Frac)  
--------------------------------------------------------------------------------
      1 Al    c      0.1889     -2.3509     -1.6349     3.00000    1.000000    
      2 Al    c      2.0758     -0.5286     -0.8974     3.00000    1.000000    
      3 Al    c     -0.2896      0.3196     -1.9043     3.00000    1.000000    
      4 F     c      3.6994     -0.1576     -0.1943     0.59000    1.000000    
      5 F     c     -0.3236     -4.0736     -1.8819     0.59000    1.000000    
      6 F     c      2.0352     -1.9539     -2.2370     0.59000    1.000000    
      7 F     c      1.5675      0.5404     -2.4448     0.59000    1.000000    
      8 F     c     -1.4008      1.6713     -2.3605     0.59000    1.000000    
      9 F     c     -1.1448     -1.1509     -0.8957     0.59000    1.000000    
     10 F     c     -0.1791     -1.1598     -3.1775     0.59000    1.000000    
     11 F     c      0.6018      0.5493     -0.1630     0.59000    1.000000    
     12 F     c      1.0695     -1.9450      0.0448     0.59000    1.000000    
     13 F     s      3.6994 *   -0.1576 *   -0.1943 *  -1.59000    1.000000    
     14 F     s     -0.3236 *   -4.0736 *   -1.8819 *  -1.59000    1.000000    
     15 F     s      2.0352 *   -1.9539 *   -2.2370 *  -1.59000    1.000000    
     16 F     s      1.5675 *    0.5404 *   -2.4448 *  -1.59000    1.000000    
     17 F     s     -1.4008 *    1.6713 *   -2.3605 *  -1.59000    1.000000    
     18 F     s     -1.1448 *   -1.1509 *   -0.8957 *  -1.59000    1.000000    
     19 F     s     -0.1791 *   -1.1598 *   -3.1775 *  -1.59000    1.000000    
     20 F     s      0.6018 *    0.5493 *   -0.1630 *  -1.59000    1.000000    
     21 F     s      1.0695 *   -1.9450 *    0.0448 *  -1.59000    1.000000    
--------------------------------------------------------------------------------


  Brillouin zone sampling points :

--------------------------------------------------------------------------------
  Point number          x          y          z            Weight
--------------------------------------------------------------------------------
        1           0.000000   0.000000   0.000000     1.00000000
--------------------------------------------------------------------------------


********************************************************************************
*  General input information                                                   *
********************************************************************************

  Species output for all configurations : 

--------------------------------------------------------------------------------
  Species    Type    Atomic    Atomic    Charge       Radii (Angs)     Library
                     Number     Mass       (e)     Cova   Ionic  VDW   Symbol
--------------------------------------------------------------------------------
    Al       Core       13      26.98   3.000000   1.350  0.000  2.050          
    F        Core        9      19.00   0.590000   0.710  0.000  1.300          
    F        Shell       9       0.00  -1.590000   0.710  0.000  1.300          
--------------------------------------------------------------------------------


  Accuracy factor for short range sums = 12.000

  Time limit = Infinity

  Maximum range for interatomic potentials =    100000.000000 Angstroms

  General interatomic potentials :

--------------------------------------------------------------------------------
Atom  Types   Potential      Parameter       Value         Units   Cutoffs(Ang)
  1     2                                                            Min /  Max 
--------------------------------------------------------------------------------
Al   c F    s Buckingham    Buckingham A     3760.0008    eV        0.000 10.000
                            Buckingham rho  0.22200000    Ang       
                            Buckingham C     0.0000000    eV*Ang^6  
--------------------------------------------------------------------------------
F    s F    s Buck 4 range  Buck4 A          1127.7000    eV        0.000 12.000
                            Buck4 rho       0.27530000    Ang       
                            Buck4 C          15.830000    eV*Ang^6  
                            Buck4 minimum    2.7900000    Ang       
--------------------------------------------------------------------------------
F    c F    s Spring (c-s)  Spring k 2       20.770000    eV*Ang^-2 0.000  0.800
                            Spring k 4       0.0000000    eV*Ang^-4 
--------------------------------------------------------------------------------

********************************************************************************
*  Output for configuration   1                                                *
********************************************************************************


  Components of energy : 

--------------------------------------------------------------------------------
  Interatomic potentials     =           9.93146943 eV    
  Monopole - monopole (real) =        -176.39055799 eV    
--------------------------------------------------------------------------------
  Total lattice energy       =        -166.45908856 eV    
--------------------------------------------------------------------------------
  Total lattice energy       =          -16060.7575 kJ/mol
--------------------------------------------------------------------------------


  Number of variables =       27

  Maximum number of calculations  =          2000
  Maximum Hessian update interval =            10
  Maximum step size               =   1.000000000
  Maximum parameter tolerance     =   0.000001000
  Maximum function  tolerance     =   0.000010000
  Maximum gradient  tolerance     =   0.000000010
  Maximum gradient  component     =   0.010000000

  Symmetry not applied to optimisation

  Newton-Raphson optimiser to be used

  BFGS hessian update to be used

  Lower half triangular hessian to be used

  Minimiser to switch to RFO
  When gradient norm is less than     0.010000

  Shell only optimisation

  Start of cluster optimisation :

  Cycle:      0 Energy:      -166.459089  Gnorm:      1.549220  CPU:    0.004
  ** Hessian calculated **
  Cycle:      1 Energy:      -184.143938  Gnorm:      0.649961  CPU:    0.005
  ** Hessian calculated **
  Cycle:      2 Energy:      -185.751145  Gnorm:      0.030354  CPU:    0.007
  Cycle:      3 Energy:      -185.756220  Gnorm:      0.002790  CPU:    0.009
  ** Hessian has required structure
  Cycle:      4 Energy:      -185.756260  Gnorm:      0.000578  CPU:    0.010
  ** Hessian has required structure
  Cycle:      5 Energy:      -185.756263  Gnorm:      0.000355  CPU:    0.012
  ** Hessian has required structure
  Cycle:      6 Energy:      -185.756264  Gnorm:      0.000171  CPU:    0.013
  ** Hessian has required structure
  Cycle:      7 Energy:      -185.756264  Gnorm:      0.000108  CPU:    0.014
  ** Hessian has required structure
  Cycle:      8 Energy:      -185.756264  Gnorm:      0.000047  CPU:    0.015
  ** Hessian has required structure
  Cycle:      9 Energy:      -185.756264  Gnorm:      0.000026  CPU:    0.017
  ** Hessian has required structure
  Cycle:     10 Energy:      -185.756264  Gnorm:      0.000021  CPU:    0.018
  ** Hessian has required structure
  Cycle:     11 Energy:      -185.756264  Gnorm:      0.000010  CPU:    0.019
  ** Hessian has required structure
  Cycle:     12 Energy:      -185.756264  Gnorm:      0.000000  CPU:    0.021
  ** Hessian has required structure

  XYZ File written as 006/0/sp_mod_-70/sp_mod_-70_eig.xyz



  **** Optimisation achieved ****


  Final energy =    -185.75626403 eV
  Final Gnorm  =       0.00000000

  Components of energy : 

--------------------------------------------------------------------------------
  Interatomic potentials     =          37.13019356 eV    
  Monopole - monopole (real) =        -222.88645759 eV    
--------------------------------------------------------------------------------
  Total lattice energy       =        -185.75626403 eV    
--------------------------------------------------------------------------------
  Total lattice energy       =          -17922.6399 kJ/mol
--------------------------------------------------------------------------------

  Final cartesian coordinates of atoms :

--------------------------------------------------------------------------------
   No.  Atomic        x           y          z          Radius
        Label       (Angs)      (Angs)     (Angs)       (Angs) 
--------------------------------------------------------------------------------
     1  Al    c     0.188875   -2.350940   -1.634919    0.000000
     2  Al    c     2.075764   -0.528577   -0.897378    0.000000
     3  Al    c    -0.289590    0.319639   -1.904338    0.000000
     4  F     c     3.699395   -0.157646   -0.194263    0.000000
     5  F     c    -0.323579   -4.073579   -1.881863    0.000000
     6  F     c     2.035182   -1.953865   -2.237027    0.000000
     7  F     c     1.567502    0.540396   -2.444840    0.000000
     8  F     c    -1.400767    1.671347   -2.360510    0.000000
     9  F     c    -1.144805   -1.150864   -0.895693    0.000000
    10  F     c    -0.179143   -1.159776   -3.177541    0.000000
    11  F     c     0.601840    0.549307   -0.162992    0.000000
    12  F     c     1.069520   -1.944954    0.044822    0.000000
    13  F     s     3.444647   -0.216200   -0.305375    0.000000
    14  F     s    -0.242665   -3.799603   -1.841230    0.000000
    15  F     s     1.867675   -1.853424   -2.045468    0.000000
    16  F     s     1.440374    0.422201   -2.245545    0.000000
    17  F     s    -1.225945    1.458557   -2.289595    0.000000
    18  F     s    -0.939548   -1.131538   -1.064608    0.000000
    19  F     s    -0.160124   -1.126008   -2.907284    0.000000
    20  F     s     0.660156    0.424874   -0.404493    0.000000
    21  F     s     1.081434   -1.856058   -0.205796    0.000000
--------------------------------------------------------------------------------


  Final Cartesian derivatives :

--------------------------------------------------------------------------------
   No.  Atomic          x             y             z           Radius
        Label       (eV/Angs)     (eV/Angs)    (eV/Angs)      (eV/Angs)
--------------------------------------------------------------------------------
      1 Al    c       0.000000      0.000000      0.000000      0.000000
      2 Al    c       0.000000      0.000000      0.000000      0.000000
      3 Al    c       0.000000      0.000000      0.000000      0.000000
      4 F     c       0.000000      0.000000      0.000000      0.000000
      5 F     c       0.000000      0.000000      0.000000      0.000000
      6 F     c       0.000000      0.000000      0.000000      0.000000
      7 F     c       0.000000      0.000000      0.000000      0.000000
      8 F     c       0.000000      0.000000      0.000000      0.000000
      9 F     c       0.000000      0.000000      0.000000      0.000000
     10 F     c       0.000000      0.000000      0.000000      0.000000
     11 F     c       0.000000      0.000000      0.000000      0.000000
     12 F     c       0.000000      0.000000      0.000000      0.000000
     13 F     s       0.000000      0.000000     -0.000000      0.000000
     14 F     s      -0.000000      0.000000      0.000000      0.000000
     15 F     s       0.000000     -0.000000      0.000000      0.000000
     16 F     s       0.000000      0.000000      0.000000      0.000000
     17 F     s      -0.000000     -0.000000      0.000000      0.000000
     18 F     s      -0.000000     -0.000000     -0.000000      0.000000
     19 F     s       0.000000      0.000000      0.000000      0.000000
     20 F     s      -0.000000      0.000000     -0.000000      0.000000
     21 F     s      -0.000000      0.000000     -0.000000      0.000000
--------------------------------------------------------------------------------
  Maximum abs         0.000000      0.000000      0.000000      0.000000
--------------------------------------------------------------------------------


  Born effective charge tensors : 

-------------------------------------------------------------------------------
  Atom             x           y             z
-------------------------------------------------------------------------------
    1 Al    x       1.2848     -0.1218      0.0102
            y      -0.1246      0.8633     -0.1096
            z       0.0074     -0.1167      1.2207
-------------------------------------------------------------------------------
    2 Al    x       0.9055     -0.0708     -0.1562
            y      -0.0663      1.3136     -0.0624
            z      -0.1623     -0.0577      1.1524
-------------------------------------------------------------------------------
    3 Al    x       1.1031      0.2528     -0.0538
            y       0.2507      1.0587      0.0651
            z      -0.0451      0.0666      1.2096
-------------------------------------------------------------------------------
    4 F     x      -0.0395      0.1144      0.2138
            y       0.1148     -0.5204      0.0504
            z       0.2137      0.0511     -0.4418
-------------------------------------------------------------------------------
    5 F     x      -0.4937      0.1663      0.0184
            y       0.1664      0.0128      0.0794
            z       0.0185      0.0796     -0.5221
-------------------------------------------------------------------------------
    6 F     x      -0.4737     -0.0294     -0.0155
            y      -0.0304     -0.4026      0.0034
            z       0.0002     -0.0311     -0.3390
-------------------------------------------------------------------------------
    7 F     x      -0.4011     -0.0022     -0.0317
            y       0.0131     -0.3789      0.0029
            z      -0.0187      0.0378     -0.3416
-------------------------------------------------------------------------------
    8 F     x      -0.3090     -0.2875      0.0930
            y      -0.2873     -0.1975     -0.1178
            z       0.0935     -0.1172     -0.4952
-------------------------------------------------------------------------------
    9 F     x      -0.3836     -0.0367     -0.0177
            y      -0.0239     -0.4554      0.0348
            z       0.0233      0.0351     -0.3409
-------------------------------------------------------------------------------
   10 F     x      -0.3736      0.0336     -0.0278
            y       0.0154     -0.4536      0.0451
            z      -0.0604      0.0356     -0.3890
-------------------------------------------------------------------------------
   11 F     x      -0.4281      0.0301     -0.0411
            y       0.0194     -0.4017     -0.0035
            z      -0.0496     -0.0272     -0.3676
-------------------------------------------------------------------------------
   12 F     x      -0.3912     -0.0488      0.0083
            y      -0.0474     -0.4382      0.0123
            z      -0.0205      0.0440     -0.3456
-------------------------------------------------------------------------------




  Moment of inertia tensor (10^-46 x kgm^2): 

-------------------------------------------------------------------------------
                x           y           z           Principal axis system
-------------------------------------------------------------------------------
       x        129.86       -0.53      -21.98          119.440623
       y         -0.53      119.54        0.40          120.697859
       z        -21.98        0.40      172.75          182.016232
-------------------------------------------------------------------------------
  Centre of mass (Ang) =     0.658350    -0.853293    -1.478879
-------------------------------------------------------------------------------


  Vibrational Frequency Calculation : 

--------------------------------------------------------------------------------

  Frequencies (cm-1) and Eigenvectors : 

  Frequency      -0.0000    0.0000    0.0000   26.0830   26.6491   34.1952
  IR Intensity    0.0000    0.0000    0.0000    0.0000    0.0000    0.0000
     in X         0.0000    0.0000    0.0000    0.0000    0.0000    0.0000
     in Y         0.0000    0.0000    0.0000    0.0000    0.0000    0.0000
     in Z         0.0000    0.0000    0.0000    0.0000    0.0000    0.0000
  Raman Intsty    0.0000    0.0000    0.0000    0.0000    0.0000    0.0000

     1 x      -0.209440  0.241550  0.069836 -0.199594  0.070360 -0.112624
     1 y       0.060049 -0.040209  0.319165  0.071164 -0.026429  0.005936
     1 z      -0.244168 -0.217084  0.018590 -0.080463  0.040697  0.271205
     2 x      -0.209440  0.241550  0.069836  0.073619  0.083274  0.051814
     2 y       0.060049 -0.040209  0.319165 -0.221375  0.079742 -0.001615
     2 z      -0.244168 -0.217084  0.018590 -0.062372 -0.242983 -0.124534
     3 x      -0.209440  0.241550  0.069836  0.120982 -0.153947  0.058890
     3 y       0.060049 -0.040209  0.319165  0.152394 -0.053294 -0.002888
     3 z      -0.244168 -0.217084  0.018590  0.140985  0.202773 -0.140602
     4 x      -0.175759  0.202705  0.058605  0.145597  0.152807  0.105189
     4 y       0.050392 -0.033743  0.267837 -0.417369  0.155880  0.001298
     4 z      -0.204901 -0.182173  0.015600 -0.123856 -0.442483 -0.248500
     5 x      -0.175759  0.202705  0.058605 -0.364754  0.126051 -0.217080
     5 y       0.050392 -0.033743  0.267837  0.129761 -0.047584  0.000540
     5 z      -0.204901 -0.182173  0.015600 -0.146746  0.072365  0.514310
     6 x      -0.175759  0.202705  0.058605 -0.161086 -0.035439 -0.098098
     6 y       0.050392 -0.033743  0.267837 -0.095374  0.083791 -0.186793
     6 z      -0.204901 -0.182173  0.015600 -0.142075 -0.214574  0.094775
     7 x      -0.175759  0.202705  0.058605  0.096744 -0.222289  0.037296
     7 y       0.050392 -0.033743  0.267837 -0.037492  0.074525 -0.197271
     7 z      -0.204901 -0.182173  0.015600  0.037575 -0.102390 -0.236541
     8 x      -0.175759  0.202705  0.058605  0.227523 -0.284026  0.118324
     8 y       0.050392 -0.033743  0.267837  0.283941 -0.105716 -0.000294
     8 z      -0.204901 -0.182173  0.015600  0.273575  0.366355 -0.279333
     9 x      -0.175759  0.202705  0.058605  0.005665  0.088232  0.009949
     9 y       0.050392 -0.033743  0.267837  0.159283 -0.117322  0.189023
     9 z      -0.204901 -0.182173  0.015600  0.080995  0.249690  0.121892
    10 x      -0.175759  0.202705  0.058605 -0.128300 -0.209952 -0.095111
    10 y       0.050392 -0.033743  0.267837  0.192974 -0.009780 -0.186731
    10 z      -0.204901 -0.182173  0.015600  0.022878  0.118864  0.081383
    11 x      -0.175759  0.202705  0.058605  0.215957  0.110622  0.139395
    11 y       0.050392 -0.033743  0.267837 -0.073693 -0.032998  0.187589
    11 z      -0.204901 -0.182173  0.015600  0.088299  0.039314 -0.189191
    12 x      -0.175759  0.202705  0.058605 -0.031396  0.274367  0.002425
    12 y       0.050392 -0.033743  0.267837 -0.144632 -0.000819  0.190931
    12 z      -0.204901 -0.182173  0.015600 -0.088440 -0.087721  0.133972


  Frequency     117.4438  118.9255  126.4510  127.8492  133.5931  139.3824
  IR Intensity    0.0001    0.0002    0.0155    0.0139    0.0401    0.0010
     in X         0.0000    0.0001    0.0011    0.0109    0.0061    0.0008
     in Y         0.0001    0.0000    0.0143    0.0010    0.0000    0.0001
     in Z         0.0000    0.0000    0.0001    0.0020    0.0340    0.0001
  Raman Intsty    0.0256    0.0000    0.0000    0.0000    0.0005    0.0000

     1 x      -0.129463  0.042002  0.019837 -0.044062  0.022396  0.051346
     1 y      -0.020867 -0.008810  0.088263  0.011868 -0.000585 -0.017753
     1 z       0.293970 -0.012229  0.023690 -0.020424 -0.055851  0.010224
     2 x       0.046035 -0.128400  0.030686 -0.082446  0.070570 -0.132933
     2 y      -0.000240  0.030851  0.069093  0.021189  0.001349  0.022661
     2 z      -0.126224  0.236629  0.002266 -0.030465 -0.166713  0.337158
     3 x       0.071063  0.057817  0.012740 -0.076221  0.066749  0.134504
     3 y      -0.002949 -0.007653  0.074271  0.029397  0.002133 -0.024998
     3 z      -0.169690 -0.237719 -0.005057 -0.035306 -0.151895 -0.333529
     4 x       0.016768 -0.068054  0.175575  0.043945 -0.216276  0.184471
     4 y       0.088739 -0.094999 -0.642041 -0.352998 -0.000974  0.054072
     4 z      -0.103019  0.168712  0.029723 -0.101173  0.497457 -0.416968
     5 x      -0.064723  0.143907  0.016868  0.632792 -0.168121 -0.133113
     5 y      -0.022793 -0.047085  0.067636 -0.229394 -0.007741  0.043633
     5 z       0.186816  0.041741  0.095252  0.261199  0.391809 -0.034389
     6 x      -0.181989 -0.267398 -0.013068 -0.072648  0.030429 -0.055012
     6 y       0.175464  0.311447  0.132480 -0.011853  0.007414  0.040160
     6 z      -0.096495 -0.169642 -0.036477 -0.001070 -0.150850  0.227397
     7 x       0.124148  0.017489  0.042753 -0.043056  0.075987  0.145330
     7 y       0.454036 -0.050980  0.228706  0.001113 -0.014380 -0.054696
     7 z       0.104710  0.001285  0.083023 -0.022921 -0.197926  0.063579
     8 x       0.129184  0.095258 -0.451675  0.186658 -0.203239 -0.201538
     8 y       0.073451  0.056889 -0.387845  0.315692 -0.003953 -0.043906
     8 z      -0.086650 -0.129047 -0.219947  0.207464  0.486910  0.421555
     9 x      -0.204526  0.368264  0.014337 -0.177868  0.022631  0.119301
     9 y      -0.045752  0.069874  0.072314 -0.043330  0.015419  0.041064
     9 z      -0.107096  0.204543 -0.002206 -0.157297 -0.146527 -0.211820
    10 x       0.171958 -0.461064  0.107127 -0.045298  0.085178  0.099424
    10 y       0.012565 -0.066164  0.092096  0.041343 -0.007960 -0.050952
    10 z       0.061881 -0.137412  0.009186 -0.044984 -0.118899 -0.222311
    11 x      -0.178476 -0.051497  0.019042 -0.105485  0.088373 -0.126061
    11 y      -0.485943  0.071509  0.078311  0.038883  0.013274  0.046924
    11 z      -0.018198 -0.028996  0.009328 -0.046681 -0.190996 -0.051767
    12 x       0.202390  0.257154  0.013655 -0.177461  0.094716 -0.095860
    12 y      -0.221100 -0.267637  0.082329  0.166120 -0.004552 -0.052358
    12 z       0.060367  0.064687  0.007213  0.008175 -0.124759  0.208216


  Frequency     142.8611  175.4988  201.1748  245.2601  246.7206  273.3250
  IR Intensity    0.0011    0.0000    0.0025    0.0254    0.0258    0.0108
     in X         0.0000    0.0000    0.0019    0.0198    0.0015    0.0017
     in Y         0.0003    0.0000    0.0002    0.0020    0.0237    0.0000
     in Z         0.0008    0.0000    0.0004    0.0036    0.0005    0.0090
  Raman Intsty    0.0135    0.0000    0.0000    0.0000    0.0002    0.0000

     1 x       0.167711  0.273880 -0.063402  0.014457 -0.087144 -0.051827
     1 y      -0.006174 -0.098665  0.023309 -0.016819 -0.286237 -0.012961
     1 z      -0.402518  0.117746 -0.024582  0.006632 -0.037503  0.110486
     2 x      -0.075805 -0.042595 -0.005012 -0.244212 -0.124303 -0.055129
     2 y      -0.011751  0.309144  0.032436 -0.062453 -0.019627  0.004472
     2 z       0.165853 -0.051874  0.025635 -0.098924 -0.063774  0.111560
     3 x      -0.082129 -0.224847 -0.005603 -0.151510  0.107336 -0.040443
     3 y      -0.013143 -0.213527 -0.032303  0.199627 -0.112558 -0.001332
     3 z       0.178734 -0.063178 -0.034359 -0.069609  0.035388  0.117570
     4 x       0.057060  0.061771  0.022498 -0.242485 -0.148812  0.010537
     4 y       0.049298 -0.341026 -0.021569 -0.099687  0.049455  0.002071
     4 z      -0.171692  0.048687 -0.010223 -0.109102 -0.057934 -0.040338
     5 x      -0.238817 -0.333394  0.061573  0.076283 -0.090789  0.012054
     5 y      -0.021699  0.119342 -0.021004 -0.039275 -0.297126 -0.011998
     5 z       0.560778 -0.142540  0.025003  0.031836 -0.045781 -0.038942
     6 x       0.137527  0.165614  0.252527  0.145075 -0.211328 -0.236597
     6 y       0.073766  0.138539  0.305131 -0.331181  0.061742  0.296069
     6 z      -0.128792  0.067939  0.125600  0.157067 -0.140397 -0.156784
     7 x      -0.107455 -0.219231 -0.318317 -0.132321  0.098851 -0.083546
     7 y      -0.010843  0.078978  0.117096  0.063813  0.441052 -0.347570
     7 z       0.229017 -0.093366 -0.136247 -0.052746  0.153288 -0.094668
     8 x       0.119807  0.252963  0.018938 -0.133695  0.153120  0.022070
     8 y       0.036833  0.230375  0.010479  0.233832 -0.071951 -0.002455
     8 z      -0.166719  0.085854  0.031361 -0.050040  0.069266 -0.035397
     9 x       0.085298  0.030821 -0.049342  0.306296  0.208738 -0.322505
     9 y      -0.113365 -0.223472  0.424409  0.158636 -0.083855 -0.094711
     9 z      -0.137314  0.018356 -0.030830  0.216231  0.147026 -0.193823
    10 x       0.044843  0.056124  0.051336  0.376580  0.209932  0.388000
    10 y       0.103076 -0.219117 -0.416900  0.142723 -0.108615  0.070913
    10 z      -0.156437  0.026472  0.004472  0.061577  0.046252  0.108512
    11 x      -0.094634 -0.174010  0.323108 -0.139812  0.170710  0.141829
    11 y      -0.002120  0.061357 -0.118759  0.067432  0.402446  0.395516
    11 z       0.231867 -0.073911  0.135672 -0.063824 -0.044619  0.000491
    12 x      -0.015280  0.151672 -0.274119  0.198408 -0.266360  0.243804
    12 y      -0.077925  0.158657 -0.306818 -0.339713  0.105459 -0.296131
    12 z      -0.191674  0.059299 -0.105120  0.001927 -0.048584  0.046249


  Frequency     295.4776  334.5468  335.2586  362.7934  364.6453  402.0402
  IR Intensity    0.0000    0.0010    0.0010    0.0029    0.0026    0.0000
     in X         0.0000    0.0002    0.0007    0.0022    0.0001    0.0000
     in Y         0.0000    0.0008    0.0002    0.0002    0.0023    0.0000
     in Z         0.0000    0.0000    0.0002    0.0004    0.0003    0.0000
  Raman Intsty    0.2273    0.0670    0.0000    0.0000    0.0005    1.3821

     1 x      -0.010727 -0.012528 -0.117935  0.282413 -0.071636  0.087542
     1 y      -0.028459 -0.058519  0.040331 -0.106303 -0.193007  0.239390
     1 z       0.001907  0.000468 -0.052745  0.119848 -0.012515 -0.003566
     2 x       0.027800 -0.003764  0.019150 -0.128022 -0.138526 -0.239800
     2 y       0.007993  0.064227 -0.013592 -0.208339  0.270849 -0.045622
     2 z       0.008010 -0.015505  0.025927 -0.041356 -0.055688 -0.083919
     3 x      -0.015431  0.047106  0.043119  0.031639  0.254870  0.155936
     3 y       0.023538  0.053176 -0.000145  0.253418  0.115241 -0.186404
     3 z      -0.010630  0.007924  0.000538  0.000133  0.113344  0.086650
     4 x       0.032641  0.023491  0.065304 -0.224376 -0.111396 -0.398064
     4 y       0.006214 -0.011038 -0.011751 -0.030772 -0.065796 -0.091175
     4 z       0.009965 -0.035348 -0.062612 -0.105877 -0.044340 -0.173589
     5 x      -0.013301 -0.061423  0.001481 -0.046937 -0.077975  0.122049
     5 y      -0.032948 -0.074264 -0.004304  0.009606 -0.282925  0.414557
     5 z       0.003352  0.078553  0.005768 -0.020820 -0.051550  0.062355
     6 x       0.186836  0.198904  0.301450  0.233864 -0.038759  0.114379
     6 y      -0.259972  0.298488  0.154885  0.094324  0.011183 -0.064842
     6 z       0.271546  0.264785 -0.113820 -0.358216  0.207978 -0.093371
     7 x       0.036372  0.124771  0.371721  0.123914  0.134562  0.115182
     7 y       0.331955  0.006770 -0.128114 -0.045126 -0.032545  0.115065
     7 z       0.189784 -0.348018  0.137112  0.045692 -0.356236 -0.177004
     8 x      -0.020143  0.002268  0.002278 -0.168753  0.059916  0.272895
     8 y       0.025161 -0.000355 -0.015372  0.166876 -0.133121 -0.331472
     8 z      -0.013174 -0.052666  0.086982 -0.059929  0.027323  0.110544
     9 x      -0.255295  0.033938 -0.183264  0.098610  0.065931 -0.159917
     9 y      -0.103484 -0.400485  0.133921 -0.023963  0.151787 -0.035103
     9 z      -0.288765  0.157502  0.277298 -0.327835 -0.242127  0.109603
    10 x      -0.416449 -0.113790 -0.012609 -0.164224 -0.100679 -0.036131
    10 y      -0.042593  0.426094 -0.226710 -0.124445  0.042688 -0.010415
    10 z       0.014418  0.112863  0.258261  0.396713  0.156651 -0.158322
    11 x       0.182262  0.095249 -0.460607  0.058635 -0.194562 -0.028836
    11 y       0.360231 -0.057989  0.163825 -0.023249 -0.019183  0.085222
    11 z      -0.119522 -0.205003 -0.207957  0.039681  0.444471  0.140650
    12 x       0.265119 -0.340129 -0.019421 -0.132412  0.209685 -0.005940
    12 y      -0.288224 -0.257390 -0.098071  0.049707  0.097828 -0.090611
    12 z      -0.066755  0.035808 -0.349716  0.296901 -0.195963  0.180129


  Frequency     440.9713  442.5491  460.4743  472.1380  479.3112  487.7570
  IR Intensity    0.0294    0.0427    0.0075    0.0031    0.0011    0.0003
     in X         0.0185    0.0098    0.0052    0.0006    0.0008    0.0001
     in Y         0.0065    0.0327    0.0011    0.0025    0.0002    0.0002
     in Z         0.0045    0.0001    0.0011    0.0000    0.0002    0.0000
  Raman Intsty    0.0002    0.0265    0.0009    3.0145    0.0000    5.2418

     1 x       0.183267 -0.147757  0.255603  0.159947  0.180934  0.093336
     1 y      -0.093291 -0.139394 -0.088136  0.005872 -0.064101 -0.074212
     1 z       0.107747  0.162863  0.119560 -0.371575  0.051025 -0.288688
     2 x       0.163942 -0.056685 -0.059491 -0.132280 -0.176265 -0.005951
     2 y       0.101813 -0.120644  0.352419 -0.040143  0.168705  0.003466
     2 z      -0.149038 -0.058435 -0.202740  0.155898  0.384092  0.154951
     3 x      -0.067550  0.002016 -0.348549 -0.079297  0.052361 -0.104038
     3 y      -0.172509 -0.105460 -0.193372 -0.068671 -0.132860  0.039762
     3 z       0.179754 -0.079953  0.011633  0.222099 -0.408352  0.140166
     4 x       0.211358 -0.190805 -0.137634 -0.168563  0.072405  0.173897
     4 y       0.055197 -0.042155 -0.020414 -0.037200  0.020762  0.039490
     4 z       0.091453 -0.087530 -0.059521 -0.078310  0.023354  0.072446
     5 x      -0.009236 -0.090709  0.013082 -0.002246 -0.000304 -0.084598
     5 y      -0.046951 -0.316354  0.008078  0.002660 -0.009130 -0.277605
     5 z      -0.006286 -0.054416  0.005927  0.007995  0.000189 -0.035208
     6 x      -0.048434  0.413511 -0.135312 -0.221259  0.043984  0.071078
     6 y      -0.121359  0.237398 -0.007997  0.108045 -0.285692 -0.092255
     6 z      -0.162755 -0.022631  0.066965  0.250007 -0.287029 -0.172325
     7 x      -0.139473 -0.113872  0.497564  0.036384 -0.138332  0.225032
     7 y       0.026569 -0.132257 -0.176999  0.038006  0.059006  0.191180
     7 z      -0.017220  0.254025  0.206649  0.013870 -0.071840 -0.340901
     8 x       0.171989  0.083713 -0.111095  0.106411  0.047739 -0.122764
     8 y      -0.217503 -0.095612  0.118376 -0.124285 -0.068032  0.150899
     8 z       0.068598  0.029983 -0.045001  0.037565  0.026887 -0.053709
     9 x       0.127335 -0.116067 -0.057322 -0.023049 -0.226651 -0.325263
     9 y       0.386996  0.239608  0.162692  0.227172  0.076795  0.132743
     9 z      -0.216785  0.068496  0.034205 -0.076757  0.141982  0.245694
    10 x      -0.082696 -0.053715 -0.022279  0.012850 -0.004760  0.023345
    10 y       0.271429  0.348455  0.048612  0.004883  0.274691 -0.089512
    10 z       0.048649 -0.261542 -0.137444  0.311618  0.316592 -0.213308
    11 x      -0.332521  0.093978  0.258483  0.131648  0.186959 -0.028389
    11 y       0.118652 -0.027746 -0.086721 -0.244016 -0.076116 -0.001174
    11 z      -0.164710 -0.080382  0.127911 -0.501716  0.057536  0.057784
    12 x      -0.231576  0.215182 -0.123837  0.189350 -0.049000  0.087506
    12 y      -0.277616  0.224203 -0.130129  0.147405  0.041387 -0.016844
    12 z       0.194057  0.124830 -0.114433  0.028075 -0.239564  0.431865


  Frequency     589.9258  616.7142  619.1647  799.1768  801.2360  900.6220
  IR Intensity    0.1967    0.1179    0.1204    0.0098    0.0092    0.0000
     in X         0.0353    0.0923    0.0037    0.0076    0.0005    0.0000
     in Y         0.0041    0.0092    0.1066    0.0008    0.0085    0.0000
     in Z         0.1572    0.0164    0.0101    0.0014    0.0002    0.0000
  Raman Intsty    0.0001    0.0000    0.0007    0.0000    0.0014    3.0430

     1 x      -0.169436  0.556048  0.034570 -0.106014 -0.173803 -0.136889
     1 y      -0.018210 -0.198024 -0.045063  0.061449 -0.599015 -0.473509
     1 z       0.396805  0.234343 -0.059521 -0.043669 -0.111468 -0.079411
     2 x      -0.158241  0.088804  0.115455  0.478985 -0.276159  0.463405
     2 y      -0.088604 -0.283842 -0.545657  0.166601  0.063026  0.097350
     2 z       0.398806  0.030425 -0.037158  0.217800 -0.126510  0.206867
     3 x      -0.220114  0.248635 -0.319859  0.285680  0.282935 -0.325586
     3 y      -0.063045  0.199611 -0.370819 -0.437697 -0.161213  0.379055
     3 z       0.372940  0.111654 -0.220528  0.105382  0.108635 -0.126619
     4 x       0.046358 -0.115483  0.065859 -0.390965  0.200992 -0.240377
     4 y       0.012670 -0.010254  0.045258 -0.090381  0.043232 -0.054804
     4 z      -0.017291 -0.049494  0.034642 -0.169675  0.087249 -0.104485
     5 x       0.035073 -0.031595  0.037216 -0.002477  0.138449  0.072015
     5 y       0.072206  0.007798  0.135600 -0.017593  0.466152  0.243048
     5 z      -0.022422 -0.013354  0.023519 -0.001373  0.067731  0.035568
     6 x       0.133863 -0.194197 -0.036280 -0.000474  0.051627  0.010796
     6 y      -0.058866  0.065644  0.171542 -0.049727  0.029372 -0.012406
     6 z      -0.168802  0.148085  0.179502 -0.052101 -0.000805 -0.031990
     7 x       0.158647 -0.146078  0.130323 -0.069371 -0.035497  0.022017
     7 y       0.133176  0.043836  0.140479  0.025862 -0.027418  0.013521
     7 z      -0.260221 -0.049872 -0.198621 -0.031161  0.051542 -0.039180
     8 x      -0.009711 -0.085065 -0.038078 -0.257141 -0.157030  0.164256
     8 y       0.035339  0.076813  0.085746  0.314416  0.187039 -0.199411
     8 z      -0.041117 -0.035489 -0.009401 -0.105151 -0.064216  0.066984
     9 x       0.205608 -0.248722  0.049638  0.031086 -0.045808 -0.026097
     9 y       0.012566  0.078909  0.122965  0.026411  0.068425  0.009896
     9 z      -0.192804  0.158841 -0.053811 -0.034329  0.021971  0.030215
    10 x       0.006195 -0.041774 -0.006506 -0.006228 -0.010880  0.008452
    10 y      -0.014915  0.005777  0.162357  0.049548  0.054796 -0.012287
    10 z      -0.226443 -0.257176  0.176760  0.051294 -0.022855 -0.032989
    11 x       0.054456 -0.125167 -0.071361 -0.065421  0.011066 -0.011671
    11 y      -0.068905  0.040623  0.165262  0.024354 -0.023648  0.008682
    11 z      -0.187024 -0.062138  0.288409 -0.025357 -0.051046  0.033164
    12 x       0.022279 -0.076631  0.071570 -0.023881  0.046117 -0.000499
    12 y       0.079140  0.027199  0.116597 -0.033065  0.032861  0.000308
    12 z      -0.276366 -0.287961 -0.063001  0.034773  0.064559  0.041715




--------------------------------------------------------------------------------
  Vibrational properties (for cluster):  Temperature  =       0.000 K
--------------------------------------------------------------------------------
  Zero point energy            =        0.697620 eV
--------------------------------------------------------------------------------

  Phonon density of states : 

--------------------------------------------------------------------------------
 Frequency (cm-1) Density of States                                             
--------------------------------------------------------------------------------
    0.00000 |****************************************                      0.057
   14.07222 |****************************************                      0.057
   28.14444 |********************                                          0.029
   42.21666 |                                                              0.000
   56.28888 |                                                              0.000
   70.36110 |                                                              0.000
   84.43332 |                                                              0.000
   98.50554 |                                                              0.000
  112.57776 |************************************************************  0.086
  126.64998 |************************************************************  0.086
  140.72220 |********************                                          0.029
  154.79442 |                                                              0.000
  168.86664 |********************                                          0.029
  182.93886 |                                                              0.000
  197.01108 |********************                                          0.029
  211.08330 |                                                              0.000
  225.15552 |                                                              0.000
  239.22774 |****************************************                      0.057
  253.29996 |                                                              0.000
  267.37218 |********************                                          0.029
  281.44440 |********************                                          0.029
  295.51662 |                                                              0.000
  309.58884 |                                                              0.000
  323.66106 |****************************************                      0.057
  337.73328 |                                                              0.000
  351.80550 |****************************************                      0.057
  365.87772 |                                                              0.000
  379.94994 |                                                              0.000
  394.02216 |********************                                          0.029
  408.09438 |                                                              0.000
  422.16660 |                                                              0.000
  436.23882 |****************************************                      0.057
  450.31104 |********************                                          0.029
  464.38326 |********************                                          0.029
  478.45548 |****************************************                      0.057
  492.52770 |                                                              0.000
  506.59992 |                                                              0.000
  520.67214 |                                                              0.000
  534.74436 |                                                              0.000
  548.81658 |                                                              0.000
  562.88880 |                                                              0.000
  576.96102 |********************                                          0.029
  591.03324 |                                                              0.000
  605.10546 |****************************************                      0.057
  619.17768 |                                                              0.000
  633.24990 |                                                              0.000
  647.32212 |                                                              0.000
  661.39435 |                                                              0.000
  675.46657 |                                                              0.000
  689.53879 |                                                              0.000
  703.61101 |                                                              0.000
  717.68323 |                                                              0.000
  731.75545 |                                                              0.000
  745.82767 |                                                              0.000
  759.89989 |                                                              0.000
  773.97211 |                                                              0.000
  788.04433 |****************************************                      0.057
  802.11655 |                                                              0.000
  816.18877 |                                                              0.000
  830.26099 |                                                              0.000
  844.33321 |                                                              0.000
  858.40543 |                                                              0.000
  872.47765 |                                                              0.000
  886.54987 |********************                                          0.029
--------------------------------------------------------------------------------



  Time to end of optimisation =       0.0306 seconds


  Peak dynamic memory used =       0.65 MB 


  Timing analysis for GULP :

--------------------------------------------------------------------------------
  Task / Subroutine                                          Time (Seconds)
--------------------------------------------------------------------------------
  Calculation of real space energy and derivatives                0.0020
  Calculation of phonons                                          0.0017
  Calculation and manipulation of Hessian matrix                  0.0013
--------------------------------------------------------------------------------
  Total CPU time                                                  0.0307
--------------------------------------------------------------------------------


  Job Finished at 14:40.14 25th May        2022                               

