------------------------------------------------------------
          Invoking FHI-aims ...

          When using FHI-aims, please cite the following reference:

            Volker Blum, Ralf Gehrke, Felix Hanke, Paula Havu,
            Ville Havu, Xinguo Ren, Karsten Reuter, and Matthias Scheffler,
            'Ab Initio Molecular Simulations with Numeric Atom-Centered Orbitals',
            Computer Physics Communications 180, 2175-2196 (2009)

          In addition, many other developments in FHI-aims are likely important for
          your particular application. A partial list of references is given at the end of
          this file. Thank you for giving credit to the authors of these developments.

          For any questions about FHI-aims, please visit our slack channel at

            https://fhi-aims.slack.com

          and our main development and support site at

            https://aims-git.rz-berlin.mpg.de .

          The latter site, in particular, has a wiki to collect information, as well
          as an issue tracker to log discussions, suggest improvements, and report issues
          or bugs. https://aims-git.rz-berlin.mpg.de is also the main development site
          of the project and all new and updated code versions can be obtained there.
          Please send an email to aims-coordinators@fhi-berlin.mpg.de and we will add
          you to these sites. They are for you and everyone is welcome there.

------------------------------------------------------------



  Date     :  20220517, Time     :  120741.541
  Time zero on CPU 1             :   0.441990000000000E-01  s.
  Internal wall clock time zero  :           422021261.541  s.

  FHI-aims created a unique identifier for this run for later identification
  aims_uuid : F4E6354D-929A-474B-A431-3D17311938EB

  Build configuration of the current instance of FHI-aims
  -------------------------------------------------------
  FHI-aims version      : 210914
  Commit number         : GITDIR-NOTFOUND
  CMake host system     : Linux-3.10.0-693.17.1.el7.x86_64
  CMake version         : 3.21.1
  Fortran compiler      : /shared/ucl/apps/intel/2018.Update3/impi/2018.3.222/intel64/bin/mpiifort (Intel) version 18.0.3.20180410
  Fortran compiler flags: -O3 -ip -fp-model precise
  C compiler            : /shared/ucl/apps/intel/2018.Update3/compilers_and_libraries_2018.3.222/linux/bin/intel64/icc (Intel) version 18.0.3.20180410
  C compiler flags      : -O3 -ip -fp-model precise -std=gnu99
  ELPA2 kernel          : AVX2
  Using MPI
  Using ScaLAPACK
  Using LibXC
  Using i-PI
  Using RLSY
  Linking against: /shared/ucl/apps/intel/2019.Update5/compilers_and_libraries_2019.5.281/linux/mkl/lib/intel64/libmkl_intel_lp64.so
                   /shared/ucl/apps/intel/2019.Update5/compilers_and_libraries_2019.5.281/linux/mkl/lib/intel64/libmkl_sequential.so
                   /shared/ucl/apps/intel/2019.Update5/compilers_and_libraries_2019.5.281/linux/mkl/lib/intel64/libmkl_core.so
                   /shared/ucl/apps/intel/2019.Update5/compilers_and_libraries_2019.5.281/linux/mkl/lib/intel64/libmkl_blacs_intelmpi_lp64.so
                   /shared/ucl/apps/intel/2019.Update5/compilers_and_libraries_2019.5.281/linux/mkl/lib/intel64/libmkl_scalapack_lp64.so

  Using       24 parallel tasks.
  Task        0 on host node-k98a-025 reporting.
  Task        1 on host node-k98a-025 reporting.
  Task        2 on host node-k98a-025 reporting.
  Task        3 on host node-k98a-025 reporting.
  Task        4 on host node-k98a-025 reporting.
  Task        5 on host node-k98a-025 reporting.
  Task        6 on host node-k98a-025 reporting.
  Task        7 on host node-k98a-025 reporting.
  Task        8 on host node-k98a-025 reporting.
  Task        9 on host node-k98a-025 reporting.
  Task       10 on host node-k98a-025 reporting.
  Task       11 on host node-k98a-025 reporting.
  Task       12 on host node-k98a-025 reporting.
  Task       13 on host node-k98a-025 reporting.
  Task       14 on host node-k98a-025 reporting.
  Task       15 on host node-k98a-025 reporting.
  Task       16 on host node-k98a-025 reporting.
  Task       17 on host node-k98a-025 reporting.
  Task       18 on host node-k98a-025 reporting.
  Task       19 on host node-k98a-025 reporting.
  Task       20 on host node-k98a-025 reporting.
  Task       21 on host node-k98a-025 reporting.
  Task       22 on host node-k98a-025 reporting.
  Task       23 on host node-k98a-025 reporting.

  Performing system and environment tests:
  | Environment variable OMP_NUM_THREADS correctly set to 1.
  | Checking for ScaLAPACK...
  | Testing pdtran()...
  | All pdtran() tests passed.

  Obtaining array dimensions for all initial allocations:
  
  -----------------------------------------------------------------------
  Parsing control.in (first pass over file, find array dimensions only).
  The contents of control.in will be repeated verbatim below
  unless switched off by setting 'verbatim_writeout .false.' .
  in the first line of control.in .
  -----------------------------------------------------------------------
  
  #########################################################################################  Physical model
  #########################################################################################
  xc                 pbesol
  spin               none
  relativistic       atomic_zora scalar
  charge             0.0
  #  SCF convergence
  occupation_type    gaussian 0.01
  mixer              pulay
  n_max_pulay        10
  charge_mix_param   0.5
  sc_accuracy_rho    1E-5
  sc_accuracy_eev    1E-3
  sc_accuracy_etot   1E-6
  sc_accuracy_forces 1E-4
  sc_iter_limit      1500
  #  Relaxation
  #relax_geometry   bfgs 1.e-3
  
  ################################################################################
  #
  #  FHI-aims code project
  #  VB, Fritz-Haber Institut, 2009
  #
  #  Suggested "light" defaults for Al atom (to be pasted into control.in file)
  #  Be sure to double-check any results obtained with these settings for post-processing,
  #  e.g., with the "tight" defaults and larger basis sets.
  #
  ################################################################################
    species        Al
  #     global species definitions
      nucleus             13
      mass                26.9815386
  #
      l_hartree           4
  #
      cut_pot             3.5          1.5  1.0
      basis_dep_cutoff    1e-4
  #
      radial_base         41 5.0
      radial_multiplier   1
      angular_grids       specified
        division   0.6594  110
        division   0.8170  194
        division   0.9059  302
  #      division   1.0363  434
  #      division   1.1443  590
  #      division   1.2621  770
  #      division   2.8177  974
  #      outer_grid   974
        outer_grid   302
  ################################################################################
  #
  #  Definition of "minimal" basis
  #
  ################################################################################
  #     valence basis states
      valence      3  s   2.
      valence      3  p   1.
  #     ion occupancy
      ion_occ      3  s   1.
      ion_occ      2  p   6.
  ################################################################################
  #
  #  Suggested additional basis functions. For production calculations,
  #  uncomment them one after another (the most important basis functions are
  #  listed first).
  #
  #  Constructed for dimers: 2.0 A, 2.5 A, 3.0 A, 3.75 A, 4.5 A
  #
  ################################################################################
  #  "First tier" - improvements: -199.47 meV to -10.63 meV
       ionic 3 d auto
       ionic 3 p auto
  #     hydro 4 f 4.7
       ionic 3 s auto
  #  "Second tier" - improvements: -5.35 meV to -1.57 meV
  #     hydro 5 g 7
  #     hydro 3 d 6
  #     hydro 2 s 11.6
  #     hydro 2 p 0.9
  #  "Third tier" - improvements: -0.63 meV to -0.20 meV
  #     hydro 5 f 7.6
  #     hydro 4 p 7.2
  #     hydro 4 s 3.7
  #     hydro 4 d 7.6
  #  "Fourth tier" - improvements: -0.17 meV to -0.08 meV
  #     hydro 4 d 13.6
  #     hydro 5 g 11.2
  #     hydro 4 d 0.9
  #     hydro 1 s 0.4
  #     hydro 4 p 0.1
  #     hydro 5 f 9.8
  #  Further basis functions that fell out of the optimization - noise level...
  #     hydro 4 p 5
  
  ################################################################################
  #
  #  FHI-aims code project
  #  VB, Fritz-Haber Institut, 2009
  #
  #  Suggested "light" defaults for F atom (to be pasted into control.in file)
  #  Be sure to double-check any results obtained with these settings for post-processing,
  #  e.g., with the "tight" defaults and larger basis sets.
  #
  ################################################################################
    species        F
  #     global species definitions
      nucleus             9
      mass                18.9984032
  #
      l_hartree           4
  #
      cut_pot             3.5  1.5  1.0
      basis_dep_cutoff    1e-4
  #
      radial_base         37 5.0
      radial_multiplier   1
      angular_grids specified
        division   0.4014  110
        division   0.5291  194
        division   0.6019  302
  #      division   0.6814  434
  #      division   0.7989  590
  #      division   0.8965  770
  #      division   1.3427  974
  #      outer_grid   974
        outer_grid   302
  ################################################################################
  #
  #  Definition of "minimal" basis
  #
  ################################################################################
  #     valence basis states
      valence      2  s   2.
      valence      2  p   5.
  #     ion occupancy
      ion_occ      2  s   1.
      ion_occ      2  p   4.
  ################################################################################
  #
  #  Suggested additional basis functions. For production calculations,
  #  uncomment them one after another (the most important basis functions are
  #  listed first).
  #
  #  Constructed for dimers: 1.2 A, 1.418 A, 1.75 A, 2.25 A, 3.25 A
  #
  ################################################################################
  #  "First tier" - improvements: -149.44 meV to -45.88 meV
       hydro 2 p 1.7
       hydro 3 d 7.4
       hydro 3 s 6.8
  #  "Second tier" - improvements: -12.96 meV to -1.56 meV
  #     hydro 4 f 11.2
  #     ionic 2 p auto
  #     hydro 1 s 0.75
  #     hydro 4 d 8.8
  #     hydro 5 g 16.8
  #  "Third tier" - improvements: -0.58 meV to -0.05 meV
  #     hydro 3 p 6.2
  #     hydro 3 s 3.2
  #     hydro 4 f 9.6
  #     hydro 3 s 19.6
  #     hydro 4 d 8.6
  #     hydro 5 g 14.4
  # Further basis functions: -0.05 meV and below
  #     hydro 3 p 4.2
  
  -----------------------------------------------------------------------
  Completed first pass over input file control.in .
  -----------------------------------------------------------------------
  
  
  -----------------------------------------------------------------------
  Parsing geometry.in (first pass over file, find array dimensions only).
  The contents of geometry.in will be repeated verbatim below
  unless switched off by setting 'verbatim_writeout .false.' .
  in the first line of geometry.in .
  -----------------------------------------------------------------------
  
  atom -0.051568013 1.616568772 2.177193420 Al
  atom 2.532497496 2.569998425 1.719581375 Al
  atom 1.317921084 2.717527784 -0.660861454 Al
  atom 1.031248778 3.087524536 2.797155063 F
  atom -1.516594683 2.719377522 2.193769186 F
  atom -0.537332071 -0.032606666 2.767649830 F
  atom 1.824907953 0.829495193 1.964398865 F
  atom 2.928372145 1.873920053 -0.088341016 F
  atom 1.111476809 3.025855733 -2.429310212 F
  atom 1.742820894 4.042449187 0.623076867 F
  atom 4.046018368 3.152850977 2.535672780 F
  atom 0.018203809 1.763886010 0.216186693 F
  
  -----------------------------------------------------------------------
  Completed first pass over input file geometry.in .
  -----------------------------------------------------------------------
  

  Basic array size parameters:
  | Number of species                 :        2
  | Number of atoms                   :       12
  | Max. basis fn. angular momentum   :        2
  | Max. atomic/ionic basis occupied n:        3
  | Max. number of basis fn. types    :        3
  | Max. radial fns per species/type  :        5
  | Max. logarithmic grid size        :     1340
  | Max. radial integration grid size :       41
  | Max. angular integration grid size:      302
  | Max. angular grid division number :        8
  | Radial grid for Hartree potential :     1340
  | Number of spin channels           :        1

------------------------------------------------------------
          Reading file control.in.
------------------------------------------------------------
  XC: Using PBEsol gradient-corrected functionals.
  Spin treatment: No spin polarisation.
  Scalar relativistic treatment of kinetic energy: on-site free-atom approximation to ZORA.
  Charge =   0.000000E+00: Neutral system requested explicitly.
  Occupation type: Gaussian broadening, width =   0.100000E-01 eV.
  Using pulay charge density mixing.
  Pulay mixing - number of memorized iterations:   10
  Charge density mixing - mixing parameter:     0.5000
  Convergence accuracy of self-consistent charge density:  0.1000E-04
  Convergence accuracy of sum of eigenvalues:  0.1000E-02
  Convergence accuracy of total energy:  0.1000E-05
  Convergence accuracy of forces:  0.1000E-03
  Maximum number of s.-c. iterations  :  1500
 
  Reading configuration options for species Al                  .
  | Found nuclear charge :  13.0000
  | Found atomic mass :    26.9815386000000      amu
  | Found l_max for Hartree potential  :   4
  | Found cutoff potl. onset [A], width [A], scale factor :    3.50000    1.50000    1.00000
  | Threshold for basis-dependent cutoff potential is   0.100000E-03
  | Found data for basic radial integration grid :    41 points, outermost radius =    5.000 A
  | Found multiplier for basic radial grid :   1
  | Found angular grid specification: user-specified.
  | Specified grid contains     4 separate shells.
  | Check grid settings after all constraints further below.
  | Found free-atom valence shell :  3 s   2.000
  | Found free-atom valence shell :  3 p   1.000
  | Found free-ion valence shell :  3 s   1.000
  | Found free-ion valence shell :  2 p   6.000
  | Found ionic basis function :  3 d , default cutoff radius.
  | Found ionic basis function :  3 p , default cutoff radius.
  | Found ionic basis function :  3 s , default cutoff radius.
  Species Al                  : Missing cutoff potential type.
  Defaulting to exp(1/x)/(1-x)^2 type cutoff potential.
  Species Al: No 'logarithmic' tag. Using default grid for free atom:
  | Default logarithmic grid data [bohr] : 0.1000E-03 0.1000E+03 0.1012E+01
  | Will include ionic basis functions of  2.0-fold positive Al                   ion.
  Species Al: On-site basis accuracy parameter (for Gram-Schmidt orthonormalisation) not specified.
  Using default value basis_acc =  0.1000000E-03.
  Species Al                  : Using default innermost maximum threshold i_radial=  2 for radial functions.
  Species Al                  : Default cutoff onset for free atom density etc. : 0.35000000E+01 AA.
  Species Al                  : Basic radial grid will be enhanced according to radial_multiplier =   1, to contain    41 grid points.
 
  Reading configuration options for species F                   .
  | Found nuclear charge :   9.0000
  | Found atomic mass :    18.9984032000000      amu
  | Found l_max for Hartree potential  :   4
  | Found cutoff potl. onset [A], width [A], scale factor :    3.50000    1.50000    1.00000
  | Threshold for basis-dependent cutoff potential is   0.100000E-03
  | Found data for basic radial integration grid :    37 points, outermost radius =    5.000 A
  | Found multiplier for basic radial grid :   1
  | Found angular grid specification: user-specified.
  | Specified grid contains     4 separate shells.
  | Check grid settings after all constraints further below.
  | Found free-atom valence shell :  2 s   2.000
  | Found free-atom valence shell :  2 p   5.000
  | Found free-ion valence shell :  2 s   1.000
  | Found free-ion valence shell :  2 p   4.000
  | Found hydrogenic basis function :  2 p   1.700
  | Found hydrogenic basis function :  3 d   7.400
  | Found hydrogenic basis function :  3 s   6.800
  Species F                   : Missing cutoff potential type.
  Defaulting to exp(1/x)/(1-x)^2 type cutoff potential.
  Species F : No 'logarithmic' tag. Using default grid for free atom:
  | Default logarithmic grid data [bohr] : 0.1000E-03 0.1000E+03 0.1012E+01
  Species F : On-site basis accuracy parameter (for Gram-Schmidt orthonormalisation) not specified.
  Using default value basis_acc =  0.1000000E-03.
  Species F                   : Using default innermost maximum threshold i_radial=  2 for radial functions.
  Species F                   : Default cutoff onset for free atom density etc. : 0.35000000E+01 AA.
  Species F                   : Basic radial grid will be enhanced according to radial_multiplier =   1, to contain    37 grid points.
 
  Finished reading input file 'control.in'.
 
------------------------------------------------------------


------------------------------------------------------------
          Reading geometry description geometry.in.
------------------------------------------------------------
  | The smallest distance between any two atoms is         1.80695777 AA.
  | The first atom of this pair is atom number                      3 .
  | The second atom of this pair is atom number                     9 .
  Input structure read successfully.
  The structure contains       12 atoms,  and a total of        120.000 electrons.

  Input geometry:
  | No unit cell requested.
  | Atomic structure:
  |       Atom                x [A]            y [A]            z [A]
  |    1: Species Al           -0.05156801        1.61656877        2.17719342
  |    2: Species Al            2.53249750        2.56999843        1.71958137
  |    3: Species Al            1.31792108        2.71752778       -0.66086145
  |    4: Species F             1.03124878        3.08752454        2.79715506
  |    5: Species F            -1.51659468        2.71937752        2.19376919
  |    6: Species F            -0.53733207       -0.03260667        2.76764983
  |    7: Species F             1.82490795        0.82949519        1.96439886
  |    8: Species F             2.92837214        1.87392005       -0.08834102
  |    9: Species F             1.11147681        3.02585573       -2.42931021
  |   10: Species F             1.74282089        4.04244919        0.62307687
  |   11: Species F             4.04601837        3.15285098        2.53567278
  |   12: Species F             0.01820381        1.76388601        0.21618669

 
  Finished reading input file 'control.in'.
 

------------------------------------------------------------
          Reading geometry description geometry.in.
------------------------------------------------------------
 
  Consistency checks for stacksize environment parameter are next.
 
  | Maximum stacksize for task 0: unlimited
  | Maximum stacksize for task 1: unlimited
  | Maximum stacksize for task 2: unlimited
  | Maximum stacksize for task 3: unlimited
  | Maximum stacksize for task 4: unlimited
  | Maximum stacksize for task 5: unlimited
  | Maximum stacksize for task 6: unlimited
  | Maximum stacksize for task 7: unlimited
  | Maximum stacksize for task 8: unlimited
  | Maximum stacksize for task 9: unlimited
  | Maximum stacksize for task 10: unlimited
  | Maximum stacksize for task 11: unlimited
  | Maximum stacksize for task 12: unlimited
  | Maximum stacksize for task 13: unlimited
  | Maximum stacksize for task 14: unlimited
  | Maximum stacksize for task 15: unlimited
  | Maximum stacksize for task 16: unlimited
  | Maximum stacksize for task 17: unlimited
  | Maximum stacksize for task 18: unlimited
  | Maximum stacksize for task 19: unlimited
  | Maximum stacksize for task 20: unlimited
  | Maximum stacksize for task 21: unlimited
  | Maximum stacksize for task 22: unlimited
  | Maximum stacksize for task 23: unlimited
  | Current stacksize for task 0: unlimited
  | Current stacksize for task 1: unlimited
  | Current stacksize for task 2: unlimited
  | Current stacksize for task 3: unlimited
  | Current stacksize for task 4: unlimited
  | Current stacksize for task 5: unlimited
  | Current stacksize for task 6: unlimited
  | Current stacksize for task 7: unlimited
  | Current stacksize for task 8: unlimited
  | Current stacksize for task 9: unlimited
  | Current stacksize for task 10: unlimited
  | Current stacksize for task 11: unlimited
  | Current stacksize for task 12: unlimited
  | Current stacksize for task 13: unlimited
  | Current stacksize for task 14: unlimited
  | Current stacksize for task 15: unlimited
  | Current stacksize for task 16: unlimited
  | Current stacksize for task 17: unlimited
  | Current stacksize for task 18: unlimited
  | Current stacksize for task 19: unlimited
  | Current stacksize for task 20: unlimited
  | Current stacksize for task 21: unlimited
  | Current stacksize for task 22: unlimited
  | Current stacksize for task 23: unlimited
 
  Consistency checks for the contents of control.in are next.
 
  MPI_IN_PLACE appears to work with this MPI implementation.
  | Keeping use_mpi_in_place .true. (see manual).
  Target number of points in a grid batch is not set. Defaulting to  100
  Method for grid partitioning is not set. Defaulting to parallel hash+maxmin partitioning.
  Batch size limit is not set. Defaulting to    200
  By default, will store active basis functions for each batch.
  If in need of memory, prune_basis_once .false. can be used to disable this option.
  communication_type for Hartree potential was not specified.
  Defaulting to calc_hartree .
  Pulay mixer: Number of initial linear mixing iterations not set.
  Defaulting to    0 iterations.
  Work space size for distributed Hartree potential not set.
  Defaulting to   0.200000E+03 MB.
  Algorithm-dependent basis array size parameters:
  | n_max_pulay                         :       10
  Presetting      1001 iterations before the initial mixing cycle
  is restarted anyway using the sc_init_iter criterion / keyword.
  Presetting a factor      1.000 between actual scf density residual
  and density convergence criterion sc_accuracy_rho below which sc_init_iter
  takes no effect.
  Geometry relaxation not requested: no relaxation will be performed.
  Forces evaluation will include force correction term due to incomplete self-consistency (default).
  Handling of forces: Unphysical translation and rotation will be removed from forces.
  No accuracy limit for integral partition fn. given. Defaulting to  0.1000E-14.
  No threshold value for u(r) in integrations given. Defaulting to  0.1000E-05.
  No accuracy for occupation numbers given. Defaulting to  0.1000E-12.
  No threshold value for occupation numbers given. Defaulting to  0.0000E+00.
  No accuracy for fermi level given. Defaulting to  0.1000E-19.
  Maximum # of iterations to find E_F not set. Defaulting to  200.
  Preferred method for the eigenvalue solver ('KS_method') not specified in 'control.in'.
  Calling BLACS routine to test compilation state
  Since ScaLAPACK support is enabled, defaulting to ELPA (via ELSI).
  Will not use alltoall communication since running on < 1024 CPUs.
  Threshold for basis singularities not set.
  Default threshold for basis singularities:  0.1000E-04
  partition_type (choice of integration weights) for integrals was not specified.
  | Using a version of the partition function of Stratmann and coworkers ('stratmann_sparse').
  | At each grid point, the set of atoms used to build the partition table is smoothly restricted to
  | only those atoms whose free-atom density would be non-zero at that grid point.
  Partitioning for Hartree potential was not defined. Using partition_type for integrals.
  | Adjusted default value of keyword multip_moments_threshold to:       0.10000000E-11
  | This value may affect high angular momentum components of the Hartree potential in periodic systems.
  No q(lm)/r^(l+1) cutoff set for long-range Hartree potential.
  | Using default value of  0.100000E-09 .
  | Verify using the multipole_threshold keyword.
  Defaulting to new monopole extrapolation.
  Density update method: automatic selection selected.
  Charge integration errors on the 3D integration grid will be compensated
  by explicit normalization and distribution of residual charges.
  Use the "compensate_multipole_errors" flag to change this behaviour.
  Set 'collect_eigenvectors' to be '.true.' for use_density_matrix .false.
 
  Consistency checks for the contents of geometry.in are next.
 
  Number of empty states per atom not set in control.in - providing a guess from actual geometry.
  | Total number of empty states used during s.c.f. cycle:       36
  If you use a very high smearing, use empty_states (per atom!) in control.in to increase this value.

  Structure-dependent array size parameters: 
  | Maximum number of distinct radial functions  :       14
  | Maximum number of basis functions            :      180
  | Number of Kohn-Sham states (occupied + empty):       96
------------------------------------------------------------

------------------------------------------------------------
          Preparing all fixed parts of the calculation.
------------------------------------------------------------
  Determining machine precision:
    2.225073858507201E-308
  Setting up grids for atomic and cluster calculations.

  Creating wave function, potential, and density for free atoms.

  Species: Al

  List of occupied orbitals and eigenvalues:
    n    l              occ      energy [Ha]    energy [eV]
    1    0           2.0000       -55.621123     -1513.5278
    2    0           2.0000        -3.957030      -107.6763
    3    0           2.0000        -0.272233        -7.4078
    2    1           6.0000        -2.540949       -69.1427
    3    1           1.0000        -0.083300        -2.2667


  Species: F

  List of occupied orbitals and eigenvalues:
    n    l              occ      energy [Ha]    energy [eV]
    1    0           2.0000       -24.399611      -663.9472
    2    0           2.0000        -1.098702       -29.8972
    2    1           5.0000        -0.408210       -11.1080


  Adding cutoff potential to free-atom effective potential.
  Creating fixed part of basis set: Ionic, confined, hydrogenic.
 
  Al                   ion:

  List of free ionic orbitals and eigenvalues:
    n    l      energy [Ha]    energy [eV]
    1    0       -56.418846     -1535.2349
    2    0        -4.732717      -128.7838
    3    0        -0.872690       -23.7471
    2    1        -3.317230       -90.2664


  List of ionic basis orbitals and eigenvalues:
    n    l      energy [Ha]    energy [eV]    outer radius [A]
    3    2        -0.346815        -9.4373       4.594041
    3    1        -0.631870       -17.1940       4.538221
    3    0        -0.872657       -23.7462       4.538221

 
  F                    hydrogenic:
 
  List of hydrogenic basis orbitals: 
    n    l      effective z      eigenvalue [eV]  inner max. [A]     outer max. [A]     outer radius [A]   
    2    1         1.700000        -9.7616           1.243167           1.243167           4.598524
    3    2         7.400000       -82.7828           0.642437           0.642437           3.305741
    3    0         6.800000       -69.9026           0.057798           1.022307           3.781556
 
  Creating atomic-like basis functions for current effective potential.

  Species Al                  :

  List of atomic basis orbitals and eigenvalues:
    n    l      energy [Ha]    energy [eV]    outer radius [A]
    1    0       -55.621123     -1513.5278       0.850197
    2    0        -3.957030      -107.6763       3.144911
    3    0        -0.272233        -7.4078       4.594041
    2    1        -2.540949       -69.1427       3.731966
    3    1        -0.083300        -2.2667       4.594041


  Species F                   :

  List of atomic basis orbitals and eigenvalues:
    n    l      energy [Ha]    energy [eV]    outer radius [A]
    1    0       -24.399611      -663.9472       1.258458
    2    0        -1.098702       -29.8972       4.325857
    2    1        -0.408210       -11.1080       4.487453

  Assembling full basis from fixed parts.
  | Species Al :   atomic orbital   1 s accepted.
  | Species Al :   atomic orbital   2 s accepted.
  | Species Al :    ionic orbital   3 s accepted.
  | Species Al :   atomic orbital   3 s accepted.
  | Species Al :   atomic orbital   2 p accepted.
  | Species Al :    ionic orbital   3 p accepted.
  | Species Al :   atomic orbital   3 p accepted.
  | Species Al :    ionic orbital   3 d accepted.
  | Species F :   atomic orbital   1 s accepted.
  | Species F :    hydro orbital   3 s accepted.
  | Species F :   atomic orbital   2 s accepted.
  | Species F :   atomic orbital   2 p accepted.
  | Species F :    hydro orbital   2 p accepted.
  | Species F :    hydro orbital   3 d accepted.
 
  Basis size parameters after reduction:
  | Total number of radial functions:       14
  | Total number of basis functions :      180
 
  Per-task memory consumption for arrays in subroutine allocate_ext:
  |           4.807768MB.
  Testing on-site integration grid accuracy.
  |  Species  Function  <phi|h_atom|phi> (log., in eV)  <phi|h_atom|phi> (rad., in eV)
           1        1              -1513.5277717935              -1513.5271881332
           1        2               -107.6762691836               -107.6762662489
           1        3                 -6.9467474784                 -6.9471269649
           1        4                  5.5771951849                  5.4862107220 ***
           1        5                -69.1427313144                -69.1427312731
           1        6                 -1.5197375330                 -1.5230432022
           1        7                  6.8210948310                  6.5529872240 ***
           1        8                  4.3216540965                  4.2851170187 ***
           2        9               -663.9471986398               -663.9470363334
           2       10                 16.8514011578                 16.8512525338
           2       11                -28.4490593856                -28.4490661472
           2       12                -11.1080115307                -11.1080620173
           2       13                  7.1940182175                  7.1685154137
           2       14                 44.8544281765                 44.8543763625
 * Note: Onsite integrals marked "***" above are less accurate than
 * onsite_accuracy_threshold =    0.03000 eV. Usually, this is harmless.
 * When in doubt, tighten the "radial" and/or "radial_multiplier" flags to check.

  Preparing densities etc. for the partition functions (integrals / Hartree potential).

  Preparations completed.
  max(cpu_time)          :      0.184 s.
  Wall clock time (cpu1) :      0.184 s.
------------------------------------------------------------

------------------------------------------------------------
          Begin self-consistency loop: Initialization.

          Date     :  20220517, Time     :  120741.770
------------------------------------------------------------

  Initializing index lists of integration centers etc. from given atomic structure:
  | Number of centers in hartree potential         :        12
  | Number of centers in hartree multipole         :        12
  | Number of centers in electron density summation:        12
  | Number of centers in basis integrals           :        12
  | Number of centers in integrals                 :        12
  | Number of centers in hamiltonian               :        12
  * Using 24 tasks for Scalapack Eigenvalue solver.
  Detailed listing of tasks and assigned k-points:
  (for non-periodic systems, the "k-point" denotes an internal label only)
   Task     0 k-point     1 on node-k98a-025
   Task     1 k-point     1 on node-k98a-025
   Task     2 k-point     1 on node-k98a-025
   Task     3 k-point     1 on node-k98a-025
   Task     4 k-point     1 on node-k98a-025
   Task     5 k-point     1 on node-k98a-025
   Task     6 k-point     1 on node-k98a-025
   Task     7 k-point     1 on node-k98a-025
   Task     8 k-point     1 on node-k98a-025
   Task     9 k-point     1 on node-k98a-025
   Task    10 k-point     1 on node-k98a-025
   Task    11 k-point     1 on node-k98a-025
   Task    12 k-point     1 on node-k98a-025
   Task    13 k-point     1 on node-k98a-025
   Task    14 k-point     1 on node-k98a-025
   Task    15 k-point     1 on node-k98a-025
   Task    16 k-point     1 on node-k98a-025
   Task    17 k-point     1 on node-k98a-025
   Task    18 k-point     1 on node-k98a-025
   Task    19 k-point     1 on node-k98a-025
   Task    20 k-point     1 on node-k98a-025
   Task    21 k-point     1 on node-k98a-025
   Task    22 k-point     1 on node-k98a-025
   Task    23 k-point     1 on node-k98a-025
  Tasks:    24 split into      6 X      4 BLACS grid
  Calculating block size based on n_basis =          180  max_nprow =            6  max_npcol =            4
  ScaLAPACK block size set to:           16
  Allocating        0.012 MB for ovlp
  Allocating        0.012 MB for ham
  Allocating        0.012 MB for eigenvec
  Required Scalapack workspace - INTEGER:            1  REAL:             1
  Partitioning the integration grid into batches with parallel hashing+maxmin method.
  | Number of batches:     1031
  | Maximal batch size:     200
  | Minimal batch size:      18
  | Average batch size:      89.156
  | Standard deviation of batch sizes:      25.589

  Integration load balanced across    24 MPI tasks.
  Work distribution over tasks is as follows:
  Task     0 has       3867 integration points.
  Task     1 has       3775 integration points.
  Task     2 has       3867 integration points.
  Task     3 has       3868 integration points.
  Task     4 has       3894 integration points.
  Task     5 has       3813 integration points.
  Task     6 has       3816 integration points.
  Task     7 has       3797 integration points.
  Task     8 has       3891 integration points.
  Task     9 has       3873 integration points.
  Task    10 has       3781 integration points.
  Task    11 has       3775 integration points.
  Task    12 has       3805 integration points.
  Task    13 has       3775 integration points.
  Task    14 has       3809 integration points.
  Task    15 has       3801 integration points.
  Task    16 has       3796 integration points.
  Task    17 has       3798 integration points.
  Task    18 has       3931 integration points.
  Task    19 has       3864 integration points.
  Task    20 has       3779 integration points.
  Task    21 has       3789 integration points.
  Task    22 has       3925 integration points.
  Task    23 has       3831 integration points.
  Initializing partition tables, free-atom densities, potentials, etc. across the integration grid (initialize_grid_storage).
  | initialize_grid_storage: Actual outermost partition radius vs. multipole_radius_free
  | (-- VB: in principle, multipole_radius_free should be larger, hence this output)
  | Species        1: Confinement radius =              4.999999999999999 AA, multipole_radius_free =              5.004487022111096 AA.
  | Species        1: outer_partition_radius set to              5.004487022111096 AA .
  | Species        2: Confinement radius =              4.999999999999999 AA, multipole_radius_free =              5.009370088163274 AA.
  | Species        2: outer_partition_radius set to              5.009370088163274 AA .
  | The sparse table of interatomic distances needs          1.64 kbyte instead of         1.15 kbyte of memory.
  | Using the partition_type stratmann_smoother will reduce your memory usage.
  | Net number of integration points:    91920
  | of which are non-zero points    :    85112
  Renormalizing the initial density to the exact electron count on the 3D integration grid.
  | Initial density: Formal number of electrons (from input files) :     120.0000000000
  | Integrated number of electrons on 3D grid     :     119.9998257139
  | Charge integration error                      :      -0.0001742861
  | Normalization factor for density and gradient :       1.0000014524
  Renormalizing the free-atom superposition density to the exact electron count on the 3D integration grid.
  | Formal number of electrons (from input files) :     120.0000000000
  | Integrated number of electrons on 3D grid     :     119.9998257139
  | Charge integration error                      :      -0.0001742861
  | Normalization factor for density and gradient :       1.0000014524
  Obtaining max. number of non-zero basis functions in each batch (get_n_compute_maxes).
  | Maximal number of non-zero basis functions:      165 in task     0
  | Maximal number of non-zero basis functions:      166 in task     1
  | Maximal number of non-zero basis functions:      167 in task     2
  | Maximal number of non-zero basis functions:      165 in task     3
  | Maximal number of non-zero basis functions:      171 in task     4
  | Maximal number of non-zero basis functions:      165 in task     5
  | Maximal number of non-zero basis functions:      163 in task     6
  | Maximal number of non-zero basis functions:      170 in task     7
  | Maximal number of non-zero basis functions:      172 in task     8
  | Maximal number of non-zero basis functions:      171 in task     9
  | Maximal number of non-zero basis functions:      171 in task    10
  | Maximal number of non-zero basis functions:      163 in task    11
  | Maximal number of non-zero basis functions:      170 in task    12
  | Maximal number of non-zero basis functions:      171 in task    13
  | Maximal number of non-zero basis functions:      171 in task    14
  | Maximal number of non-zero basis functions:      166 in task    15
  | Maximal number of non-zero basis functions:      166 in task    16
  | Maximal number of non-zero basis functions:      164 in task    17
  | Maximal number of non-zero basis functions:      166 in task    18
  | Maximal number of non-zero basis functions:      166 in task    19
  | Maximal number of non-zero basis functions:      172 in task    20
  | Maximal number of non-zero basis functions:      165 in task    21
  | Maximal number of non-zero basis functions:      170 in task    22
  | Maximal number of non-zero basis functions:      172 in task    23
  Selecting the method for density update.
  Loop over occupied states selected for charge density update.
  Allocating        0.132 MB for KS_eigenvector
  Integrating Hamiltonian matrix: batch-based integration.
  Time summed over all CPUs for integration: real work        0.758 s, elapsed        0.796 s
  Integrating overlap matrix.
  Time summed over all CPUs for integration: real work        0.291 s, elapsed        0.331 s
  Deallocating overlap matrix.

  Updating Kohn-Sham eigenvalues and eigenvectors using ELSI and the ELPA eigensolver.
  Overlap matrix is not singular
  | Lowest and highest eigenvalues :  0.3056E-02,  0.5745E+01
  Finished singularity check of overlap matrix
  | Time :     0.018 s
  Starting ELPA eigensolver
  Finished Cholesky decomposition
  | Time :     0.002 s
  Finished transformation to standard eigenproblem
  | Time :     0.003 s
  Finished solving standard eigenproblem
  | Time :     0.004 s
  Finished back-transformation of eigenvectors
  | Time :     0.002 s

  Obtaining occupation numbers and chemical potential using ELSI.
  | Chemical potential (Fermi level):    -7.21233330 eV
  Writing Kohn-Sham eigenvalues.

  State    Occupation    Eigenvalue [Ha]    Eigenvalue [eV]
      1       2.00000         -55.486093        -1509.85341
      2       2.00000         -55.484806        -1509.81838
      3       2.00000         -55.484047        -1509.79772
      4       2.00000         -24.363609         -662.96752
      5       2.00000         -24.358063         -662.81663
      6       2.00000         -24.355304         -662.74154
      7       2.00000         -24.355076         -662.73534
      8       2.00000         -24.352018         -662.65213
      9       2.00000         -24.341633         -662.36953
     10       2.00000         -24.340612         -662.34176
     11       2.00000         -24.340391         -662.33573
     12       2.00000         -24.338599         -662.28698
     13       2.00000          -3.951727         -107.53197
     14       2.00000          -3.950124         -107.48833
     15       2.00000          -3.949209         -107.46345
     16       2.00000          -2.544669          -69.24396
     17       2.00000          -2.543625          -69.21555
     18       2.00000          -2.543249          -69.20534
     19       2.00000          -2.542749          -69.19173
     20       2.00000          -2.541810          -69.16617
     21       2.00000          -2.541683          -69.16271
     22       2.00000          -2.541386          -69.15464
     23       2.00000          -2.540754          -69.13743
     24       2.00000          -2.539993          -69.11672
     25       2.00000          -1.191031          -32.40961
     26       2.00000          -1.181179          -32.14152
     27       2.00000          -1.176303          -32.00883
     28       2.00000          -1.170920          -31.86234
     29       2.00000          -1.162428          -31.63128
     30       2.00000          -1.150432          -31.30485
     31       2.00000          -1.149328          -31.27482
     32       2.00000          -1.148905          -31.26330
     33       2.00000          -1.144865          -31.15337
     34       2.00000          -0.560711          -15.25772
     35       2.00000          -0.557455          -15.16911
     36       2.00000          -0.544660          -14.82095
     37       2.00000          -0.522463          -14.21693
     38       2.00000          -0.521272          -14.18455
     39       2.00000          -0.510876          -13.90166
     40       2.00000          -0.506990          -13.79590
     41       2.00000          -0.503082          -13.68955
     42       2.00000          -0.498299          -13.55940
     43       2.00000          -0.495561          -13.48491
     44       2.00000          -0.489344          -13.31573
     45       2.00000          -0.488350          -13.28867
     46       2.00000          -0.479223          -13.04032
     47       2.00000          -0.473260          -12.87806
     48       2.00000          -0.472622          -12.86070
     49       2.00000          -0.467188          -12.71283
     50       2.00000          -0.465432          -12.66504
     51       2.00000          -0.460895          -12.54160
     52       2.00000          -0.454131          -12.35754
     53       2.00000          -0.453055          -12.32825
     54       2.00000          -0.452657          -12.31743
     55       2.00000          -0.451807          -12.29430
     56       2.00000          -0.450833          -12.26780
     57       2.00000          -0.449919          -12.24291
     58       2.00000          -0.444195          -12.08715
     59       2.00000          -0.444011          -12.08215
     60       2.00000          -0.440327          -11.98190
     61       0.00000          -0.143256           -3.89820
     62       0.00000          -0.088387           -2.40513
     63       0.00000          -0.070371           -1.91489
     64       0.00000          -0.033678           -0.91641
     65       0.00000          -0.021063           -0.57315
     66       0.00000           0.000312            0.00848
     67       0.00000           0.020332            0.55327
     68       0.00000           0.033049            0.89932
     69       0.00000           0.051758            1.40842
     70       0.00000           0.075877            2.06471
     71       0.00000           0.078686            2.14115
     72       0.00000           0.116082            3.15875
     73       0.00000           0.148876            4.05114
     74       0.00000           0.162859            4.43161
     75       0.00000           0.168152            4.57566
     76       0.00000           0.181495            4.93874
     77       0.00000           0.194464            5.29164
     78       0.00000           0.196004            5.33353
     79       0.00000           0.209694            5.70607
     80       0.00000           0.217281            5.91251
     81       0.00000           0.226211            6.15552
     82       0.00000           0.228266            6.21142
     83       0.00000           0.237859            6.47248
     84       0.00000           0.239445            6.51564
     85       0.00000           0.262581            7.14518
     86       0.00000           0.266719            7.25780
     87       0.00000           0.269095            7.32245
     88       0.00000           0.276176            7.51512
     89       0.00000           0.278922            7.58985
     90       0.00000           0.293109            7.97590
     91       0.00000           0.295742            8.04755
     92       0.00000           0.336133            9.14664
     93       0.00000           0.339059            9.22626
     94       0.00000           0.360087            9.79847
     95       0.00000           0.371095           10.09801
     96       0.00000           0.389747           10.60555

  Highest occupied state (VBM) at    -11.98190176 eV
  | Occupation number:      2.00000000

  Lowest unoccupied state (CBM) at    -3.89820188 eV
  | Occupation number:      0.00000000

  Overall HOMO-LUMO gap:      8.08369988 eV.
  Calculating total energy contributions from superposition of free atom densities.

  Total energy components:
  | Sum of eigenvalues            :        -887.73047706 Ha      -24156.37534355 eV
  | XC energy correction          :        -144.40000703 Ha       -3929.32411302 eV
  | XC potential correction       :         188.02075478 Ha        5116.30505235 eV
  | Free-atom electrostatic energy:        -781.24558141 Ha      -21258.77390466 eV
  | Hartree energy correction     :           0.00000000 Ha           0.00000000 eV
  | Entropy correction            :           0.00000000 Ha           0.00000000 eV
  | ---------------------------
  | Total energy                  :       -1625.35531071 Ha      -44228.16830888 eV
  | Total energy, T -> 0          :       -1625.35531071 Ha      -44228.16830888 eV  <-- do not rely on this value for anything but (periodic) metals
  | Electronic free energy        :       -1625.35531071 Ha      -44228.16830888 eV

  Derived energy quantities:
  | Kinetic energy                :        1627.74992186 Ha       44293.32899362 eV
  | Electrostatic energy          :       -3108.70522555 Ha      -84592.17318948 eV
  | Energy correction for multipole
  | error in Hartree potential    :           0.00000000 Ha           0.00000000 eV
  | Sum of eigenvalues per atom                           :       -2013.03127863 eV
  | Total energy (T->0) per atom                          :       -3685.68069241 eV  <-- do not rely on this value for anything but (periodic) metals
  | Electronic free energy per atom                       :       -3685.68069241 eV
  Initialize hartree_potential_storage
  Max. number of atoms included in rho_multipole:           12

  End scf initialization - timings             :  max(cpu_time)    wall_clock(cpu1)
  | Time for scf. initialization                :        0.171 s           0.172 s
  | Boundary condition initialization           :        0.000 s           0.000 s
  | Integration                                 :        0.054 s           0.054 s
  | Solution of K.-S. eqns.                     :        0.033 s           0.034 s
  | Grid partitioning                           :        0.054 s           0.055 s
  | Preloading free-atom quantities on grid     :        0.017 s           0.019 s
  | Free-atom superposition energy              :        0.008 s           0.008 s
  | Total energy evaluation                     :        0.000 s           0.000 s

  Partial memory accounting:
  | Current value for overall tracked memory usage:
  |   Minimum:        0.273 MB (on task 23)
  |   Maximum:        0.292 MB (on task  0)
  |   Average:        0.287 MB
  | Peak value for overall tracked memory usage:
  |   Minimum:        1.360 MB (on task 11 after allocating wave)
  |   Maximum:        1.433 MB (on task  8 after allocating wave)
  |   Average:        1.399 MB
  | Largest tracked array allocation so far:
  |   Minimum:        0.249 MB (H_times_psi on task  6)
  |   Maximum:        0.544 MB (all_coords on task 14)
  |   Average:        0.276 MB
  Note:  These values currently only include a subset of arrays which are explicitly tracked.
  The "true" memory usage will be greater.
------------------------------------------------------------
  Evaluating new KS density.
  Integration grid: deviation in total charge (<rho> - N_e) =   2.842171E-14

  Time for density update prior                :  max(cpu_time)    wall_clock(cpu1)
  | self-consistency iterative process          :        0.032 s           0.032 s

------------------------------------------------------------
          Begin self-consistency iteration #    1

  Date     :  20220517, Time     :  120741.975
------------------------------------------------------------
  Pulay mixing of updated and previous charge densities.
  Renormalizing the density to the exact electron count on the 3D integration grid.
  | Formal number of electrons (from input files) :     120.0000000000
  | Integrated number of electrons on 3D grid     :     120.0000000000
  | Charge integration error                      :       0.0000000000
  | Normalization factor for density and gradient :       1.0000000000

  Evaluating partitioned Hartree potential by multipole expansion.
  | Original multipole sum: apparent total charge =   0.468341E-13
  | Sum of charges compensated after spline to logarithmic grids =   0.862519E-04
  | Analytical far-field extrapolation by fixed multipoles:
  | Hartree multipole sum: apparent total charge =   0.470678E-13
  Summing up the Hartree potential.
  Time summed over all CPUs for potential: real work        0.381 s, elapsed        0.389 s
  | RMS charge density error from multipole expansion :   0.108183E-01

  Integrating Hamiltonian matrix: batch-based integration.
  Time summed over all CPUs for integration: real work        0.705 s, elapsed        0.738 s

  Updating Kohn-Sham eigenvalues and eigenvectors using ELSI and the ELPA eigensolver.
  Starting ELPA eigensolver
  Finished transformation to standard eigenproblem
  | Time :     0.005 s
  Finished solving standard eigenproblem
  | Time :     0.013 s
  Finished back-transformation of eigenvectors
  | Time :     0.004 s

  Obtaining occupation numbers and chemical potential using ELSI.
  | Chemical potential (Fermi level):    -7.38978244 eV
  Writing Kohn-Sham eigenvalues.

  State    Occupation    Eigenvalue [Ha]    Eigenvalue [eV]
      1       2.00000         -55.678768        -1515.09635
      2       2.00000         -55.658785        -1514.55260
      3       2.00000         -55.620105        -1513.50006
      4       2.00000         -24.248504         -659.83538
      5       2.00000         -24.225889         -659.21997
      6       2.00000         -24.225260         -659.20286
      7       2.00000         -24.199235         -658.49468
      8       2.00000         -24.186936         -658.16001
      9       2.00000         -24.093584         -655.61979
     10       2.00000         -24.070974         -655.00453
     11       2.00000         -24.042159         -654.22042
     12       2.00000         -24.032409         -653.95512
     13       2.00000          -4.117299         -112.03742
     14       2.00000          -4.097384         -111.49550
     15       2.00000          -4.058843         -110.44674
     16       2.00000          -2.710205          -73.74842
     17       2.00000          -2.710041          -73.74396
     18       2.00000          -2.709726          -73.73539
     19       2.00000          -2.690998          -73.22579
     20       2.00000          -2.690077          -73.20072
     21       2.00000          -2.689066          -73.17321
     22       2.00000          -2.652702          -72.18370
     23       2.00000          -2.652028          -72.16534
     24       2.00000          -2.649683          -72.10155
     25       2.00000          -1.168392          -31.79355
     26       2.00000          -1.154218          -31.40786
     27       2.00000          -1.138676          -30.98495
     28       2.00000          -1.127167          -30.67177
     29       2.00000          -1.106089          -30.09822
     30       2.00000          -1.038692          -28.26425
     31       2.00000          -1.016844          -27.66972
     32       2.00000          -0.992038          -26.99474
     33       2.00000          -0.982975          -26.74811
     34       2.00000          -0.559620          -15.22804
     35       2.00000          -0.547301          -14.89282
     36       2.00000          -0.522996          -14.23145
     37       2.00000          -0.497982          -13.55079
     38       2.00000          -0.493664          -13.43328
     39       2.00000          -0.477850          -13.00295
     40       2.00000          -0.476309          -12.96102
     41       2.00000          -0.471858          -12.83991
     42       2.00000          -0.457130          -12.43915
     43       2.00000          -0.449270          -12.22526
     44       2.00000          -0.436785          -11.88552
     45       2.00000          -0.425718          -11.58438
     46       2.00000          -0.414546          -11.28038
     47       2.00000          -0.411219          -11.18984
     48       2.00000          -0.401847          -10.93482
     49       2.00000          -0.390373          -10.62259
     50       2.00000          -0.379119          -10.31637
     51       2.00000          -0.366104           -9.96220
     52       2.00000          -0.348352           -9.47913
     53       2.00000          -0.347604           -9.45879
     54       2.00000          -0.332170           -9.03881
     55       2.00000          -0.326743           -8.89113
     56       2.00000          -0.325136           -8.84740
     57       2.00000          -0.306250           -8.33349
     58       2.00000          -0.302795           -8.23947
     59       2.00000          -0.290900           -7.91579
     60       2.00000          -0.283414           -7.71209
     61       0.00000          -0.163581           -4.45128
     62       0.00000          -0.102218           -2.78149
     63       0.00000          -0.067369           -1.83321
     64       0.00000          -0.060484           -1.64585
     65       0.00000          -0.054086           -1.47176
     66       0.00000          -0.019991           -0.54400
     67       0.00000           0.019564            0.53237
     68       0.00000           0.026934            0.73290
     69       0.00000           0.039960            1.08737
     70       0.00000           0.064306            1.74985
     71       0.00000           0.087742            2.38757
     72       0.00000           0.099279            2.70151
     73       0.00000           0.141726            3.85657
     74       0.00000           0.157048            4.27349
     75       0.00000           0.158307            4.30775
     76       0.00000           0.167204            4.54985
     77       0.00000           0.180257            4.90503
     78       0.00000           0.192734            5.24457
     79       0.00000           0.199320            5.42376
     80       0.00000           0.215683            5.86903
     81       0.00000           0.217243            5.91148
     82       0.00000           0.227925            6.20216
     83       0.00000           0.229526            6.24571
     84       0.00000           0.233716            6.35974
     85       0.00000           0.248474            6.76132
     86       0.00000           0.251111            6.83309
     87       0.00000           0.257796            7.01499
     88       0.00000           0.264687            7.20251
     89       0.00000           0.279757            7.61257
     90       0.00000           0.285347            7.76470
     91       0.00000           0.290561            7.90658
     92       0.00000           0.339973            9.25113
     93       0.00000           0.350115            9.52713
     94       0.00000           0.366709            9.97865
     95       0.00000           0.381063           10.36926
     96       0.00000           0.385433           10.48816

  Highest occupied state (VBM) at     -7.71209009 eV
  | Occupation number:      2.00000000

  Lowest unoccupied state (CBM) at    -4.45127682 eV
  | Occupation number:      0.00000000

  Overall HOMO-LUMO gap:      3.26081327 eV.

  Total energy components:
  | Sum of eigenvalues            :        -882.95761417 Ha      -24026.49913646 eV
  | XC energy correction          :        -145.68458993 Ha       -3964.27939221 eV
  | XC potential correction       :         189.70916040 Ha        5162.24890676 eV
  | Free-atom electrostatic energy:        -781.24558141 Ha      -21258.77390466 eV
  | Hartree energy correction     :          -4.96095493 Ha        -134.99445202 eV
  | Entropy correction            :           0.00000000 Ha           0.00000000 eV
  | ---------------------------
  | Total energy                  :       -1625.13958004 Ha      -44222.29797860 eV
  | Total energy, T -> 0          :       -1625.13958004 Ha      -44222.29797860 eV  <-- do not rely on this value for anything but (periodic) metals
  | Electronic free energy        :       -1625.13958004 Ha      -44222.29797860 eV

  Derived energy quantities:
  | Kinetic energy                :        1633.86897055 Ha       44459.83678034 eV
  | Electrostatic energy          :       -3113.32396067 Ha      -84717.85536673 eV
  | Energy correction for multipole
  | error in Hartree potential    :           0.03315135 Ha           0.90209400 eV
  | Sum of eigenvalues per atom                           :       -2002.20826137 eV
  | Total energy (T->0) per atom                          :       -3685.19149822 eV  <-- do not rely on this value for anything but (periodic) metals
  | Electronic free energy per atom                       :       -3685.19149822 eV
  Evaluating new KS density.
  Integration grid: deviation in total charge (<rho> - N_e) =   0.000000E+00

  Self-consistency convergence accuracy:
  | Change of charge density      :  0.5897E+00
  | Change of sum of eigenvalues  :  0.1299E+03 eV
  | Change of total energy        :  0.5870E+01 eV


------------------------------------------------------------
  End self-consistency iteration #     1       :  max(cpu_time)    wall_clock(cpu1)
  | Time for this iteration                     :        0.124 s           0.124 s
  | Charge density update                       :        0.030 s           0.031 s
  | Density mixing                              :        0.001 s           0.001 s
  | Hartree multipole update                    :        0.012 s           0.012 s
  | Hartree multipole summation                 :        0.018 s           0.018 s
  | Integration                                 :        0.036 s           0.036 s
  | Solution of K.-S. eqns.                     :        0.024 s           0.024 s
  | Total energy evaluation                     :        0.002 s           0.002 s

  Partial memory accounting:
  | Current value for overall tracked memory usage:
  |   Minimum:        0.273 MB (on task 23)
  |   Maximum:        0.292 MB (on task  0)
  |   Average:        0.287 MB
  | Peak value for overall tracked memory usage:
  |   Minimum:        1.360 MB (on task 11 after allocating wave)
  |   Maximum:        1.433 MB (on task  8 after allocating wave)
  |   Average:        1.399 MB
  | Largest tracked array allocation so far:
  |   Minimum:        0.746 MB (gradient_basis_wave on task  6)
  |   Maximum:        0.787 MB (gradient_basis_wave on task  8)
  |   Average:        0.768 MB
  Note:  These values currently only include a subset of arrays which are explicitly tracked.
  The "true" memory usage will be greater.
------------------------------------------------------------

------------------------------------------------------------
          Begin self-consistency iteration #    2

  Date     :  20220517, Time     :  120742.108
------------------------------------------------------------
  Pulay mixing of updated and previous charge densities.
  Renormalizing the density to the exact electron count on the 3D integration grid.
  | Formal number of electrons (from input files) :     120.0000000000
  | Integrated number of electrons on 3D grid     :     120.0000000000
  | Charge integration error                      :      -0.0000000000
  | Normalization factor for density and gradient :       1.0000000000

  Evaluating partitioned Hartree potential by multipole expansion.
  | Original multipole sum: apparent total charge =  -0.483530E-13
  | Sum of charges compensated after spline to logarithmic grids =   0.473183E-04
  | Analytical far-field extrapolation by fixed multipoles:
  | Hartree multipole sum: apparent total charge =  -0.485098E-13
  Summing up the Hartree potential.
  Time summed over all CPUs for potential: real work        0.380 s, elapsed        0.387 s
  | RMS charge density error from multipole expansion :   0.126227E-01

  Integrating Hamiltonian matrix: batch-based integration.
  Time summed over all CPUs for integration: real work        0.706 s, elapsed        0.735 s

  Updating Kohn-Sham eigenvalues and eigenvectors using ELSI and the ELPA eigensolver.
  Starting ELPA eigensolver
  Finished transformation to standard eigenproblem
  | Time :     0.007 s
  Finished solving standard eigenproblem
  | Time :     0.019 s
  Finished back-transformation of eigenvectors
  | Time :     0.002 s

  Obtaining occupation numbers and chemical potential using ELSI.
  | Chemical potential (Fermi level):    -7.63698592 eV
  Highest occupied state (VBM) at     -8.72936177 eV
  | Occupation number:      2.00000000

  Lowest unoccupied state (CBM) at    -4.68342549 eV
  | Occupation number:      0.00000000

  Overall HOMO-LUMO gap:      4.04593628 eV.

  Checking to see if s.c.f. parameters should be adjusted.

  Total energy components:
  | Sum of eigenvalues            :        -885.82867678 Ha      -24104.62472497 eV
  | XC energy correction          :        -145.21532829 Ha       -3951.51013353 eV
  | XC potential correction       :         189.09181271 Ha        5145.45002142 eV
  | Free-atom electrostatic energy:        -781.24558141 Ha      -21258.77390466 eV
  | Hartree energy correction     :          -1.88328437 Ha         -51.24677517 eV
  | Entropy correction            :           0.00000000 Ha           0.00000000 eV
  | ---------------------------
  | Total energy                  :       -1625.08105815 Ha      -44220.70551690 eV
  | Total energy, T -> 0          :       -1625.08105815 Ha      -44220.70551690 eV  <-- do not rely on this value for anything but (periodic) metals
  | Electronic free energy        :       -1625.08105815 Ha      -44220.70551690 eV

  Derived energy quantities:
  | Kinetic energy                :        1630.10820205 Ha       44357.50106247 eV
  | Electrostatic energy          :       -3109.97393190 Ha      -84626.69644584 eV
  | Energy correction for multipole
  | error in Hartree potential    :           0.03705059 Ha           1.00819789 eV
  | Sum of eigenvalues per atom                           :       -2008.71872708 eV
  | Total energy (T->0) per atom                          :       -3685.05879308 eV  <-- do not rely on this value for anything but (periodic) metals
  | Electronic free energy per atom                       :       -3685.05879308 eV
  Evaluating new KS density.
  Integration grid: deviation in total charge (<rho> - N_e) =   0.000000E+00

  Self-consistency convergence accuracy:
  | Change of charge density      :  0.4543E+00
  | Change of sum of eigenvalues  : -0.7813E+02 eV
  | Change of total energy        :  0.1592E+01 eV


------------------------------------------------------------
  End self-consistency iteration #     2       :  max(cpu_time)    wall_clock(cpu1)
  | Time for this iteration                     :        0.127 s           0.122 s
  | Charge density update                       :        0.030 s           0.030 s
  | Density mixing                              :        0.010 s           0.005 s
  | Hartree multipole update                    :        0.006 s           0.006 s
  | Hartree multipole summation                 :        0.017 s           0.017 s
  | Integration                                 :        0.032 s           0.032 s
  | Solution of K.-S. eqns.                     :        0.031 s           0.031 s
  | Total energy evaluation                     :        0.000 s           0.001 s

  Partial memory accounting:
  | Current value for overall tracked memory usage:
  |   Minimum:        0.274 MB (on task 23)
  |   Maximum:        0.293 MB (on task  0)
  |   Average:        0.288 MB
  | Peak value for overall tracked memory usage:
  |   Minimum:        1.360 MB (on task 11 after allocating wave)
  |   Maximum:        1.433 MB (on task  8 after allocating wave)
  |   Average:        1.399 MB
  | Largest tracked array allocation so far:
  |   Minimum:        0.746 MB (gradient_basis_wave on task  6)
  |   Maximum:        0.787 MB (gradient_basis_wave on task  8)
  |   Average:        0.768 MB
  Note:  These values currently only include a subset of arrays which are explicitly tracked.
  The "true" memory usage will be greater.
------------------------------------------------------------

------------------------------------------------------------
          Begin self-consistency iteration #    3

  Date     :  20220517, Time     :  120742.240
------------------------------------------------------------
  Pulay mixing of updated and previous charge densities.
  Renormalizing the density to the exact electron count on the 3D integration grid.
  | Formal number of electrons (from input files) :     120.0000000000
  | Integrated number of electrons on 3D grid     :     120.0000000000
  | Charge integration error                      :       0.0000000000
  | Normalization factor for density and gradient :       1.0000000000

  Evaluating partitioned Hartree potential by multipole expansion.
  | Original multipole sum: apparent total charge =   0.399836E-13
  | Sum of charges compensated after spline to logarithmic grids =   0.577371E-04
  | Analytical far-field extrapolation by fixed multipoles:
  | Hartree multipole sum: apparent total charge =   0.416117E-13
  Summing up the Hartree potential.
  Time summed over all CPUs for potential: real work        0.380 s, elapsed        0.390 s
  | RMS charge density error from multipole expansion :   0.171639E-01

  Integrating Hamiltonian matrix: batch-based integration.
  Time summed over all CPUs for integration: real work        0.707 s, elapsed        0.785 s

  Updating Kohn-Sham eigenvalues and eigenvectors using ELSI and the ELPA eigensolver.
  Starting ELPA eigensolver
  Finished transformation to standard eigenproblem
  | Time :     0.008 s
  Finished solving standard eigenproblem
  | Time :     0.021 s
  Finished back-transformation of eigenvectors
  | Time :     0.003 s

  Obtaining occupation numbers and chemical potential using ELSI.
  | Chemical potential (Fermi level):    -7.64199150 eV
  Highest occupied state (VBM) at     -8.37494755 eV
  | Occupation number:      2.00000000

  Lowest unoccupied state (CBM) at    -4.91915420 eV
  | Occupation number:      0.00000000

  Overall HOMO-LUMO gap:      3.45579335 eV.

  Total energy components:
  | Sum of eigenvalues            :        -886.76213083 Ha      -24130.02530210 eV
  | XC energy correction          :        -145.18016626 Ha       -3950.55332576 eV
  | XC potential correction       :         189.04441001 Ha        5144.16012830 eV
  | Free-atom electrostatic energy:        -781.24558141 Ha      -21258.77390466 eV
  | Hartree energy correction     :          -0.93651962 Ha         -25.48399537 eV
  | Entropy correction            :           0.00000000 Ha           0.00000000 eV
  | ---------------------------
  | Total energy                  :       -1625.07998811 Ha      -44220.67639959 eV
  | Total energy, T -> 0          :       -1625.07998811 Ha      -44220.67639959 eV  <-- do not rely on this value for anything but (periodic) metals
  | Electronic free energy        :       -1625.07998811 Ha      -44220.67639959 eV

  Derived energy quantities:
  | Kinetic energy                :        1628.44781469 Ha       44312.31962359 eV
  | Electrostatic energy          :       -3108.34763653 Ha      -84582.44269742 eV
  | Energy correction for multipole
  | error in Hartree potential    :           0.04980383 Ha           1.35523117 eV
  | Sum of eigenvalues per atom                           :       -2010.83544184 eV
  | Total energy (T->0) per atom                          :       -3685.05636663 eV  <-- do not rely on this value for anything but (periodic) metals
  | Electronic free energy per atom                       :       -3685.05636663 eV
  Evaluating new KS density.
  Integration grid: deviation in total charge (<rho> - N_e) =   2.842171E-14

  Self-consistency convergence accuracy:
  | Change of charge density      :  0.1230E+00
  | Change of sum of eigenvalues  : -0.2540E+02 eV
  | Change of total energy        :  0.2912E-01 eV


------------------------------------------------------------
  End self-consistency iteration #     3       :  max(cpu_time)    wall_clock(cpu1)
  | Time for this iteration                     :        0.130 s           0.128 s
  | Charge density update                       :        0.030 s           0.031 s
  | Density mixing                              :        0.008 s           0.006 s
  | Hartree multipole update                    :        0.002 s           0.002 s
  | Hartree multipole summation                 :        0.017 s           0.017 s
  | Integration                                 :        0.036 s           0.037 s
  | Solution of K.-S. eqns.                     :        0.035 s           0.035 s
  | Total energy evaluation                     :        0.000 s           0.000 s

  Partial memory accounting:
  | Current value for overall tracked memory usage:
  |   Minimum:        0.274 MB (on task 23)
  |   Maximum:        0.293 MB (on task  0)
  |   Average:        0.288 MB
  | Peak value for overall tracked memory usage:
  |   Minimum:        1.360 MB (on task 11 after allocating wave)
  |   Maximum:        1.433 MB (on task  8 after allocating wave)
  |   Average:        1.399 MB
  | Largest tracked array allocation so far:
  |   Minimum:        0.746 MB (gradient_basis_wave on task  6)
  |   Maximum:        0.787 MB (gradient_basis_wave on task  8)
  |   Average:        0.768 MB
  Note:  These values currently only include a subset of arrays which are explicitly tracked.
  The "true" memory usage will be greater.
------------------------------------------------------------

------------------------------------------------------------
          Begin self-consistency iteration #    4

  Date     :  20220517, Time     :  120742.382
------------------------------------------------------------
  Pulay mixing of updated and previous charge densities.
  Renormalizing the density to the exact electron count on the 3D integration grid.
  | Formal number of electrons (from input files) :     120.0000000000
  | Integrated number of electrons on 3D grid     :     120.0000000000
  | Charge integration error                      :       0.0000000000
  | Normalization factor for density and gradient :       1.0000000000

  Evaluating partitioned Hartree potential by multipole expansion.
  | Original multipole sum: apparent total charge =   0.359680E-13
  | Sum of charges compensated after spline to logarithmic grids =   0.617087E-04
  | Analytical far-field extrapolation by fixed multipoles:
  | Hartree multipole sum: apparent total charge =   0.355791E-13
  Summing up the Hartree potential.
  Time summed over all CPUs for potential: real work        0.380 s, elapsed        0.387 s
  | RMS charge density error from multipole expansion :   0.191904E-01

  Integrating Hamiltonian matrix: batch-based integration.
  Time summed over all CPUs for integration: real work        0.708 s, elapsed        0.782 s

  Updating Kohn-Sham eigenvalues and eigenvectors using ELSI and the ELPA eigensolver.
  Starting ELPA eigensolver
  Finished transformation to standard eigenproblem
  | Time :     0.008 s
  Finished solving standard eigenproblem
  | Time :     0.012 s
  Finished back-transformation of eigenvectors
  | Time :     0.001 s

  Obtaining occupation numbers and chemical potential using ELSI.
  | Chemical potential (Fermi level):    -7.63498804 eV
  Highest occupied state (VBM) at     -8.35293267 eV
  | Occupation number:      2.00000000

  Lowest unoccupied state (CBM) at    -4.90402593 eV
  | Occupation number:      0.00000000

  Overall HOMO-LUMO gap:      3.44890674 eV.

  Total energy components:
  | Sum of eigenvalues            :        -886.88047177 Ha      -24133.24552293 eV
  | XC energy correction          :        -145.16429139 Ha       -3950.12134879 eV
  | XC potential correction       :         189.02289841 Ha        5143.57476791 eV
  | Free-atom electrostatic energy:        -781.24558141 Ha      -21258.77390466 eV
  | Hartree energy correction     :          -0.81042064 Ha         -22.05266765 eV
  | Entropy correction            :           0.00000000 Ha           0.00000000 eV
  | ---------------------------
  | Total energy                  :       -1625.07786681 Ha      -44220.61867612 eV
  | Total energy, T -> 0          :       -1625.07786681 Ha      -44220.61867612 eV  <-- do not rely on this value for anything but (periodic) metals
  | Electronic free energy        :       -1625.07786681 Ha      -44220.61867612 eV

  Derived energy quantities:
  | Kinetic energy                :        1627.78797406 Ha       44294.36444661 eV
  | Electrostatic energy          :       -3107.70154947 Ha      -84564.86177394 eV
  | Energy correction for multipole
  | error in Hartree potential    :           0.05501865 Ha           1.49713357 eV
  | Sum of eigenvalues per atom                           :       -2011.10379358 eV
  | Total energy (T->0) per atom                          :       -3685.05155634 eV  <-- do not rely on this value for anything but (periodic) metals
  | Electronic free energy per atom                       :       -3685.05155634 eV
  Evaluating new KS density.
  Integration grid: deviation in total charge (<rho> - N_e) =   5.684342E-14

  Self-consistency convergence accuracy:
  | Change of charge density      :  0.8185E-01
  | Change of sum of eigenvalues  : -0.3220E+01 eV
  | Change of total energy        :  0.5772E-01 eV


------------------------------------------------------------
  End self-consistency iteration #     4       :  max(cpu_time)    wall_clock(cpu1)
  | Time for this iteration                     :        0.117 s           0.112 s
  | Charge density update                       :        0.030 s           0.031 s
  | Density mixing                              :        0.009 s           0.002 s
  | Hartree multipole update                    :        0.001 s           0.001 s
  | Hartree multipole summation                 :        0.018 s           0.018 s
  | Integration                                 :        0.036 s           0.035 s
  | Solution of K.-S. eqns.                     :        0.025 s           0.025 s
  | Total energy evaluation                     :        0.000 s           0.000 s

  Partial memory accounting:
  | Current value for overall tracked memory usage:
  |   Minimum:        0.274 MB (on task 23)
  |   Maximum:        0.293 MB (on task  0)
  |   Average:        0.288 MB
  | Peak value for overall tracked memory usage:
  |   Minimum:        1.360 MB (on task 11 after allocating wave)
  |   Maximum:        1.433 MB (on task  8 after allocating wave)
  |   Average:        1.399 MB
  | Largest tracked array allocation so far:
  |   Minimum:        0.746 MB (gradient_basis_wave on task  6)
  |   Maximum:        0.787 MB (gradient_basis_wave on task  8)
  |   Average:        0.768 MB
  Note:  These values currently only include a subset of arrays which are explicitly tracked.
  The "true" memory usage will be greater.
------------------------------------------------------------

------------------------------------------------------------
          Begin self-consistency iteration #    5

  Date     :  20220517, Time     :  120742.507
------------------------------------------------------------
  Pulay mixing of updated and previous charge densities.
  Renormalizing the density to the exact electron count on the 3D integration grid.
  | Formal number of electrons (from input files) :     120.0000000000
  | Integrated number of electrons on 3D grid     :     120.0000000000
  | Charge integration error                      :       0.0000000000
  | Normalization factor for density and gradient :       1.0000000000

  Evaluating partitioned Hartree potential by multipole expansion.
  | Original multipole sum: apparent total charge =  -0.157672E-13
  | Sum of charges compensated after spline to logarithmic grids =   0.625643E-04
  | Analytical far-field extrapolation by fixed multipoles:
  | Hartree multipole sum: apparent total charge =  -0.169033E-13
  Summing up the Hartree potential.
  Time summed over all CPUs for potential: real work        0.380 s, elapsed        0.386 s
  | RMS charge density error from multipole expansion :   0.190150E-01

  Integrating Hamiltonian matrix: batch-based integration.
  Time summed over all CPUs for integration: real work        0.707 s, elapsed        0.752 s

  Updating Kohn-Sham eigenvalues and eigenvectors using ELSI and the ELPA eigensolver.
  Starting ELPA eigensolver
  Finished transformation to standard eigenproblem
  | Time :     0.004 s
  Finished solving standard eigenproblem
  | Time :     0.017 s
  Finished back-transformation of eigenvectors
  | Time :     0.002 s

  Obtaining occupation numbers and chemical potential using ELSI.
  | Chemical potential (Fermi level):    -7.62514943 eV
  Highest occupied state (VBM) at     -8.44029284 eV
  | Occupation number:      2.00000000

  Lowest unoccupied state (CBM) at    -4.83921165 eV
  | Occupation number:      0.00000000

  Overall HOMO-LUMO gap:      3.60108119 eV.

  Total energy components:
  | Sum of eigenvalues            :        -886.69289976 Ha      -24128.14142887 eV
  | XC energy correction          :        -145.16160019 Ha       -3950.04811729 eV
  | XC potential correction       :         189.01952328 Ha        5143.48292594 eV
  | Free-atom electrostatic energy:        -781.24558141 Ha      -21258.77390466 eV
  | Hartree energy correction     :          -0.99718205 Ha         -27.13470421 eV
  | Entropy correction            :           0.00000000 Ha           0.00000000 eV
[...]
   Total forces(   7)            : -0.250140E+00  0.240077E+01 -0.175418E+00
  atom #    8
   Hellmann-Feynman              :  0.677065E+00 -0.857495E+00  0.165729E+00
   Ionic forces                  :  0.000000E+00  0.000000E+00  0.000000E+00
   Multipole                     :  0.364775E+00 -0.251137E+00 -0.171953E+00
   Hartree pot. SCF incomplete   :  0.134828E-05 -0.641300E-06 -0.200788E-05
   Pulay + GGA                   : -0.288526E+01  0.252345E+01  0.409555E+00
   ----------------------------------------------------------------
   Total forces(   8)            : -0.184342E+01  0.141482E+01  0.403329E+00
  atom #    9
   Hellmann-Feynman              : -0.453399E+00  0.600503E+00 -0.324742E+01
   Ionic forces                  :  0.000000E+00  0.000000E+00  0.000000E+00
   Multipole                     : -0.479356E-01  0.112408E+00 -0.896723E+00
   Hartree pot. SCF incomplete   : -0.280960E-06 -0.384466E-06  0.138638E-05
   Pulay + GGA                   :  0.880526E+00 -0.126550E+01  0.759252E+01
   ----------------------------------------------------------------
   Total forces(   9)            :  0.379192E+00 -0.552590E+00  0.344838E+01
  atom #   10
   Hellmann-Feynman              : -0.275513E+00  0.650553E+00  0.809525E+00
   Ionic forces                  :  0.000000E+00  0.000000E+00  0.000000E+00
   Multipole                     :  0.522123E-01  0.469800E+00  0.220520E+00
   Hartree pot. SCF incomplete   : -0.112977E-06  0.235104E-05 -0.204863E-05
   Pulay + GGA                   :  0.276584E+00 -0.341348E+01 -0.209479E+01
   ----------------------------------------------------------------
   Total forces(  10)            :  0.532837E-01 -0.229312E+01 -0.106475E+01
  atom #   11
   Hellmann-Feynman              :  0.286212E+01  0.110506E+01  0.143922E+01
   Ionic forces                  :  0.000000E+00  0.000000E+00  0.000000E+00
   Multipole                     :  0.646375E+00  0.328704E+00  0.354544E+00
   Hartree pot. SCF incomplete   : -0.267337E-06 -0.330593E-06 -0.248160E-06
   Pulay + GGA                   : -0.625029E+01 -0.259649E+01 -0.343902E+01
   ----------------------------------------------------------------
   Total forces(  11)            : -0.274180E+01 -0.116272E+01 -0.164525E+01
  atom #   12
   Hellmann-Feynman              : -0.138689E+00 -0.335330E+00  0.326361E+00
   Ionic forces                  :  0.000000E+00  0.000000E+00  0.000000E+00
   Multipole                     : -0.337271E+00 -0.364881E+00  0.150191E+00
   Hartree pot. SCF incomplete   : -0.129889E-05 -0.326120E-06 -0.189416E-05
   Pulay + GGA                   :  0.190046E+01  0.154421E+01 -0.753654E+00
   ----------------------------------------------------------------
   Total forces(  12)            :  0.142450E+01  0.843993E+00 -0.277103E+00


  Self-consistency convergence accuracy:
  | Change of charge density      :  0.1153E-06
  | Change of sum of eigenvalues  : -0.4493E-05 eV
  | Change of total energy        :  0.2339E-08 eV
  | Change of forces              :  0.5347E-06 eV/A

  Writing Kohn-Sham eigenvalues.

  State    Occupation    Eigenvalue [Ha]    Eigenvalue [eV]
      1       2.00000         -55.670173        -1514.86248
      2       2.00000         -55.639934        -1514.03965
      3       2.00000         -55.594876        -1512.81354
      4       2.00000         -24.316274         -661.67949
      5       2.00000         -24.312316         -661.57177
      6       2.00000         -24.310768         -661.52964
      7       2.00000         -24.276179         -660.58844
      8       2.00000         -24.272299         -660.48286
      9       2.00000         -24.247775         -659.81554
     10       2.00000         -24.213014         -658.86963
     11       2.00000         -24.172342         -657.76289
     12       2.00000         -24.162584         -657.49738
     13       2.00000          -4.122547         -112.18021
     14       2.00000          -4.091723         -111.34144
     15       2.00000          -4.046132         -110.10084
     16       2.00000          -2.715617          -73.89571
     17       2.00000          -2.714562          -73.86699
     18       2.00000          -2.712241          -73.80384
     19       2.00000          -2.684611          -73.05199
     20       2.00000          -2.683334          -73.01724
     21       2.00000          -2.681952          -72.97964
     22       2.00000          -2.640772          -71.85907
     23       2.00000          -2.637699          -71.77544
     24       2.00000          -2.634454          -71.68714
     25       2.00000          -1.189912          -32.37915
     26       2.00000          -1.179672          -32.10050
     27       2.00000          -1.167405          -31.76670
     28       2.00000          -1.146018          -31.18475
     29       2.00000          -1.127173          -30.67195
     30       2.00000          -1.094842          -29.79217
     31       2.00000          -1.059320          -28.82556
     32       2.00000          -1.020410          -27.76676
     33       2.00000          -1.009393          -27.46699
     34       2.00000          -0.579268          -15.76268
     35       2.00000          -0.564902          -15.37178
     36       2.00000          -0.544049          -14.80433
     37       2.00000          -0.519493          -14.13611
     38       2.00000          -0.519200          -14.12815
     39       2.00000          -0.497998          -13.55122
     40       2.00000          -0.495873          -13.49338
     41       2.00000          -0.493275          -13.42269
     42       2.00000          -0.478949          -13.03286
     43       2.00000          -0.473021          -12.87155
     44       2.00000          -0.462872          -12.59540
     45       2.00000          -0.454805          -12.37587
     46       2.00000          -0.450787          -12.26654
     47       2.00000          -0.435497          -11.85047
     48       2.00000          -0.432447          -11.76748
     49       2.00000          -0.417219          -11.35312
     50       2.00000          -0.411854          -11.20710
     51       2.00000          -0.400264          -10.89173
     52       2.00000          -0.399374          -10.86753
     53       2.00000          -0.388755          -10.57855
     54       2.00000          -0.365818           -9.95441
     55       2.00000          -0.364855           -9.92820
     56       2.00000          -0.357864           -9.73799
     57       2.00000          -0.331451           -9.01924
     58       2.00000          -0.326554           -8.88600
     59       2.00000          -0.315913           -8.59644
     60       2.00000          -0.309134           -8.41196
     61       0.00000          -0.177936           -4.84187
     62       0.00000          -0.115264           -3.13650
     63       0.00000          -0.075851           -2.06401
     64       0.00000          -0.063379           -1.72462
     65       0.00000          -0.062826           -1.70959
     66       0.00000          -0.027002           -0.73475
     67       0.00000           0.015187            0.41326
     68       0.00000           0.023301            0.63405
     69       0.00000           0.037570            1.02234
     70       0.00000           0.062382            1.69751
     71       0.00000           0.084443            2.29782
     72       0.00000           0.097269            2.64683
     73       0.00000           0.132481            3.60499
     74       0.00000           0.149308            4.06289
     75       0.00000           0.150282            4.08939
     76       0.00000           0.161896            4.40543
     77       0.00000           0.175673            4.78031
     78       0.00000           0.186704            5.08048
     79       0.00000           0.197524            5.37490
     80       0.00000           0.210521            5.72856
     81       0.00000           0.214638            5.84059
     82       0.00000           0.222358            6.05068
     83       0.00000           0.226348            6.15925
     84       0.00000           0.228118            6.20740
     85       0.00000           0.245669            6.68500
     86       0.00000           0.246903            6.71857
     87       0.00000           0.250606            6.81933
     88       0.00000           0.257152            6.99747
     89       0.00000           0.279848            7.61504
     90       0.00000           0.283399            7.71168
     91       0.00000           0.285443            7.76731
     92       0.00000           0.337998            9.19739
     93       0.00000           0.343346            9.34293
     94       0.00000           0.359036            9.76987
     95       0.00000           0.369810           10.06304
     96       0.00000           0.376675           10.24985

  Highest occupied state (VBM) at     -8.41195980 eV
  | Occupation number:      2.00000000

  Lowest unoccupied state (CBM) at    -4.84187461 eV
  | Occupation number:      0.00000000

  Overall HOMO-LUMO gap:      3.57008519 eV.
  | Chemical Potential                          :    -7.62256236 eV

  Self-consistency cycle converged.


------------------------------------------------------------
  End self-consistency iteration #    14       :  max(cpu_time)    wall_clock(cpu1)
  | Time for this iteration                     :        0.275 s           0.274 s
  | Charge density & force component update     :        0.152 s           0.151 s
  | Density mixing                              :        0.006 s           0.004 s
  | Hartree multipole update                    :        0.002 s           0.002 s
  | Hartree multipole summation                 :        0.049 s           0.049 s
  | Hartree pot. SCF incomplete forces          :        0.031 s           0.031 s
  | Integration                                 :        0.031 s           0.031 s
  | Solution of K.-S. eqns.                     :        0.005 s           0.004 s
  | Total energy evaluation                     :        0.000 s           0.001 s

  Partial memory accounting:
  | Current value for overall tracked memory usage:
  |   Minimum:        0.274 MB (on task 23)
  |   Maximum:        0.293 MB (on task  0)
  |   Average:        0.289 MB
  | Peak value for overall tracked memory usage:
  |   Minimum:        3.046 MB (on task 11 after allocating hessian_basis_wave)
  |   Maximum:        3.192 MB (on task  8 after allocating hessian_basis_wave)
  |   Average:        3.124 MB
  | Largest tracked array allocation so far:
  |   Minimum:        1.492 MB (hessian_basis_wave on task  6)
  |   Maximum:        1.575 MB (hessian_basis_wave on task  8)
  |   Average:        1.537 MB
  Note:  These values currently only include a subset of arrays which are explicitly tracked.
  The "true" memory usage will be greater.
------------------------------------------------------------
  Removing unitary transformations (pure translations, rotations) from forces on atoms.
  Atomic forces before filtering:
  | Net force on center of mass :  -0.738608E-02 -0.494285E-02  0.947995E-02 eV/A
  | Net torque on center of mass:   0.484552E-02  0.662382E-03  0.226626E-02 eV
  Atomic forces after filtering:
  | Net force on center of mass :   0.124884E-14  0.178406E-15  0.107044E-14 eV/A
  | Net torque on center of mass:   0.000000E+00  0.424838E-15  0.283225E-15 eV

  Energy and forces in a compact form:
  | Total energy uncorrected      :         -0.442206149054396E+05 eV
  | Total energy corrected        :         -0.442206149054396E+05 eV  <-- do not rely on this value for anything but (periodic) metals
  | Electronic free energy        :         -0.442206149054396E+05 eV
  Total atomic forces (unitary forces cleaned) [eV/Ang]:
  |    1         -0.319871740538779E+01         -0.104570705676634E+01          0.136981374132319E+01
  |    2          0.251309467386157E+01          0.689815936457616E+00          0.241014395434676E+01
  |    3         -0.498602170304894E-01          0.392308200729547E+00         -0.236976300417094E+01
  |    4          0.716003055992138E+00         -0.166957845100868E+01         -0.110778809230590E+01
  |    5          0.222181987519674E+01         -0.169566703347341E+01         -0.818159704648444E-01
  |    6          0.772225490942383E+00          0.267586168774480E+01         -0.905014777275891E+00
  |    7         -0.249603854380583E+00          0.240124197172960E+01         -0.176032473255620E+00
  |    8         -0.184279805313816E+01          0.141501863889087E+01          0.402619019283271E+00
  |    9          0.379911288768745E+00         -0.552576510150018E+00          0.344750417699340E+01
  |   10          0.539868704023350E-01         -0.229279093863024E+01         -0.106572470808283E+01
  |   11         -0.274117060238773E+01         -0.116227871248603E+01         -0.164608304866763E+01
  |   12          0.142510887716083E+01          0.844352266962275E+00         -0.277858817722950E+00

  ------------------------------------ 
  Start decomposition of the XC Energy 
  ------------------------------------ 
  X and C from original XC functional choice 
  Hartree-Fock Energy :          0.000000000 Ha              0.000000000 eV
  X Energy            :       -140.209499264 Ha          -3815.294595017 eV
  C Energy            :         -4.955851473 Ha           -134.855579955 eV
  Total XC Energy     :       -145.165350737 Ha          -3950.150174972 eV
  ------------------------------------ 
  LDA X and C from self-consistent density 
  X Energy LDA        :       -132.797760509 Ha          -3613.610921948 eV
  C Energy LDA        :         -8.827849206 Ha           -240.217999055 eV
  ------------------------------------ 
  End decomposition of the XC Energy 
  ------------------------------------ 

------------------------------------------------------------

------------------------------------------------------------------------------
  Final output of selected total energy values:

  The following output summarizes some interesting total energy values
  at the end of a run (AFTER all relaxation, molecular dynamics, etc.).

  | Total energy of the DFT / Hartree-Fock s.c.f. calculation      :         -44220.614905440 eV
  | Final zero-broadening corrected energy (caution - metals only) :         -44220.614905440 eV
  | For reference only, the value of 1 Hartree used in FHI-aims is :             27.211384500 eV

  Before relying on these values, please be sure to understand exactly which
  total energy value is referred to by a given number. Different objects may
  all carry the same name 'total energy'. Definitions:

  Total energy of the DFT / Hartree-Fock s.c.f. calculation:
  | Note that this energy does not include ANY quantities calculated after the
  | s.c.f. cycle, in particular not ANY RPA, MP2, etc. many-body perturbation terms.

  Final zero-broadening corrected energy:
  | For metallic systems only, a broadening of the occupation numbers at the Fermi
  | level can be extrapolated back to zero broadening by an electron-gas inspired
  | formula. For all systems that are not real metals, this value can be
  | meaningless and should be avoided.

------------------------------------------------------------------------------
  Methods described in the following list of references were used in this FHI-aims run.
  If you publish the results, please make sure to cite these reference if they apply.
  FHI-aims is an academic code, and for our developers (often, Ph.D. students
  and postdocs), scientific credit in the community is essential.
  Thank you for helping us!

  For any use of FHI-aims, please cite:

    Volker Blum, Ralf Gehrke, Felix Hanke, Paula Havu, Ville Havu,
    Xinguo Ren, Karsten Reuter, and Matthias Scheffler
    'Ab initio molecular simulations with numeric atom-centered orbitals'
    Computer Physics Communications 180, 2175-2196 (2009)
    http://dx.doi.org/10.1016/j.cpc.2009.06.022


  The ELSI infrastructure was used in your run to solve the Kohn-Sham electronic structure.
  Please check out http://elsi-interchange.org to learn more.
  If scalability is important for your project, please acknowledge ELSI by citing:

    V. W-z. Yu, F. Corsetti, A. Garcia, W. P. Huhn, M. Jacquelin, W. Jia,
    B. Lange, L. Lin, J. Lu, W. Mi, A. Seifitokaldani, A. Vazquez-Mayagoitia,
    C. Yang, H. Yang, and V. Blum
    'ELSI: A unified software interface for Kohn-Sham electronic structure solvers'
    Computer Physics Communications 222, 267-285 (2018).
    http://dx.doi.org/10.1016/j.cpc.2017.09.007


  For the real-space grid partitioning and parallelization used in this calculation, please cite:

    Ville Havu, Volker Blum, Paula Havu, and Matthias Scheffler,
    'Efficient O(N) integration for all-electron electronic structure calculation'
    'using numerically tabulated basis functions'
    Journal of Computational Physics 228, 8367-8379 (2009).
    http://dx.doi.org/10.1016/j.jcp.2009.08.008

  Of course, there are many other important community references, e.g., those cited in the
  above references. Our list is limited to references that describe implementations in the
  FHI-aims code. The reason is purely practical (length of this list) - please credit others as well.

------------------------------------------------------------
          Leaving FHI-aims.
          Date     :  20220517, Time     :  120744.115

          Computational steps:
          | Number of self-consistency cycles          :           14
          | Number of SCF (re)initializations          :            1

          Detailed time accounting                     :  max(cpu_time)    wall_clock(cpu1)
          | Total time                                  :        2.492 s           2.574 s
          | Preparation time                            :        0.184 s           0.184 s
          | Boundary condition initalization            :        0.000 s           0.000 s
          | Grid partitioning                           :        0.054 s           0.055 s
          | Preloading free-atom quantities on grid     :        0.017 s           0.019 s
          | Free-atom superposition energy              :        0.008 s           0.008 s
          | Total time for integrations                 :        0.524 s           0.523 s
          | Total time for solution of K.-S. equations  :        0.319 s           0.325 s
          | Total time for density & force components   :        0.731 s           0.736 s
          | Total time for mixing                       :        0.121 s           0.079 s
          | Total time for Hartree multipole update     :        0.063 s           0.065 s
          | Total time for Hartree multipole sum        :        0.329 s           0.329 s
          | Total time for total energy evaluation      :        0.007 s           0.007 s
          | Total time NSC force correction             :        0.062 s           0.062 s
          | Total time for scaled ZORA corrections      :        0.000 s           0.000 s

          Partial memory accounting:
          | Residual value for overall tracked memory usage across tasks:     0.000000 MB (should be 0.000000 MB)
          | Peak values for overall tracked memory usage:
          |   Minimum:        3.046 MB (on task 11 after allocating hessian_basis_wave)
          |   Maximum:        3.192 MB (on task  8 after allocating hessian_basis_wave)
          |   Average:        3.124 MB
          | Largest tracked array allocation:
          |   Minimum:        1.492 MB (hessian_basis_wave on task  6)
          |   Maximum:        1.575 MB (hessian_basis_wave on task  8)
          |   Average:        1.537 MB
          Note:  These values currently only include a subset of arrays which are explicitly tracked.
          The "true" memory usage will be greater.

          Have a nice day.
------------------------------------------------------------
