12
Properties=species:S:1:pos:R:3:forces:R:3 energy=-187.22917435 pbc="F F F"
Al    0.452364693    -0.443372158    1.774538239    -0.314165    -0.499167    0.351187
Al    2.598661365    -1.439607872    -0.458256997    0.190334    0.495124    0.038291
Al    -0.622054481    -1.577631258    -1.0778941430000002    0.091716    0.065037    -0.313322
F    3.6661522069999997    -0.141960293    -0.96235468    -0.102648    -0.148557    0.034635
F    -1.6134968539999999    -0.3425868879999999    -1.938219097    0.002941    -0.01807    0.021394
F    2.999641895    -3.258457694    -0.504040643    0.058971    -0.319362    -0.013892
F    -0.9402545659999999    -3.4081732020000004    -1.23227172    -0.026715    -0.079461    0.008168
F    2.0283619969999998    -1.212327393    1.261599402    0.125614    -0.053492    -0.081586
F    1.067647664    -1.220441882    -1.482547665    -0.166151    -0.02263    -0.035805
F    0.14922375200000002    -1.123949563    3.437669289    0.042612    0.099497    -0.177104
F    0.458458071    1.2916317990000001    1.305651636    0.028664    0.371525    -0.106221
F    -0.812681368    -1.320286883    0.736475314    0.068825    0.109556    0.274256
