********************************************************************************
*                       GENERAL UTILITY LATTICE PROGRAM                        *
*                                 Julian Gale                                  *
*                       Curtin Institute for Computation                       *
*                           Department of Chemistry                            *
*                    Curtin University, Western Australia                      *
********************************************************************************
* Version = 5.1.1 * Last modified =  24th November 2018                        *
********************************************************************************
*  optimise     - perform optimisation run                                     *
*  conp         - constant pressure calculation                                *
*  shell        - only shells and radii to be optimised                        *
*  phonon       - calculate phonons for final geometry                         *
*  eigenvectors - output phonon eigenvectors                                   *
********************************************************************************

  Job Started  at 14:40.02 25th May        2022                               

  Number of CPUs =     1

  Host name      = login03                                 


  Total number of configurations input =      1

********************************************************************************
*  Input for Configuration =   1                                               *
********************************************************************************

  Formula = Al3F9                                                       

  Number of irreducible atoms/shells =      21


  Total number atoms/shells =      21

  Dimensionality = 0               :  Cluster


  Charge on cluster =  -0.000000


  Initial cluster dipoles : x =      0.174648 e.Angs
                            y =     -0.730882 e.Angs
                            z =      0.023640 e.Angs

  Temperature of configuration =  0.000     K 

  Symmetry number =      1

  Cartesian coordinates of cluster :

--------------------------------------------------------------------------------
   No.  Atomic       x           y          z         Charge      Occupancy
        Label      (Angs)      (Angs)     (Angs)        (e)         (Frac)  
--------------------------------------------------------------------------------
      1 Al    c     -1.7280      2.5799     -1.2514     3.00000    1.000000    
      2 Al    c     -0.5152     -0.0167     -2.3222     3.00000    1.000000    
      3 Al    c     -2.1714     -0.3537     -0.5048     3.00000    1.000000    
      4 F     c     -0.9880      4.0050     -0.3127     0.59000    1.000000    
      5 F     c     -3.0815      2.9699     -2.4125     0.59000    1.000000    
      6 F     c     -1.5835     -1.6638     -1.9065     0.59000    1.000000    
      7 F     c     -2.2708      1.4475      0.1906     0.59000    1.000000    
      8 F     c     -3.2999     -1.2666      0.5792     0.59000    1.000000    
      9 F     c      0.5863     -0.4759     -3.6852     0.59000    1.000000    
     10 F     c     -0.1729      1.8744     -2.1115     0.59000    1.000000    
     11 F     c     -2.4006      0.6322     -2.2254     0.59000    1.000000    
     12 F     c     -0.2077     -0.1634     -0.3746     0.59000    1.000000    
     13 F     s     -0.9880 *    4.0050 *   -0.3127 *  -1.59000    1.000000    
     14 F     s     -3.0815 *    2.9699 *   -2.4125 *  -1.59000    1.000000    
     15 F     s     -1.5835 *   -1.6638 *   -1.9065 *  -1.59000    1.000000    
     16 F     s     -2.2708 *    1.4475 *    0.1906 *  -1.59000    1.000000    
     17 F     s     -3.2999 *   -1.2666 *    0.5792 *  -1.59000    1.000000    
     18 F     s      0.5863 *   -0.4759 *   -3.6852 *  -1.59000    1.000000    
     19 F     s     -0.1729 *    1.8744 *   -2.1115 *  -1.59000    1.000000    
     20 F     s     -2.4006 *    0.6322 *   -2.2254 *  -1.59000    1.000000    
     21 F     s     -0.2077 *   -0.1634 *   -0.3746 *  -1.59000    1.000000    
--------------------------------------------------------------------------------


  Brillouin zone sampling points :

--------------------------------------------------------------------------------
  Point number          x          y          z            Weight
--------------------------------------------------------------------------------
        1           0.000000   0.000000   0.000000     1.00000000
--------------------------------------------------------------------------------


********************************************************************************
*  General input information                                                   *
********************************************************************************

  Species output for all configurations : 

--------------------------------------------------------------------------------
  Species    Type    Atomic    Atomic    Charge       Radii (Angs)     Library
                     Number     Mass       (e)     Cova   Ionic  VDW   Symbol
--------------------------------------------------------------------------------
    Al       Core       13      26.98   3.000000   1.350  0.000  2.050          
    F        Core        9      19.00   0.590000   0.710  0.000  1.300          
    F        Shell       9       0.00  -1.590000   0.710  0.000  1.300          
--------------------------------------------------------------------------------


  Accuracy factor for short range sums = 12.000

  Time limit = Infinity

  Maximum range for interatomic potentials =    100000.000000 Angstroms

  General interatomic potentials :

--------------------------------------------------------------------------------
Atom  Types   Potential      Parameter       Value         Units   Cutoffs(Ang)
  1     2                                                            Min /  Max 
--------------------------------------------------------------------------------
Al   c F    s Buckingham    Buckingham A     3760.0008    eV        0.000 10.000
                            Buckingham rho  0.22200000    Ang       
                            Buckingham C     0.0000000    eV*Ang^6  
--------------------------------------------------------------------------------
F    s F    s Buck 4 range  Buck4 A          1127.7000    eV        0.000 12.000
                            Buck4 rho       0.27530000    Ang       
                            Buck4 C          15.830000    eV*Ang^6  
                            Buck4 minimum    2.7900000    Ang       
--------------------------------------------------------------------------------
F    c F    s Spring (c-s)  Spring k 2       20.770000    eV*Ang^-2 0.000  0.800
                            Spring k 4       0.0000000    eV*Ang^-4 
--------------------------------------------------------------------------------

********************************************************************************
*  Output for configuration   1                                                *
********************************************************************************


  Components of energy : 

--------------------------------------------------------------------------------
  Interatomic potentials     =           9.51333414 eV    
  Monopole - monopole (real) =        -175.95601294 eV    
--------------------------------------------------------------------------------
  Total lattice energy       =        -166.44267880 eV    
--------------------------------------------------------------------------------
  Total lattice energy       =          -16059.1742 kJ/mol
--------------------------------------------------------------------------------


  Number of variables =       27

  Maximum number of calculations  =          2000
  Maximum Hessian update interval =            10
  Maximum step size               =   1.000000000
  Maximum parameter tolerance     =   0.000001000
  Maximum function  tolerance     =   0.000010000
  Maximum gradient  tolerance     =   0.000000010
  Maximum gradient  component     =   0.010000000

  Symmetry not applied to optimisation

  Newton-Raphson optimiser to be used

  BFGS hessian update to be used

  Lower half triangular hessian to be used

  Minimiser to switch to RFO
  When gradient norm is less than     0.010000

  Shell only optimisation

  Start of cluster optimisation :

  Cycle:      0 Energy:      -166.442679  Gnorm:      1.536362  CPU:    0.004
  ** Hessian calculated **
  Cycle:      1 Energy:      -184.441398  Gnorm:      0.637851  CPU:    0.005
  ** Hessian calculated **
  Cycle:      2 Energy:      -186.141510  Gnorm:      0.043649  CPU:    0.007
  Cycle:      3 Energy:      -186.153013  Gnorm:      0.007994  CPU:    0.009
  ** Hessian has required structure
  Cycle:      4 Energy:      -186.153395  Gnorm:      0.001528  CPU:    0.010
  ** Hessian has required structure
  Cycle:      5 Energy:      -186.153411  Gnorm:      0.000682  CPU:    0.012
  ** Hessian has required structure
  Cycle:      6 Energy:      -186.153414  Gnorm:      0.000316  CPU:    0.013
  ** Hessian has required structure
  Cycle:      7 Energy:      -186.153415  Gnorm:      0.000146  CPU:    0.015
  ** Hessian has required structure
  Cycle:      8 Energy:      -186.153415  Gnorm:      0.000089  CPU:    0.016
  ** Hessian has required structure
  Cycle:      9 Energy:      -186.153415  Gnorm:      0.000054  CPU:    0.017
  ** Hessian has required structure
  Cycle:     10 Energy:      -186.153415  Gnorm:      0.000032  CPU:    0.018
  ** Hessian has required structure
  Cycle:     11 Energy:      -186.153415  Gnorm:      0.000025  CPU:    0.020
  ** Hessian has required structure
  Cycle:     12 Energy:      -186.153415  Gnorm:      0.000000  CPU:    0.021
  ** Hessian has required structure
  Cycle:     13 Energy:      -186.153415  Gnorm:      0.000000  CPU:    0.023
  ** Hessian has required structure
  Cycle:     14 Energy:      -186.153415  Gnorm:      0.000000  CPU:    0.024
  ** Hessian has required structure
  Cycle:     15 Energy:      -186.153415  Gnorm:      0.000000  CPU:    0.025
  ** Hessian has required structure
  Cycle:     16 Energy:      -186.153415  Gnorm:      0.000000  CPU:    0.026
  ** Hessian has required structure
  Cycle:     17 Energy:      -186.153415  Gnorm:      0.000000  CPU:    0.028
  ** Hessian has required structure
  Cycle:     18 Energy:      -186.153415  Gnorm:      0.000000  CPU:    0.029
  ** Hessian has required structure
  Cycle:     19 Energy:      -186.153415  Gnorm:      0.000000  CPU:    0.031
  ** Hessian has required structure
  Cycle:     20 Energy:      -186.153415  Gnorm:      0.000000  CPU:    0.032
  ** Hessian has required structure
  Cycle:     21 Energy:      -186.153415  Gnorm:      0.000000  CPU:    0.034
  ** Hessian calculated **
  Cycle:     22 Energy:      -186.153415  Gnorm:      0.000000  CPU:    0.036
  ** Hessian has required structure
  Cycle:     23 Energy:      -186.153415  Gnorm:      0.000000  CPU:    0.037
  ** Hessian has required structure
  Cycle:     24 Energy:      -186.153415  Gnorm:      0.000000  CPU:    0.039
  ** Hessian calculated **

  XYZ File written as 005/1/sp_mod_80/sp_mod_80_eig.xyz



  **** Optimisation achieved ****


  Final energy =    -186.15341506 eV
  Final Gnorm  =       0.00000017

  Components of energy : 

--------------------------------------------------------------------------------
  Interatomic potentials     =          37.18457985 eV    
  Monopole - monopole (real) =        -223.33799491 eV    
--------------------------------------------------------------------------------
  Total lattice energy       =        -186.15341506 eV    
--------------------------------------------------------------------------------
  Total lattice energy       =          -17960.9589 kJ/mol
--------------------------------------------------------------------------------

  Final cartesian coordinates of atoms :

--------------------------------------------------------------------------------
   No.  Atomic        x           y          z          Radius
        Label       (Angs)      (Angs)     (Angs)       (Angs) 
--------------------------------------------------------------------------------
     1  Al    c    -1.728028    2.579928   -1.251363    0.000000
     2  Al    c    -0.515203   -0.016712   -2.322170    0.000000
     3  Al    c    -2.171421   -0.353695   -0.504788    0.000000
     4  F     c    -0.987967    4.004981   -0.312693    0.000000
     5  F     c    -3.081549    2.969942   -2.412538    0.000000
     6  F     c    -1.583516   -1.663789   -1.906544    0.000000
     7  F     c    -2.270787    1.447537    0.190584    0.000000
     8  F     c    -3.299918   -1.266606    0.579229    0.000000
     9  F     c     0.586326   -0.475891   -3.685180    0.000000
    10  F     c    -0.172868    1.874391   -2.111479    0.000000
    11  F     c    -2.400595    0.632233   -2.225432    0.000000
    12  F     c    -0.207732   -0.163354   -0.374551    0.000000
    13  F     s    -1.098412    3.768772   -0.457143    0.000000
    14  F     s    -2.878500    2.917890   -2.237146    0.000000
    15  F     s    -1.534485   -1.400461   -1.813034    0.000000
    16  F     s    -2.205554    1.374820   -0.054360    0.000000
    17  F     s    -3.119268   -1.120285    0.408468    0.000000
    18  F     s     0.412665   -0.401660   -3.467153    0.000000
    19  F     s    -0.391954    1.743825   -2.044438    0.000000
    20  F     s    -2.187376    0.526877   -2.050657    0.000000
    21  F     s    -0.429233   -0.155661   -0.574982    0.000000
--------------------------------------------------------------------------------


  Final Cartesian derivatives :

--------------------------------------------------------------------------------
   No.  Atomic          x             y             z           Radius
        Label       (eV/Angs)     (eV/Angs)    (eV/Angs)      (eV/Angs)
--------------------------------------------------------------------------------
      1 Al    c       0.000000      0.000000      0.000000      0.000000
      2 Al    c       0.000000      0.000000      0.000000      0.000000
      3 Al    c       0.000000      0.000000      0.000000      0.000000
      4 F     c       0.000000      0.000000      0.000000      0.000000
      5 F     c       0.000000      0.000000      0.000000      0.000000
      6 F     c       0.000000      0.000000      0.000000      0.000000
      7 F     c       0.000000      0.000000      0.000000      0.000000
      8 F     c       0.000000      0.000000      0.000000      0.000000
      9 F     c       0.000000      0.000000      0.000000      0.000000
     10 F     c       0.000000      0.000000      0.000000      0.000000
     11 F     c       0.000000      0.000000      0.000000      0.000000
     12 F     c       0.000000      0.000000      0.000000      0.000000
     13 F     s       0.000000      0.000002      0.000001      0.000000
     14 F     s       0.000000     -0.000000      0.000000      0.000000
     15 F     s      -0.000001      0.000000     -0.000000      0.000000
     16 F     s      -0.000000     -0.000000      0.000002      0.000000
     17 F     s      -0.000001     -0.000001     -0.000000      0.000000
     18 F     s      -0.000000     -0.000001     -0.000001      0.000000
     19 F     s       0.000002      0.000000     -0.000001      0.000000
     20 F     s      -0.000001     -0.000000     -0.000001      0.000000
     21 F     s      -0.000000      0.000001      0.000000      0.000000
--------------------------------------------------------------------------------
  Maximum abs         0.000002      0.000002      0.000002      0.000000
--------------------------------------------------------------------------------


  Born effective charge tensors : 

-------------------------------------------------------------------------------
  Atom             x           y             z
-------------------------------------------------------------------------------
    1 Al    x       0.8555     -0.0776     -0.4247
            y      -0.0377      1.5056      0.0027
            z      -0.4173     -0.0336      0.9192
-------------------------------------------------------------------------------
    2 Al    x       1.1151      0.0980      0.2026
            y       0.0778      1.3954     -0.1316
            z       0.1754     -0.1326      0.8982
-------------------------------------------------------------------------------
    3 Al    x       1.0008     -0.2249      0.1320
            y      -0.2308      1.2717      0.1672
            z       0.1544      0.1920      1.1363
-------------------------------------------------------------------------------
    4 F     x      -0.4252      0.1518      0.1171
            y       0.1725     -0.2869      0.2009
            z       0.1210      0.1820     -0.3789
-------------------------------------------------------------------------------
    5 F     x      -0.2255     -0.0417      0.2656
            y      -0.0866     -0.6073     -0.0941
            z       0.2573     -0.0532     -0.3009
-------------------------------------------------------------------------------
    6 F     x      -0.3827     -0.0292      0.0736
            y       0.0178     -0.4767      0.0149
            z       0.0823     -0.0279     -0.3996
-------------------------------------------------------------------------------
    7 F     x      -0.3041      0.0182      0.0385
            y       0.0125     -0.4866     -0.0258
            z       0.0390     -0.0021     -0.3531
-------------------------------------------------------------------------------
    8 F     x      -0.3033      0.1961     -0.2271
            y       0.2023     -0.4016     -0.1864
            z      -0.2354     -0.1781     -0.3217
-------------------------------------------------------------------------------
    9 F     x      -0.3168     -0.0833     -0.2868
            y      -0.0926     -0.5179      0.1220
            z      -0.2791      0.1166     -0.1919
-------------------------------------------------------------------------------
   10 F     x      -0.3443      0.0175      0.0444
            y      -0.0059     -0.4888     -0.0133
            z       0.0385     -0.0104     -0.3107
-------------------------------------------------------------------------------
   11 F     x      -0.3293     -0.0443      0.0348
            y      -0.0346     -0.5144     -0.0571
            z       0.0366     -0.0659     -0.3554
-------------------------------------------------------------------------------
   12 F     x      -0.3400      0.0193      0.0299
            y       0.0054     -0.3925      0.0005
            z       0.0274      0.0132     -0.3416
-------------------------------------------------------------------------------




  Moment of inertia tensor (10^-46 x kgm^2): 

-------------------------------------------------------------------------------
                x           y           z           Principal axis system
-------------------------------------------------------------------------------
       x        175.25        4.14       26.60          112.986629
       y          4.14      113.64       -2.40          146.899951
       z         26.60       -2.40      170.70          199.689606
-------------------------------------------------------------------------------
  Centre of mass (Ang) =    -1.484722     0.791626    -1.361223
-------------------------------------------------------------------------------


  Vibrational Frequency Calculation : 

--------------------------------------------------------------------------------

  Frequencies (cm-1) and Eigenvectors : 

  Frequency      -0.0000    0.0000    0.0000   29.5455   36.7935   39.8172
  IR Intensity    0.0000    0.0000    0.0000    0.0003    0.0000    0.0001
     in X         0.0000    0.0000    0.0000    0.0001    0.0000    0.0000
     in Y         0.0000    0.0000    0.0000    0.0000    0.0000    0.0001
     in Z         0.0000    0.0000    0.0000    0.0002    0.0000    0.0000
  Raman Intsty    0.0000    0.0000    0.0000    0.0000    0.0000    0.0068

     1 x      -0.066738  0.315102  0.057841 -0.172236  0.055901 -0.246785
     1 y       0.320072  0.063046  0.025847 -0.035044  0.011374 -0.018960
     1 z       0.013744  0.061844 -0.321054  0.188996 -0.061343 -0.228416
     2 x      -0.066738  0.315102  0.057841  0.022352 -0.194151  0.124973
     2 y       0.320072  0.063046  0.025847  0.187340 -0.070023  0.016620
     2 z       0.013744  0.061844 -0.321054 -0.139228 -0.132944  0.114978
     3 x      -0.066738  0.315102  0.057841  0.167580  0.138468  0.123023
     3 y       0.320072  0.063046  0.025847 -0.148695  0.058694  0.016223
     3 z       0.013744  0.061844 -0.321054 -0.069186  0.194046  0.117115
     4 x      -0.056005  0.264428  0.048539 -0.189622  0.165518 -0.349388
     4 y       0.268598  0.052907  0.021690 -0.038582  0.033678  0.126379
     4 z       0.011534  0.051898 -0.269422  0.208074 -0.181627 -0.294969
     5 x      -0.056005  0.264428  0.048539 -0.270634 -0.074030 -0.226324
     5 y       0.268598  0.052907  0.021690 -0.055065 -0.015063 -0.255671
     5 z       0.011534  0.051898 -0.269422  0.296969  0.081231 -0.253661
     6 x      -0.056005  0.264428  0.048539  0.177730 -0.117239  0.249721
     6 y       0.268598  0.052907  0.021690  0.036162 -0.023854 -0.047023
     6 z       0.011534  0.051898 -0.269422 -0.195025  0.128649  0.218856
     7 x      -0.056005  0.264428  0.048539  0.026033  0.219895 -0.111882
     7 y       0.268598  0.052907  0.021690 -0.189987  0.085606  0.067647
     7 z       0.011534  0.051898 -0.269422  0.097297  0.078360 -0.084730
     8 x      -0.056005  0.264428  0.048539  0.284895  0.312730  0.214497
     8 y       0.268598  0.052907  0.021690 -0.318447  0.106994 -0.013943
     8 z       0.011534  0.051898 -0.269422 -0.071467  0.415790  0.190776
     9 x      -0.056005  0.264428  0.048539 -0.019007 -0.421169  0.212434
     9 y       0.268598  0.052907  0.021690  0.372546 -0.129058 -0.014363
     9 z       0.011534  0.051898 -0.269422 -0.220294 -0.296796  0.193046
    10 x      -0.056005  0.264428  0.048539 -0.132369 -0.085112 -0.107301
    10 y       0.268598  0.052907  0.021690  0.168352 -0.058182  0.068580
    10 z       0.011534  0.051898 -0.269422  0.019386 -0.226260 -0.089755
    11 x      -0.056005  0.264428  0.048539 -0.027725 -0.133767  0.036147
    11 y       0.268598  0.052907  0.021690 -0.005641 -0.027217 -0.166411
    11 z       0.011534  0.051898 -0.269422  0.030423  0.146783  0.002084
    12 x      -0.056005  0.264428  0.048539  0.129613  0.132912  0.080652
    12 y       0.268598  0.052907  0.021690  0.026372  0.027044  0.218260
    12 z       0.011534  0.051898 -0.269422 -0.142225 -0.145845  0.113972


  Frequency      96.0125  104.2195  118.9989  146.7433  149.0750  152.1037
  IR Intensity    0.0012    0.0255    0.0023    0.0052    0.0131    0.0026
     in X         0.0005    0.0142    0.0004    0.0029    0.0058    0.0011
     in Y         0.0000    0.0003    0.0018    0.0000    0.0002    0.0000
     in Z         0.0006    0.0111    0.0001    0.0023    0.0070    0.0014
  Raman Intsty    0.0000    0.1055    0.3418    1.6548    0.0000    0.0000

     1 x       0.004236  0.046101 -0.073043 -0.134303 -0.037213  0.051074
     1 y       0.000862  0.016224 -0.065471 -0.200879 -0.007571  0.010392
     1 z      -0.004647  0.045022 -0.078705 -0.159640  0.040834 -0.056044
     2 x       0.014175  0.082570  0.048273  0.151633  0.109887  0.193700
     2 y      -0.033642 -0.032150  0.012691  0.113093  0.169775 -0.009098
     2 z      -0.030476  0.082272  0.043099  0.101630 -0.053757  0.146361
     3 x       0.022140  0.095262  0.045100  0.095410  0.071292 -0.165870
     3 y       0.041031 -0.029568  0.012045  0.101652 -0.132912  0.014760
     3 z      -0.009372  0.068346  0.046580  0.163323 -0.145054 -0.176899
     4 x       0.240805 -0.090134 -0.322023  0.005318 -0.332831  0.197884
     4 y       0.048996  0.141984  0.204776 -0.297278 -0.067719  0.040263
     4 z      -0.264239 -0.055812 -0.255495 -0.050274  0.365218 -0.217139
     5 x      -0.452517  0.020550 -0.078282 -0.095365 -0.080348 -0.285240
     5 y      -0.092073 -0.241038 -0.173354  0.163552 -0.016348 -0.058037
     5 z       0.496550 -0.025970 -0.103485 -0.056581  0.088167  0.312996
     6 x       0.005616  0.286928 -0.314139 -0.016141 -0.063182 -0.014742
     6 y       0.001142 -0.131394  0.157162  0.242968 -0.012856 -0.003000
     6 z      -0.006160  0.237120 -0.257140  0.030343  0.069330  0.016177
     7 x       0.241907  0.118803  0.317851 -0.090788  0.072734 -0.317303
     7 y       0.014943  0.000513 -0.007282  0.037783 -0.164585  0.004288
     7 z       0.087383  0.037141  0.163002  0.138767 -0.108988 -0.208378
     8 x      -0.262101 -0.436610 -0.009624 -0.029721 -0.088892  0.191818
     8 y       0.138879  0.187076  0.047501 -0.320068  0.413956 -0.007653
     8 z      -0.214090 -0.301376  0.019891 -0.315534  0.173593  0.181008
     9 x       0.263059 -0.376184  0.009779 -0.253633 -0.084923 -0.199264
     9 y      -0.138682  0.199372  0.051449 -0.365629 -0.449319  0.006140
     9 z       0.213033 -0.367684 -0.001402 -0.069834  0.017138 -0.172837
    10 x      -0.109141  0.049194  0.195378  0.118852  0.068741  0.239123
    10 y       0.012070 -0.013651 -0.032201  0.080438  0.193369 -0.020195
    10 z      -0.233066  0.113524  0.297393 -0.091271 -0.046254  0.294166
    11 x      -0.018937  0.066447  0.101924  0.133944  0.190624  0.240060
    11 y      -0.003854 -0.162637  0.226718  0.258694  0.038785  0.048844
    11 z       0.020780  0.030399  0.134923  0.170032 -0.209175 -0.263420
    12 x       0.042988  0.094157  0.074909  0.093187  0.146521 -0.146360
    12 y       0.008747  0.073986 -0.426227  0.183018  0.029811 -0.029779
    12 z      -0.047170  0.099526 -0.010766  0.118858 -0.160779  0.160602


  Frequency     180.4883  215.9756  217.1592  231.0108  250.5164  260.3675
  IR Intensity    0.0219    0.0083    0.0102    0.0014    0.0004    0.0185
     in X         0.0000    0.0010    0.0045    0.0006    0.0002    0.0092
     in Y         0.0212    0.0072    0.0002    0.0000    0.0000    0.0035
     in Z         0.0007    0.0002    0.0055    0.0008    0.0002    0.0058
  Raman Intsty    0.7684    0.2570    0.0000    0.0000    0.0000    0.0097

     1 x       0.149683  0.146552 -0.216875  0.071539  0.101330  0.144576
     1 y       0.261475 -0.069554 -0.044127  0.014556  0.020617  0.008350
     1 z       0.184892  0.120657  0.237980 -0.078500 -0.111190  0.133303
     2 x      -0.102876 -0.073934  0.022291  0.138053 -0.244003  0.097577
     2 y      -0.001333  0.102079  0.373816  0.103095  0.175855 -0.054088
     2 z      -0.035445 -0.079127  0.027884  0.314499 -0.055714  0.046110
     3 x      -0.045648 -0.103917  0.038053 -0.303785  0.112996  0.065535
     3 y       0.010311  0.095983 -0.361536 -0.136816 -0.202511 -0.060608
     3 z      -0.098243 -0.046227 -0.094102 -0.132642  0.199469  0.081270
     4 x      -0.158419  0.139953  0.345794 -0.022192  0.078016 -0.100746
     4 y       0.531247 -0.074772  0.070357 -0.004516  0.015874  0.255068
     4 z      -0.045866  0.113682 -0.379441  0.024352 -0.085608 -0.044516
     5 x       0.116355  0.080348  0.158263  0.046543 -0.015104  0.142551
     5 y      -0.039632 -0.795261  0.032197  0.009470 -0.003074 -0.049948
     5 z       0.098688 -0.074234 -0.173663 -0.051072  0.016574  0.120648
     6 x       0.058403 -0.125910  0.149642 -0.086628 -0.375203 -0.061386
     6 y      -0.080964  0.124635  0.030448 -0.017626 -0.076340 -0.015337
     6 z       0.038211 -0.091633 -0.164205  0.095058  0.411713 -0.058786
     7 x       0.095428 -0.091266 -0.064994  0.466395 -0.074527 -0.510117
     7 y       0.039314  0.040662 -0.247320 -0.126609 -0.134139  0.024970
     7 z      -0.023958  0.132883  0.053929 -0.031325 -0.259923 -0.067058
     8 x       0.161512  0.030549 -0.108260  0.000629 -0.131735 -0.069838
     8 y      -0.392196  0.002581  0.094433 -0.218590 -0.236608  0.013807
     8 z      -0.224485  0.016269  0.134817  0.115371 -0.057174  0.007551
     9 x      -0.130668  0.018773 -0.102814 -0.152439  0.027403 -0.002757
     9 y      -0.451645  0.000186 -0.137380  0.187701  0.215380  0.027456
     9 z       0.096127  0.029190  0.096797  0.051212  0.171659 -0.066057
    10 x      -0.020107  0.112527 -0.090421 -0.043317  0.237874 -0.125832
    10 y       0.015807  0.082124  0.215699  0.212690  0.167374  0.103159
    10 z       0.102820 -0.090741  0.116609 -0.432921  0.080682 -0.488738
    11 x      -0.066201 -0.005507 -0.101441  0.105786  0.061841  0.246391
    11 y      -0.033820  0.174297 -0.020639  0.021524  0.012583  0.114175
    11 z      -0.066601  0.027299  0.111311 -0.116081 -0.067860  0.245712
    12 x      -0.057684 -0.122171  0.000759 -0.202534  0.226800  0.115083
    12 y       0.089607  0.292413  0.000156 -0.041208  0.046147 -0.346625
    12 z      -0.035953 -0.057117 -0.000834  0.222242 -0.248870  0.040605


  Frequency     266.2946  308.3466  331.2282  357.4294  388.0992  400.2909
  IR Intensity    0.0776    0.0024    0.0214    0.0091    0.0011    0.0047
     in X         0.0011    0.0011    0.0119    0.0025    0.0002    0.0021
     in Y         0.0760    0.0000    0.0005    0.0034    0.0008    0.0001
     in Z         0.0004    0.0013    0.0091    0.0032    0.0000    0.0025
  Raman Intsty    0.3232    0.0000    0.3557    0.0127    1.3735    0.0000

     1 x       0.153055  0.214784  0.010447  0.088247 -0.062375 -0.045234
     1 y      -0.362317  0.043701 -0.130009 -0.186042  0.088741 -0.009203
     1 z       0.072301 -0.235685 -0.014587  0.045925 -0.040389  0.049635
     2 x       0.003449 -0.175552 -0.134277  0.035433  0.108430 -0.362592
     2 y      -0.099468  0.129234  0.118327  0.177352  0.020704  0.034215
     2 z      -0.103688 -0.014819 -0.152846  0.057633 -0.129054 -0.274064
     3 x      -0.082936  0.057096 -0.185507  0.028061 -0.118030  0.313695
     3 y      -0.117044 -0.153335  0.107903  0.175852 -0.025372 -0.044165
     3 z      -0.008897  0.144803 -0.096631  0.065722  0.119439  0.327720
     4 x      -0.329757 -0.106688 -0.066639 -0.094523  0.055003  0.017852
     4 y       0.111445 -0.021707 -0.086657 -0.033811  0.001574  0.003633
     4 z      -0.279850  0.117070 -0.076798 -0.092410  0.050417 -0.019588
     5 x       0.201154 -0.106393  0.015849  0.143693 -0.096096  0.016892
     5 y       0.231319 -0.021647  0.000645 -0.012902  0.073756  0.003437
     5 z       0.226207  0.116746  0.014563  0.128558 -0.073898 -0.018537
     6 x      -0.040135  0.304113  0.473175 -0.058620 -0.042678  0.088391
     6 y      -0.023064  0.061876 -0.097873  0.323095 -0.183962  0.017985
     6 z      -0.040853 -0.333705  0.413067  0.006487 -0.073002 -0.096992
     7 x      -0.030170  0.027253 -0.027569 -0.121258 -0.005976  0.054486
     7 y      -0.177732  0.065664  0.027417  0.076565  0.308398 -0.018098
     7 z       0.187812 -0.376639  0.178204  0.211668  0.262091  0.076361
     8 x      -0.086858 -0.112217  0.036194  0.054356 -0.140015 -0.036288
     8 y       0.044256 -0.010564 -0.014306  0.026747 -0.144871 -0.007363
     8 z       0.141929  0.109188  0.035859 -0.070173  0.131074  0.017150
     9 x       0.121198 -0.096361  0.041596 -0.067488  0.139052 -0.014127
     9 y       0.086588 -0.031874 -0.013207  0.001956 -0.088091 -0.002896
     9 z      -0.086373  0.119687  0.029932  0.063528 -0.175149  0.038169
    10 x       0.212468  0.377027  0.166185  0.179741  0.199613 -0.083868
    10 y      -0.128364  0.016593  0.066839  0.137807  0.350230  0.012122
    10 z      -0.078437 -0.066982 -0.034403 -0.118621  0.036498 -0.044120
    11 x       0.012420 -0.264421 -0.112797 -0.327249  0.270022  0.379272
    11 y       0.070195 -0.053800  0.384047 -0.497382 -0.395282  0.077168
    11 z       0.024334  0.290151 -0.031583 -0.390455  0.172786 -0.416178
    12 x      -0.147986 -0.137100 -0.157377  0.110526 -0.293159 -0.310442
    12 y       0.475113 -0.027895 -0.381564 -0.221271 -0.021938 -0.063164
    12 z      -0.046766  0.150441 -0.214171  0.059697 -0.271231  0.340647


  Frequency     418.8695  430.0495  474.8348  491.2021  502.7903  561.7275
  IR Intensity    0.0005    0.0230    0.0047    0.0199    0.0065    0.0957
     in X         0.0001    0.0102    0.0010    0.0009    0.0029    0.0531
     in Y         0.0003    0.0004    0.0035    0.0190    0.0001    0.0016
     in Z         0.0001    0.0123    0.0003    0.0000    0.0035    0.0411
  Raman Intsty    0.0002    0.0000    5.6825    2.9566    0.0000    0.0046

     1 x       0.018714 -0.082646  0.087525  0.025672  0.062378 -0.003494
     1 y       0.038115 -0.016816 -0.245328 -0.067412  0.012693 -0.009067
     1 z       0.024121  0.090688  0.034274  0.010894 -0.068449 -0.004868
     2 x       0.154184  0.090804 -0.024421  0.071471 -0.095958  0.361140
     2 y       0.041818  0.078528  0.086386 -0.088774 -0.410596 -0.051011
     2 z      -0.158258 -0.198807  0.021486 -0.048461  0.037667  0.309243
     3 x      -0.145398  0.198607  0.002675 -0.023464 -0.100732  0.350962
     3 y      -0.019136 -0.019643  0.091900 -0.108083  0.370577 -0.053082
     3 z       0.170471 -0.118767 -0.008246  0.055713  0.178161  0.320409
     4 x       0.024987 -0.004257 -0.162752 -0.028597  0.039210  0.035602
     4 y       0.077834 -0.000866 -0.279052 -0.072392  0.007979  0.079928
     4 z       0.037204  0.004671 -0.200062 -0.039485 -0.043024  0.047265
     5 x       0.029873 -0.004545  0.296525  0.093476  0.021920  0.005870
     5 y      -0.054187 -0.000925 -0.064890 -0.042859  0.004461 -0.025657
     5 z       0.017176  0.004988  0.258197  0.077240 -0.024056  0.000593
     6 x       0.089366 -0.276930  0.002858 -0.045422  0.098936 -0.042447
     6 y       0.610621 -0.056344 -0.000570 -0.243740  0.020134 -0.096221
     6 z       0.194663  0.303878  0.002498 -0.086590 -0.108562 -0.056524
     7 x       0.081399  0.036768  0.133966  0.034462 -0.006218 -0.027157
     7 y      -0.120178 -0.107079  0.278015  0.344398 -0.541106 -0.020771
     7 z      -0.237499 -0.143088 -0.350962 -0.058821 -0.076771 -0.056338
     8 x      -0.236273  0.225992  0.110441 -0.213582  0.023144 -0.012737
     8 y      -0.198438  0.168023  0.065213 -0.180345  0.046621  0.014624
     8 z       0.225305 -0.227854 -0.111921  0.199787 -0.012007 -0.034698
     9 x       0.230331  0.228436 -0.109130  0.204595  0.017650 -0.037955
     9 y      -0.103500 -0.075563  0.020538 -0.095262 -0.038319  0.009493
     9 z      -0.286704 -0.270794  0.129017 -0.259082 -0.032756 -0.007026
    10 x      -0.201442  0.116420 -0.378749 -0.116134 -0.022345 -0.054268
    10 y      -0.177727  0.138246  0.173697  0.313767  0.535288 -0.026286
    10 z       0.072864 -0.025009  0.211644  0.106430  0.108115 -0.026589
    11 x       0.025175 -0.230548  0.188165 -0.311827 -0.031953 -0.288237
    11 y      -0.051831 -0.046908 -0.090265  0.273624 -0.006504  0.208843
    11 z       0.013333  0.252982  0.154741 -0.233437  0.035067 -0.223951
    12 x      -0.076186 -0.337726 -0.159708  0.295230  0.019707 -0.423076
    12 y      -0.055043 -0.068716 -0.022798  0.017720  0.004010 -0.009108
    12 z      -0.079639  0.370589 -0.149773  0.272335 -0.021629 -0.387247


  Frequency     567.2176  613.9302  693.8849  778.3801  785.1939  916.7399
  IR Intensity    0.1083    0.1741    0.0219    0.0093    0.0232    0.0002
     in X         0.0482    0.0001    0.0007    0.0035    0.0104    0.0000
     in Y         0.0020    0.1695    0.0211    0.0020    0.0004    0.0001
     in Z         0.0581    0.0045    0.0000    0.0038    0.0125    0.0001
  Raman Intsty    0.0000    0.0081    0.6470    0.0581    0.0000    2.5332

     1 x      -0.489223 -0.019607 -0.171482 -0.519982 -0.013642  0.003399
     1 y      -0.099540  0.072684  0.681035 -0.136147 -0.002776  0.115566
     1 z       0.536829 -0.004391 -0.029997 -0.499115  0.014968  0.024527
     2 x      -0.040924  0.110214 -0.019954 -0.008094  0.322189  0.404609
     2 y      -0.190833  0.522375 -0.119732 -0.014967 -0.132860 -0.066101
     2 z       0.036421 -0.036271  0.065631 -0.036870 -0.399858 -0.473241
     3 x      -0.065704 -0.118067  0.083661 -0.034208  0.331500 -0.406308
     3 y       0.169137  0.475929 -0.098650 -0.020280  0.265863 -0.231094
     3 z       0.080585  0.214224 -0.048066 -0.008215 -0.317441  0.416585
     4 x       0.032492 -0.044888 -0.189032  0.178120 -0.003733 -0.016238
     4 y       0.006611 -0.065319 -0.416901  0.304347 -0.000759 -0.029912
     4 z      -0.035654 -0.053019 -0.249571  0.218757  0.004097 -0.020345
     5 x       0.029878  0.075707  0.278077  0.392941 -0.000938 -0.000089
     5 y       0.006079 -0.032089 -0.096514 -0.107770 -0.000191 -0.007040
     5 z      -0.032785  0.063043  0.235522  0.338113  0.001030 -0.001386
     6 x       0.038757 -0.058014  0.001692  0.011525 -0.056800 -0.006617
     6 y       0.007886 -0.430238  0.074314 -0.012155 -0.011557 -0.036901
     6 z      -0.042529 -0.132646  0.015322  0.008249  0.062327 -0.012873
     7 x       0.142922  0.012596 -0.037739  0.008293 -0.007881  0.007247
     7 y       0.150306 -0.258373 -0.071604 -0.009495 -0.034309  0.005439
     7 z      -0.368121 -0.076430  0.117711  0.038388 -0.000357 -0.000883
     8 x      -0.010727 -0.082258 -0.033734  0.016327 -0.281692  0.187813
     8 y      -0.033054 -0.090127 -0.022387  0.016470 -0.225172  0.151450
     8 z       0.007748  0.075139  0.028809 -0.011324  0.271565 -0.180504
     9 x      -0.012390  0.080777  0.028525 -0.012266 -0.275424 -0.183329
     9 y       0.028351 -0.056955 -0.009720  0.010652  0.111818  0.075935
     9 z       0.017618 -0.103761 -0.039509  0.020052  0.339763  0.226753
    10 x       0.371396 -0.026499  0.123895  0.040146 -0.005007 -0.001057
    10 y      -0.045660 -0.266325 -0.038717 -0.003014  0.031687  0.003750
    10 z      -0.196245 -0.033530 -0.059651  0.003435  0.014499  0.008228
    11 x       0.045285  0.017507 -0.013167  0.019455 -0.058913 -0.059693
    11 y       0.009214 -0.049560  0.021635  0.002838 -0.011987  0.046960
    11 z      -0.049692  0.006765 -0.007988  0.018256  0.064645 -0.045692
    12 x       0.072425  0.057794 -0.030089  0.015498 -0.072317  0.069938
    12 y       0.014736 -0.027246  0.008581  0.002368 -0.014714  0.006755
    12 z      -0.079475  0.047616 -0.025830  0.014563  0.079354  0.064989




--------------------------------------------------------------------------------
  Vibrational properties (for cluster):  Temperature  =       0.000 K
--------------------------------------------------------------------------------
  Zero point energy            =        0.707284 eV
--------------------------------------------------------------------------------

  Phonon density of states : 

--------------------------------------------------------------------------------
 Frequency (cm-1) Density of States                                             
--------------------------------------------------------------------------------
    0.00000 |****************************************                      0.057
   14.32406 |                                                              0.000
   28.64812 |************************************************************  0.086
   42.97219 |                                                              0.000
   57.29625 |                                                              0.000
   71.62031 |                                                              0.000
   85.94437 |********************                                          0.029
  100.26843 |********************                                          0.029
  114.59250 |********************                                          0.029
  128.91656 |                                                              0.000
  143.24062 |************************************************************  0.086
  157.56468 |                                                              0.000
  171.88874 |********************                                          0.029
  186.21281 |                                                              0.000
  200.53687 |                                                              0.000
  214.86093 |****************************************                      0.057
  229.18499 |********************                                          0.029
  243.50905 |********************                                          0.029
  257.83311 |****************************************                      0.057
  272.15718 |                                                              0.000
  286.48124 |                                                              0.000
  300.80530 |********************                                          0.029
  315.12936 |                                                              0.000
  329.45342 |********************                                          0.029
  343.77749 |********************                                          0.029
  358.10155 |                                                              0.000
  372.42561 |                                                              0.000
  386.74967 |****************************************                      0.057
  401.07373 |                                                              0.000
  415.39780 |********************                                          0.029
  429.72186 |********************                                          0.029
  444.04592 |                                                              0.000
  458.36998 |                                                              0.000
  472.69404 |********************                                          0.029
  487.01811 |********************                                          0.029
  501.34217 |********************                                          0.029
  515.66623 |                                                              0.000
  529.99029 |                                                              0.000
  544.31435 |                                                              0.000
  558.63842 |****************************************                      0.057
  572.96248 |                                                              0.000
  587.28654 |                                                              0.000
  601.61060 |********************                                          0.029
  615.93466 |                                                              0.000
  630.25872 |                                                              0.000
  644.58279 |                                                              0.000
  658.90685 |                                                              0.000
  673.23091 |                                                              0.000
  687.55497 |********************                                          0.029
  701.87903 |                                                              0.000
  716.20310 |                                                              0.000
  730.52716 |                                                              0.000
  744.85122 |                                                              0.000
  759.17528 |                                                              0.000
  773.49934 |****************************************                      0.057
  787.82341 |                                                              0.000
  802.14747 |                                                              0.000
  816.47153 |                                                              0.000
  830.79559 |                                                              0.000
  845.11965 |                                                              0.000
  859.44372 |                                                              0.000
  873.76778 |                                                              0.000
  888.09184 |                                                              0.000
  902.41590 |********************                                          0.029
--------------------------------------------------------------------------------



  Time to end of optimisation =       0.0489 seconds


  Peak dynamic memory used =       0.65 MB 


  Timing analysis for GULP :

--------------------------------------------------------------------------------
  Task / Subroutine                                          Time (Seconds)
--------------------------------------------------------------------------------
  Calculation of real space energy and derivatives                0.0038
  Calculation of phonons                                          0.0018
  Calculation and manipulation of Hessian matrix                  0.0025
  Calculation of matrix inversion                                 0.0001
--------------------------------------------------------------------------------
  Total CPU time                                                  0.0489
--------------------------------------------------------------------------------


  Job Finished at 14:40.02 25th May        2022                               

