********************************************************************************
*                       GENERAL UTILITY LATTICE PROGRAM                        *
*                                 Julian Gale                                  *
*                       Curtin Institute for Computation                       *
*                           Department of Chemistry                            *
*                    Curtin University, Western Australia                      *
********************************************************************************
* Version = 5.1.1 * Last modified =  24th November 2018                        *
********************************************************************************
*  optimise     - perform optimisation run                                     *
*  conp         - constant pressure calculation                                *
*  shell        - only shells and radii to be optimised                        *
*  phonon       - calculate phonons for final geometry                         *
*  eigenvectors - output phonon eigenvectors                                   *
********************************************************************************

  Job Started  at 14:40.05 25th May        2022                               

  Number of CPUs =     1

  Host name      = login03                                 


  Total number of configurations input =      1

********************************************************************************
*  Input for Configuration =   1                                               *
********************************************************************************

  Formula = Al3F9                                                       

  Number of irreducible atoms/shells =      21


  Total number atoms/shells =      21

  Dimensionality = 0               :  Cluster


  Charge on cluster =  -0.000000


  Initial cluster dipoles : x =      0.278118 e.Angs
                            y =     -0.647555 e.Angs
                            z =     -0.235668 e.Angs

  Temperature of configuration =  0.000     K 

  Symmetry number =      1

  Cartesian coordinates of cluster :

--------------------------------------------------------------------------------
   No.  Atomic       x           y          z         Charge      Occupancy
        Label      (Angs)      (Angs)     (Angs)        (e)         (Frac)  
--------------------------------------------------------------------------------
      1 Al    c     -1.7879      2.5416     -1.1345     3.00000    1.000000    
      2 Al    c     -0.4112     -0.1507     -2.3993     3.00000    1.000000    
      3 Al    c     -2.1908     -0.1615     -0.6064     3.00000    1.000000    
      4 F     c     -0.7837      3.6804     -0.1330     0.59000    1.000000    
      5 F     c     -3.0084      3.1781     -2.3254     0.59000    1.000000    
      6 F     c     -1.2379     -1.6466     -1.8736     0.59000    1.000000    
      7 F     c     -2.6311      1.5670      0.2644     0.59000    1.000000    
      8 F     c     -3.1634     -1.1378      0.5451     0.59000    1.000000    
      9 F     c      0.6981     -0.6486     -3.7617     0.59000    1.000000    
     10 F     c     -0.5090      1.7213     -2.2558     0.59000    1.000000    
     11 F     c     -2.4782      0.4696     -2.2787     0.59000    1.000000    
     12 F     c     -0.3345      0.1523     -0.3664     0.59000    1.000000    
     13 F     s     -0.7837 *    3.6804 *   -0.1330 *  -1.59000    1.000000    
     14 F     s     -3.0084 *    3.1781 *   -2.3254 *  -1.59000    1.000000    
     15 F     s     -1.2379 *   -1.6466 *   -1.8736 *  -1.59000    1.000000    
     16 F     s     -2.6311 *    1.5670 *    0.2644 *  -1.59000    1.000000    
     17 F     s     -3.1634 *   -1.1378 *    0.5451 *  -1.59000    1.000000    
     18 F     s      0.6981 *   -0.6486 *   -3.7617 *  -1.59000    1.000000    
     19 F     s     -0.5090 *    1.7213 *   -2.2558 *  -1.59000    1.000000    
     20 F     s     -2.4782 *    0.4696 *   -2.2787 *  -1.59000    1.000000    
     21 F     s     -0.3345 *    0.1523 *   -0.3664 *  -1.59000    1.000000    
--------------------------------------------------------------------------------


  Brillouin zone sampling points :

--------------------------------------------------------------------------------
  Point number          x          y          z            Weight
--------------------------------------------------------------------------------
        1           0.000000   0.000000   0.000000     1.00000000
--------------------------------------------------------------------------------


********************************************************************************
*  General input information                                                   *
********************************************************************************

  Species output for all configurations : 

--------------------------------------------------------------------------------
  Species    Type    Atomic    Atomic    Charge       Radii (Angs)     Library
                     Number     Mass       (e)     Cova   Ionic  VDW   Symbol
--------------------------------------------------------------------------------
    Al       Core       13      26.98   3.000000   1.350  0.000  2.050          
    F        Core        9      19.00   0.590000   0.710  0.000  1.300          
    F        Shell       9       0.00  -1.590000   0.710  0.000  1.300          
--------------------------------------------------------------------------------


  Accuracy factor for short range sums = 12.000

  Time limit = Infinity

  Maximum range for interatomic potentials =    100000.000000 Angstroms

  General interatomic potentials :

--------------------------------------------------------------------------------
Atom  Types   Potential      Parameter       Value         Units   Cutoffs(Ang)
  1     2                                                            Min /  Max 
--------------------------------------------------------------------------------
Al   c F    s Buckingham    Buckingham A     3760.0008    eV        0.000 10.000
                            Buckingham rho  0.22200000    Ang       
                            Buckingham C     0.0000000    eV*Ang^6  
--------------------------------------------------------------------------------
F    s F    s Buck 4 range  Buck4 A          1127.7000    eV        0.000 12.000
                            Buck4 rho       0.27530000    Ang       
                            Buck4 C          15.830000    eV*Ang^6  
                            Buck4 minimum    2.7900000    Ang       
--------------------------------------------------------------------------------
F    c F    s Spring (c-s)  Spring k 2       20.770000    eV*Ang^-2 0.000  0.800
                            Spring k 4       0.0000000    eV*Ang^-4 
--------------------------------------------------------------------------------

********************************************************************************
*  Output for configuration   1                                                *
********************************************************************************


  Components of energy : 

--------------------------------------------------------------------------------
  Interatomic potentials     =          10.82990892 eV    
  Monopole - monopole (real) =        -177.80103059 eV    
--------------------------------------------------------------------------------
  Total lattice energy       =        -166.97112166 eV    
--------------------------------------------------------------------------------
  Total lattice energy       =          -16110.1609 kJ/mol
--------------------------------------------------------------------------------


  Number of variables =       27

  Maximum number of calculations  =          2000
  Maximum Hessian update interval =            10
  Maximum step size               =   1.000000000
  Maximum parameter tolerance     =   0.000001000
  Maximum function  tolerance     =   0.000010000
  Maximum gradient  tolerance     =   0.000000010
  Maximum gradient  component     =   0.010000000

  Symmetry not applied to optimisation

  Newton-Raphson optimiser to be used

  BFGS hessian update to be used

  Lower half triangular hessian to be used

  Minimiser to switch to RFO
  When gradient norm is less than     0.010000

  Shell only optimisation

  Start of cluster optimisation :

  Cycle:      0 Energy:      -166.971122  Gnorm:      1.501699  CPU:    0.005
  ** Hessian calculated **
  Cycle:      1 Energy:      -184.025277  Gnorm:      0.533700  CPU:    0.006
  ** Hessian calculated **
  Cycle:      2 Energy:      -185.264522  Gnorm:      0.029717  CPU:    0.009
  Cycle:      3 Energy:      -185.270331  Gnorm:      0.004994  CPU:    0.011
  ** Hessian has required structure
  Cycle:      4 Energy:      -185.270483  Gnorm:      0.001252  CPU:    0.012
  ** Hessian has required structure
  Cycle:      5 Energy:      -185.270492  Gnorm:      0.000584  CPU:    0.014
  ** Hessian has required structure
  Cycle:      6 Energy:      -185.270496  Gnorm:      0.000284  CPU:    0.016
  ** Hessian has required structure
  Cycle:      7 Energy:      -185.270496  Gnorm:      0.000174  CPU:    0.017
  ** Hessian has required structure
  Cycle:      8 Energy:      -185.270497  Gnorm:      0.000117  CPU:    0.019
  ** Hessian has required structure
  Cycle:      9 Energy:      -185.270497  Gnorm:      0.000071  CPU:    0.020
  ** Hessian has required structure
  Cycle:     10 Energy:      -185.270497  Gnorm:      0.000047  CPU:    0.022
  ** Hessian has required structure
  Cycle:     11 Energy:      -185.270497  Gnorm:      0.000037  CPU:    0.024
  ** Hessian has required structure
  Cycle:     12 Energy:      -185.270497  Gnorm:      0.000000  CPU:    0.026
  ** Hessian has required structure
  Cycle:     13 Energy:      -185.270497  Gnorm:      0.000000  CPU:    0.027
  ** Hessian has required structure
  Cycle:     14 Energy:      -185.270497  Gnorm:      0.000000  CPU:    0.029
  ** Hessian has required structure
  Cycle:     15 Energy:      -185.270497  Gnorm:      0.000000  CPU:    0.031
  ** Hessian has required structure
  Cycle:     16 Energy:      -185.270497  Gnorm:      0.000000  CPU:    0.033
  ** Hessian has required structure
  Cycle:     17 Energy:      -185.270497  Gnorm:      0.000000  CPU:    0.034
  ** Hessian has required structure
  Cycle:     18 Energy:      -185.270497  Gnorm:      0.000000  CPU:    0.036
  ** Hessian calculated **

  XYZ File written as 005/3/sp_mod_-60/sp_mod_-60_eig.xyz



  **** Optimisation achieved ****


  Final energy =    -185.27049681 eV
  Final Gnorm  =       0.00000002

  Components of energy : 

--------------------------------------------------------------------------------
  Interatomic potentials     =          38.78890326 eV    
  Monopole - monopole (real) =        -224.05940006 eV    
--------------------------------------------------------------------------------
  Total lattice energy       =        -185.27049681 eV    
--------------------------------------------------------------------------------
  Total lattice energy       =          -17875.7708 kJ/mol
--------------------------------------------------------------------------------

  Final cartesian coordinates of atoms :

--------------------------------------------------------------------------------
   No.  Atomic        x           y          z          Radius
        Label       (Angs)      (Angs)     (Angs)       (Angs) 
--------------------------------------------------------------------------------
     1  Al    c    -1.787874    2.541612   -1.134496    0.000000
     2  Al    c    -0.411250   -0.150728   -2.399289    0.000000
     3  Al    c    -2.190845   -0.161484   -0.606400    0.000000
     4  F     c    -0.783680    3.680382   -0.132999    0.000000
     5  F     c    -3.008353    3.178093   -2.325350    0.000000
     6  F     c    -1.237911   -1.646642   -1.873609    0.000000
     7  F     c    -2.631110    1.567035    0.264411    0.000000
     8  F     c    -3.163417   -1.137777    0.545144    0.000000
     9  F     c     0.698089   -0.648580   -3.761657    0.000000
    10  F     c    -0.508986    1.721287   -2.255823    0.000000
    11  F     c    -2.478163    0.469638   -2.278650    0.000000
    12  F     c    -0.334490    0.152318   -0.366351    0.000000
    13  F     s    -0.925066    3.506699   -0.286413    0.000000
    14  F     s    -2.829628    3.079515   -2.140999    0.000000
    15  F     s    -1.227172   -1.409316   -1.847875    0.000000
    16  F     s    -2.469438    1.477016   -0.035727    0.000000
    17  F     s    -3.015026   -1.005857    0.359594    0.000000
    18  F     s     0.529618   -0.544705   -3.538575    0.000000
    19  F     s    -0.602212    1.601076   -2.162675    0.000000
    20  F     s    -2.343060    0.396755   -2.095757    0.000000
    21  F     s    -0.533860    0.098341   -0.562536    0.000000
--------------------------------------------------------------------------------


  Final Cartesian derivatives :

--------------------------------------------------------------------------------
   No.  Atomic          x             y             z           Radius
        Label       (eV/Angs)     (eV/Angs)    (eV/Angs)      (eV/Angs)
--------------------------------------------------------------------------------
      1 Al    c       0.000000      0.000000      0.000000      0.000000
      2 Al    c       0.000000      0.000000      0.000000      0.000000
      3 Al    c       0.000000      0.000000      0.000000      0.000000
      4 F     c       0.000000      0.000000      0.000000      0.000000
      5 F     c       0.000000      0.000000      0.000000      0.000000
      6 F     c       0.000000      0.000000      0.000000      0.000000
      7 F     c       0.000000      0.000000      0.000000      0.000000
      8 F     c       0.000000      0.000000      0.000000      0.000000
      9 F     c       0.000000      0.000000      0.000000      0.000000
     10 F     c       0.000000      0.000000      0.000000      0.000000
     11 F     c       0.000000      0.000000      0.000000      0.000000
     12 F     c       0.000000      0.000000      0.000000      0.000000
     13 F     s      -0.000000     -0.000000     -0.000000      0.000000
     14 F     s       0.000000     -0.000000      0.000000      0.000000
     15 F     s      -0.000000      0.000000      0.000000      0.000000
     16 F     s      -0.000000      0.000000      0.000000      0.000000
     17 F     s       0.000000      0.000000     -0.000000      0.000000
     18 F     s      -0.000000      0.000000      0.000000      0.000000
     19 F     s      -0.000000     -0.000000      0.000000      0.000000
     20 F     s       0.000000      0.000000     -0.000000      0.000000
     21 F     s       0.000000      0.000000     -0.000000      0.000000
--------------------------------------------------------------------------------
  Maximum abs         0.000000      0.000000      0.000000      0.000000
--------------------------------------------------------------------------------


  Born effective charge tensors : 

-------------------------------------------------------------------------------
  Atom             x           y             z
-------------------------------------------------------------------------------
    1 Al    x       0.8079     -0.2539     -0.4730
            y      -0.2125      1.5202      0.2433
            z      -0.4646      0.2061      0.8574
-------------------------------------------------------------------------------
    2 Al    x       1.4534     -0.2355      0.2781
            y      -0.2855      0.9844     -0.0143
            z       0.2522     -0.0120      1.2204
-------------------------------------------------------------------------------
    3 Al    x       0.9380     -0.2359     -0.1459
            y      -0.2746      1.4178      0.5130
            z      -0.1309      0.4725      0.8334
-------------------------------------------------------------------------------
    4 F     x      -0.3419      0.1894      0.1733
            y       0.2207     -0.3700      0.1895
            z       0.1857      0.1557     -0.3499
-------------------------------------------------------------------------------
    5 F     x      -0.2643     -0.0616      0.2673
            y      -0.1279     -0.5460     -0.1609
            z       0.2414     -0.1291     -0.2861
-------------------------------------------------------------------------------
    6 F     x      -0.3945      0.2574      0.0781
            y       0.3481     -0.3329     -0.2706
            z       0.1176     -0.2548     -0.4942
-------------------------------------------------------------------------------
    7 F     x      -0.2471      0.0722      0.0221
            y       0.0672     -0.3483     -0.1199
            z       0.0164     -0.0760     -0.2381
-------------------------------------------------------------------------------
    8 F     x      -0.3491      0.1806     -0.2053
            y       0.1936     -0.3775     -0.2399
            z      -0.1955     -0.2151     -0.2830
-------------------------------------------------------------------------------
    9 F     x      -0.3242     -0.0943     -0.2890
            y      -0.0590     -0.4593      0.1009
            z      -0.2675      0.1386     -0.2128
-------------------------------------------------------------------------------
   10 F     x      -0.4482      0.0459      0.1089
            y       0.0516     -0.5250     -0.0370
            z       0.0832     -0.0441     -0.4074
-------------------------------------------------------------------------------
   11 F     x      -0.6464      0.0502      0.1445
            y       0.0523     -0.5375     -0.2141
            z       0.0926     -0.1933     -0.1032
-------------------------------------------------------------------------------
   12 F     x      -0.1835      0.0856      0.0411
            y       0.0259     -0.4260      0.0100
            z       0.0694     -0.0486     -0.5366
-------------------------------------------------------------------------------




  Moment of inertia tensor (10^-46 x kgm^2): 

-------------------------------------------------------------------------------
                x           y           z           Principal axis system
-------------------------------------------------------------------------------
       x        171.77       11.83       29.51          109.252808
       y         11.83      117.66      -10.39          146.805000
       z         29.51      -10.39      164.59          197.962338
-------------------------------------------------------------------------------
  Centre of mass (Ang) =    -1.484297     0.791968    -1.362289
-------------------------------------------------------------------------------


  Vibrational Frequency Calculation : 

--------------------------------------------------------------------------------

  Frequencies (cm-1) and Eigenvectors : 

  Frequency    -143.0921  -85.8777  -46.9373  -32.9599   -0.0000    0.0000
  IR Intensity    0.0344    0.0036    0.0015    0.0077    0.0000    0.0000
     in X         0.0139    0.0009    0.0001    0.0000    0.0000    0.0000
     in Y         0.0202    0.0019    0.0006    0.0045    0.0000    0.0000
     in Z         0.0003    0.0008    0.0008    0.0032    0.0000    0.0000
  Raman Intsty    0.2854    0.1641    0.3775    2.2148    0.0000    0.0000

     1 x       0.133336 -0.185992  0.160031  0.178190 -0.309320  0.026549
     1 y       0.157245 -0.100136  0.071668 -0.113969  0.103649  0.151239
     1 z       0.052157 -0.117346 -0.230054  0.077372  0.025827 -0.288982
     2 x      -0.330517 -0.043944 -0.055663 -0.121750 -0.309320  0.026549
     2 y      -0.036512  0.083762 -0.282476  0.090870  0.103649  0.151239
     2 z      -0.155536 -0.116205  0.098283 -0.054209  0.025827 -0.288982
     3 x       0.045823  0.265750 -0.118767 -0.046240 -0.309320  0.026549
     3 y       0.067693 -0.046221  0.241021 -0.078386  0.103649  0.151239
     3 z       0.095879  0.210357  0.166805 -0.081441  0.025827 -0.288982
     4 x      -0.025803 -0.015150  0.217137  0.289854 -0.259576  0.022280
     4 y       0.157954 -0.059330  0.081392 -0.324347  0.086980  0.126917
     4 z       0.123671 -0.257236 -0.300484  0.180803  0.021673 -0.242509
     5 x      -0.013156 -0.220335  0.145993  0.266072 -0.259576  0.022280
     5 y      -0.143360 -0.056854  0.013046  0.175230  0.086980  0.126917
     5 z       0.010370 -0.007741 -0.228655  0.086289  0.021673 -0.242509
     6 x       0.420927  0.103685 -0.176489 -0.062746 -0.259576  0.022280
     6 y      -0.268907  0.096212 -0.111640  0.138346  0.086980  0.126917
     6 z       0.269684  0.224882  0.150569  0.307274  0.021673 -0.242509
     7 x      -0.074902  0.066770  0.068506 -0.136628 -0.259576  0.022280
     7 y       0.059609 -0.012644  0.297021 -0.053106  0.086980  0.126917
     7 z      -0.126527  0.096088 -0.046284 -0.065476  0.021673 -0.242509
     8 x      -0.078029  0.345907 -0.123497 -0.168928 -0.259576  0.022280
     8 y       0.073975 -0.053884  0.332221 -0.024024  0.086980  0.126917
     8 z      -0.003753  0.267797  0.231638 -0.141752  0.021673 -0.242509
     9 x      -0.194804 -0.153828 -0.017192 -0.304145 -0.259576  0.022280
     9 y       0.184879 -0.107933 -0.264241 -0.319560  0.086980  0.126917
     9 z      -0.143895 -0.129954  0.116325 -0.071893  0.021673 -0.242509
    10 x      -0.053290 -0.193753  0.032073  0.117134 -0.259576  0.022280
    10 y       0.051240  0.030463 -0.219609  0.068110  0.086980  0.126917
    10 z       0.058810 -0.311054 -0.069608 -0.197251  0.021673 -0.242509
    11 x       0.209533 -0.175664 -0.068724  0.066362 -0.259576  0.022280
    11 y      -0.444903 -0.036773 -0.082256  0.158966  0.086980  0.126917
    11 z      -0.169098  0.239581  0.042634 -0.034471  0.021673 -0.242509
    12 x      -0.010113  0.199690 -0.060648 -0.079129 -0.259576  0.022280
    12 y       0.104978  0.275332 -0.081935  0.301319  0.086980  0.126917
    12 z      -0.010323 -0.094726  0.062116  0.005923  0.021673 -0.242509


  Frequency       0.0000   44.7728   75.0726   96.2220  128.3356  158.4025
  IR Intensity    0.0000    0.0019    0.0083    0.0054    0.0133    0.0053
     in X         0.0000    0.0003    0.0044    0.0037    0.0000    0.0052
     in Y         0.0000    0.0014    0.0039    0.0000    0.0015    0.0001
     in Z         0.0000    0.0002    0.0000    0.0017    0.0118    0.0000
  Raman Intsty    0.0000    0.7496    1.7471    0.0642    0.0222    0.2083

     1 x      -0.103466 -0.170571 -0.002350 -0.013936  0.093037  0.102444
     1 y      -0.271058 -0.081505  0.041258  0.020167  0.174903 -0.083057
     1 z      -0.151364 -0.173652  0.027276 -0.043420  0.108405 -0.042316
     2 x      -0.103466  0.201809  0.061263 -0.050313 -0.100498 -0.006139
     2 y      -0.271058  0.083159 -0.035652 -0.014321 -0.046318  0.050177
     2 z      -0.151364  0.212207  0.009238  0.006966 -0.059087  0.133584
     3 x      -0.103466 -0.009887 -0.169209 -0.046789  0.010061 -0.226858
     3 y      -0.271058 -0.054767  0.077359 -0.006482 -0.025469  0.000709
     3 z      -0.151364 -0.051390 -0.057274 -0.047264 -0.261248 -0.096436
     4 x      -0.086827 -0.316535  0.266289 -0.260759 -0.102112  0.318520
     4 y      -0.227467  0.037242 -0.300649 -0.023699  0.295297 -0.015399
     4 z      -0.127022 -0.091995  0.131802  0.262720  0.110822 -0.341086
     5 x      -0.086827 -0.027997  0.043940  0.294979 -0.203173 -0.324328
     5 y      -0.227467 -0.155065  0.242659  0.090217  0.015260 -0.310931
     5 z      -0.127022 -0.312792  0.090706 -0.315606  0.307629  0.253913
     6 x      -0.086827  0.182400  0.145852 -0.128706 -0.181470 -0.056925
     6 y      -0.227467  0.082502 -0.078959  0.003575  0.003058  0.013378
     6 z      -0.127022  0.297198 -0.085210 -0.058787  0.071353 -0.018460
     7 x      -0.086827 -0.238365 -0.237441 -0.227339  0.137405 -0.151133
     7 y      -0.227467 -0.024998  0.050502  0.004013 -0.083234  0.019672
     7 z      -0.127022 -0.163174 -0.110080 -0.178532 -0.081165 -0.079907
     8 x      -0.086827 -0.083120  0.208949  0.510905  0.237847  0.229854
     8 y      -0.227467 -0.048234 -0.038750 -0.037078  0.099411 -0.105023
     8 z      -0.127022 -0.108233  0.159545  0.401502  0.073637  0.188953
     9 x      -0.086827  0.261097  0.391662 -0.217192  0.096984 -0.124220
     9 y      -0.227467 -0.153932  0.186242 -0.017216 -0.503737  0.182645
     9 z      -0.127022  0.332582  0.208945 -0.134441  0.266823 -0.024118
    10 x      -0.086827  0.096797 -0.312742  0.143588 -0.107743  0.264303
    10 y      -0.227467  0.068367 -0.059524  0.002895  0.069846  0.079408
    10 z      -0.127022 -0.031080 -0.218194  0.169333 -0.024988  0.054856
    11 x      -0.086827  0.167622 -0.205833  0.056909  0.068265  0.228326
    11 y      -0.227467 -0.027287 -0.222465  0.051317 -0.049268  0.120179
    11 z      -0.127022 -0.082720 -0.112593 -0.054446 -0.272160 -0.139520
    12 x      -0.086827 -0.067340 -0.169243 -0.040069  0.050898 -0.228822
    12 y      -0.227467  0.284698  0.122080 -0.073267  0.030490  0.054408
    12 z      -0.127022  0.175507 -0.040183  0.008018 -0.199408  0.111527


  Frequency     168.8736  177.2549  194.3623  209.1225  219.7412  235.6699
  IR Intensity    0.0186    0.0342    0.0095    0.0327    0.0753    0.0011
     in X         0.0031    0.0307    0.0015    0.0304    0.0001    0.0002
     in Y         0.0077    0.0035    0.0058    0.0005    0.0753    0.0001
     in Z         0.0078    0.0000    0.0022    0.0018    0.0000    0.0009
  Raman Intsty    0.3501    0.0997    0.3226    0.0723    0.4363    0.8968

     1 x       0.012184 -0.209832 -0.070129  0.194212  0.140997  0.084747
     1 y      -0.153128  0.038964  0.048081 -0.024376 -0.181843 -0.135331
     1 z      -0.029924 -0.001273 -0.321924 -0.116313 -0.145752  0.067409
     2 x      -0.142972  0.439930 -0.112181  0.307661 -0.047791  0.118261
     2 y       0.120732 -0.037118 -0.121372 -0.177245 -0.072870  0.000113
     2 z      -0.149568  0.190723 -0.028347  0.221498  0.182300 -0.177301
     3 x       0.048146  0.072651  0.137156 -0.157773 -0.082569 -0.127512
     3 y      -0.148806 -0.078200  0.214407  0.240256 -0.265260  0.067062
     3 z       0.011334 -0.191784  0.219124 -0.027116 -0.012390  0.162790
     4 x      -0.072073  0.033862 -0.088189 -0.251659 -0.263475 -0.201371
     4 y      -0.259677 -0.120748 -0.326832 -0.086339  0.206182  0.216610
     4 z       0.195385 -0.045968  0.159525  0.403836 -0.165157 -0.050337
     5 x      -0.067049 -0.189445 -0.375949 -0.118740  0.129907  0.046456
     5 y      -0.277051  0.259859  0.296329 -0.296700  0.452129  0.103432
     5 z      -0.026239  0.128874  0.162641  0.052948  0.199428  0.230079
     6 x      -0.035593  0.193695 -0.081102 -0.058219 -0.076917  0.389943
     6 y       0.018068  0.033537 -0.109597 -0.004901 -0.110303 -0.134706
     6 z      -0.165234  0.047878 -0.000390  0.027079  0.151177 -0.385574
     7 x       0.025845 -0.067804 -0.133233  0.256849  0.187354 -0.252984
     7 y      -0.116882 -0.116835  0.200311  0.174207 -0.163051  0.120737
     7 z      -0.017167 -0.104574 -0.172525  0.125719 -0.100038  0.092050
     8 x      -0.241429 -0.096458  0.023631  0.051583 -0.090276 -0.082440
     8 y       0.545082  0.421651 -0.106197 -0.014880 -0.056211 -0.026321
     8 z       0.369667  0.120853 -0.153956 -0.069267  0.159027  0.118324
     9 x       0.171177 -0.209965  0.040910 -0.114159 -0.041659  0.041665
     9 y       0.103208 -0.103879 -0.052138  0.079023  0.322230 -0.370404
     9 z       0.113962 -0.306880  0.073188 -0.211324  0.052852 -0.132455
    10 x       0.125206 -0.106672  0.172611 -0.072595  0.017185  0.138333
    10 y       0.141166 -0.090874  0.031023 -0.082872  0.026368  0.000747
    10 z      -0.160883  0.172633  0.036302 -0.330058 -0.339360 -0.144790
    11 x       0.140880  0.019130  0.297537 -0.012478  0.167373  0.043706
    11 y       0.069453 -0.100508  0.061694  0.026135  0.003168  0.101233
    11 z       0.038854 -0.153372  0.095717 -0.084303  0.010257  0.185417
    12 x       0.051518  0.062890  0.197590 -0.090625 -0.042167 -0.213271
    12 y      -0.007440 -0.091216 -0.162753  0.160288 -0.060893  0.069889
    12 z      -0.147961  0.143337 -0.044223 -0.007661  0.003027  0.024249


  Frequency     259.3278  272.6846  290.7939  310.2126  333.3663  358.7544
  IR Intensity    0.0675    0.0252    0.0334    0.0228    0.0219    0.0249
     in X         0.0090    0.0196    0.0118    0.0148    0.0033    0.0002
     in Y         0.0337    0.0051    0.0003    0.0048    0.0004    0.0000
     in Z         0.0248    0.0005    0.0213    0.0032    0.0181    0.0246
  Raman Intsty    0.0000    0.0585    0.0546    0.2759    0.0058    0.0002

     1 x       0.084729  0.130087  0.063096  0.225208  0.073934  0.075781
     1 y      -0.191454 -0.014192 -0.015672  0.041157  0.152829  0.143919
     1 z      -0.045128  0.181572  0.008179 -0.139970 -0.034577 -0.101795
     2 x       0.005855  0.097857  0.109558  0.022445  0.067092 -0.132923
     2 y      -0.202065 -0.131979  0.011500  0.228827 -0.090757 -0.019747
     2 z      -0.234243 -0.046841  0.202074  0.029470  0.308940 -0.192140
     3 x       0.020206  0.174762  0.140755  0.018931 -0.019075  0.112949
     3 y       0.038493  0.027744 -0.052498 -0.066780 -0.138300 -0.179866
     3 z      -0.059102  0.035240  0.161457  0.011336 -0.032040 -0.002391
     4 x      -0.175043  0.014651  0.026276 -0.021888  0.118499  0.033713
     4 y       0.019643  0.236380  0.063176  0.055768  0.074385  0.026306
     4 z      -0.028636  0.012535 -0.031940  0.120685  0.069111  0.121776
     5 x      -0.028385  0.080840  0.050652 -0.082115 -0.049889 -0.121139
     5 y       0.060120 -0.219333  0.015628 -0.085343 -0.087132 -0.004612
     5 z       0.215316  0.131424  0.052911  0.115971 -0.053987 -0.019738
     6 x      -0.098037 -0.225182 -0.379024  0.104200  0.197268 -0.030769
     6 y       0.050198  0.101003  0.049176  0.225348 -0.353987 -0.015719
     6 z       0.262347  0.129727 -0.429704  0.028883 -0.052867 -0.160649
     7 x      -0.074159 -0.540805 -0.110948  0.011151 -0.044794  0.271456
     7 y      -0.018798 -0.012123 -0.016125  0.052810 -0.056928 -0.064106
     7 z      -0.003090 -0.208131 -0.095501 -0.367159 -0.314766 -0.350589
     8 x       0.004679 -0.012896 -0.105658 -0.031219 -0.086521 -0.011206
     8 y       0.106160  0.080356 -0.032981 -0.044101 -0.039963 -0.026486
     8 z      -0.014543 -0.085858 -0.019208 -0.004651  0.020044  0.042653
     9 x       0.260103  0.106602 -0.129856 -0.068686 -0.166513  0.085196
     9 y       0.162327  0.120978 -0.000836 -0.047337  0.037505 -0.016966
     9 z      -0.164017 -0.136418  0.025379  0.064742  0.136454 -0.056554
    10 x       0.344553 -0.255443  0.070030  0.269371 -0.040129 -0.194268
    10 y      -0.268362 -0.150127  0.061112  0.152048 -0.001093 -0.306063
    10 z       0.335428 -0.234841  0.057611 -0.132828  0.121770  0.097562
    11 x      -0.340761  0.115923  0.054949 -0.536198 -0.205135  0.071640
    11 y       0.002048  0.160761 -0.514009 -0.222871  0.353291  0.192431
    11 z      -0.012155  0.110211  0.036324  0.087946  0.227755  0.154541
    12 x      -0.024973  0.236429  0.150108  0.037714  0.131891 -0.171127
    12 y       0.309727 -0.176775  0.442390 -0.328468  0.164759  0.281582
    12 z      -0.187312  0.078806 -0.038815  0.204577 -0.442276  0.524112


  Frequency     393.4932  425.5366  487.5219  504.4938  526.1130  588.8839
  IR Intensity    0.0004    0.0080    0.0374    0.0495    0.0176    0.0945
     in X         0.0003    0.0035    0.0099    0.0006    0.0059    0.0325
     in Y         0.0000    0.0006    0.0236    0.0398    0.0110    0.0219
     in Z         0.0001    0.0039    0.0039    0.0090    0.0007    0.0401
  Raman Intsty    0.0786    3.0968    0.0012    1.7629    1.6736    0.2593

     1 x      -0.012477 -0.246300 -0.090982 -0.049130 -0.063628  0.438156
     1 y       0.177663  0.300465  0.157925 -0.002206 -0.017641 -0.110890
     1 z      -0.011320  0.176532  0.055290  0.048432  0.067181 -0.411484
     2 x       0.212688  0.050734 -0.059165 -0.003471  0.039197  0.001519
     2 y       0.012508 -0.241586  0.127852  0.009678  0.051240  0.020895
     2 z      -0.108149 -0.030245  0.025864 -0.029410  0.034265 -0.009014
     3 x      -0.189069  0.060397 -0.010525  0.063024  0.220703  0.049238
     3 y      -0.155108 -0.059024 -0.053322 -0.448913 -0.267448 -0.170896
     3 z       0.133447 -0.024738 -0.018484 -0.203246 -0.149483 -0.093812
     4 x       0.115340  0.179774  0.087191  0.004367 -0.033534  0.155158
     4 y       0.070755  0.144751  0.136111  0.001418 -0.028434  0.192529
     4 z       0.094263  0.136051  0.138351  0.040255 -0.007210  0.186289
     5 x      -0.087922 -0.168720 -0.165812 -0.027913  0.031229 -0.268035
     5 y       0.008514  0.083816  0.082914  0.004311 -0.019918  0.136304
     5 z      -0.090853 -0.193849 -0.111494  0.001991  0.051516 -0.230612
     6 x      -0.070466 -0.163813  0.141024 -0.045205 -0.056531 -0.004006
     6 y       0.333031 -0.298518  0.256384 -0.143489 -0.032265  0.004917
     6 z       0.184045  0.076923 -0.079104  0.010577  0.049009  0.005112
     7 x       0.093105 -0.047760 -0.086217 -0.055146  0.004897 -0.256765
     7 y       0.064950 -0.202891 -0.050607  0.684259  0.333066 -0.146547
     7 z      -0.151633  0.098627  0.156273  0.145460 -0.011124  0.425563
     8 x      -0.227683  0.012484 -0.036992 -0.150972  0.261914  0.031576
     8 y      -0.274664  0.016639 -0.046074 -0.165635  0.279288  0.057235
     8 z       0.254906 -0.016530  0.046265  0.182789 -0.316161 -0.034928
     9 x       0.204454  0.150629 -0.174574  0.050555 -0.084493  0.003172
     9 y      -0.073368  0.003604  0.084469  0.009397  0.049908 -0.009896
     9 z      -0.258505 -0.180699  0.214777 -0.049999  0.097866 -0.001887
    10 x      -0.081830  0.405074  0.276572  0.021839  0.018506 -0.167782
    10 y       0.061591  0.229332 -0.682155  0.020175 -0.059689  0.108266
    10 z       0.109079 -0.313223 -0.230095 -0.011082 -0.022140  0.140951
    11 x       0.231342 -0.101640  0.082842 -0.070172  0.106761 -0.026069
    11 y      -0.141378 -0.025383 -0.040196  0.064064 -0.156712 -0.022907
    11 z       0.190890  0.088775 -0.072519 -0.217001  0.381339  0.081513
    12 x      -0.189619 -0.104954  0.067429  0.260227 -0.482635 -0.049856
    12 y      -0.091211  0.048823 -0.017848  0.051537 -0.086581 -0.009014
    12 z      -0.348849  0.159082 -0.137134  0.116538 -0.165852  0.040872


  Frequency     652.1794  703.7175  715.1568  787.7827  793.4634  918.1408
  IR Intensity    0.0287    0.0594    0.0169    0.0236    0.0048    0.0002
     in X         0.0244    0.0010    0.0024    0.0077    0.0025    0.0000
     in Y         0.0003    0.0574    0.0079    0.0000    0.0007    0.0001
     in Z         0.0040    0.0009    0.0066    0.0159    0.0016    0.0000
  Raman Intsty    0.0001    0.2058    0.0050    0.0206    0.0444    1.7256

     1 x       0.002578 -0.134776 -0.059386 -0.087723  0.482277  0.036354
     1 y      -0.031389 -0.521578 -0.402496 -0.090659  0.042879  0.164884
     1 z      -0.031989  0.209342  0.102855 -0.066840  0.538405 -0.028493
     2 x       0.093744 -0.039182  0.026155  0.414663  0.082373  0.286867
     2 y      -0.019711 -0.419828  0.580779  0.057078  0.017170  0.033968
     2 z       0.032770 -0.056832  0.089648 -0.495394 -0.063966 -0.307345
     3 x       0.571249 -0.077779 -0.087236  0.066335  0.052115 -0.375670
     3 y      -0.003203  0.000945  0.120892  0.241280  0.058075 -0.368330
     3 z       0.355583  0.071940  0.124511 -0.243254 -0.024006  0.526255
     4 x       0.033300  0.202453  0.140727  0.056097 -0.250625 -0.024899
     4 y       0.041872  0.237580  0.182100  0.069305 -0.264122 -0.030410
     4 z       0.037608  0.177128  0.138705  0.064930 -0.249400 -0.022518
     5 x       0.004077 -0.177581 -0.129275  0.033384 -0.334845  0.010285
     5 y      -0.006314  0.114646  0.077378 -0.020707  0.164768 -0.011176
     5 z       0.008814 -0.195894 -0.126684  0.038667 -0.327369  0.013869
     6 x      -0.042514  0.145235 -0.179308 -0.123379 -0.034060 -0.067023
     6 y      -0.006059  0.278581 -0.378666 -0.218288 -0.033636 -0.075333
     6 z      -0.013967 -0.083993  0.103625  0.097178  0.010104  0.044847
     7 x      -0.029363  0.120559  0.085712  0.013302  0.007727 -0.003598
     7 y      -0.010690  0.134399  0.041151 -0.013807  0.020517 -0.020758
     7 z      -0.020617 -0.199634 -0.147130 -0.011288 -0.056502  0.005010
     8 x      -0.121142  0.068923  0.046759 -0.146439 -0.034283  0.195912
     8 y      -0.101129  0.074171  0.042801 -0.147076 -0.036004  0.196956
     8 z       0.103671 -0.078745 -0.054482  0.179456  0.038213 -0.234097
     9 x      -0.054742 -0.105807  0.152395 -0.303009 -0.046729 -0.115592
     9 y       0.020643  0.061469 -0.085462  0.124541  0.017131  0.046333
     9 z       0.058075  0.133006 -0.190413  0.369829  0.054403  0.140540
    10 x      -0.031653 -0.012234 -0.008652 -0.017785 -0.006282 -0.006120
    10 y       0.019923  0.166835 -0.174538  0.027090 -0.002238  0.010583
    10 z      -0.002610  0.012606  0.000687  0.027352 -0.012419  0.014005
    11 x      -0.119450  0.006403  0.011273  0.032816 -0.015043 -0.025080
    11 y       0.176794  0.026261 -0.025457 -0.062681 -0.001084  0.065712
    11 z      -0.480885 -0.045418 -0.057035  0.141740  0.015115 -0.202630
    12 x      -0.434015  0.052028  0.023924 -0.013627 -0.020820  0.098614
    12 y      -0.070331  0.026746 -0.035813 -0.005878 -0.006090  0.020050
    12 z      -0.114746  0.013481 -0.045038  0.051985 -0.008898  0.014067




--------------------------------------------------------------------------------
  Vibrational properties (for cluster):  Temperature  =       0.000 K
--------------------------------------------------------------------------------
  Zero point energy            =        0.683743 eV
--------------------------------------------------------------------------------

  Phonon density of states : 

--------------------------------------------------------------------------------
 Frequency (cm-1) Density of States                                             
--------------------------------------------------------------------------------
    0.00000 |************************************************************  0.065
   14.34595 |                                                              0.000
   28.69190 |                                                              0.000
   43.03785 |******************************                                0.032
   57.38380 |                                                              0.000
   71.72975 |******************************                                0.032
   86.07570 |******************************                                0.032
  100.42165 |                                                              0.000
  114.76760 |******************************                                0.032
  129.11356 |                                                              0.000
  143.45951 |                                                              0.000
  157.80546 |************************************************************  0.065
  172.15141 |******************************                                0.032
  186.49736 |******************************                                0.032
  200.84331 |******************************                                0.032
  215.18926 |******************************                                0.032
  229.53521 |******************************                                0.032
  243.88116 |                                                              0.000
  258.22711 |******************************                                0.032
  272.57306 |******************************                                0.032
  286.91901 |******************************                                0.032
  301.26496 |******************************                                0.032
  315.61091 |                                                              0.000
  329.95686 |******************************                                0.032
  344.30281 |                                                              0.000
  358.64877 |******************************                                0.032
  372.99472 |                                                              0.000
  387.34067 |******************************                                0.032
  401.68662 |                                                              0.000
  416.03257 |******************************                                0.032
  430.37852 |                                                              0.000
  444.72447 |                                                              0.000
  459.07042 |                                                              0.000
  473.41637 |******************************                                0.032
  487.76232 |                                                              0.000
  502.10827 |******************************                                0.032
  516.45422 |******************************                                0.032
  530.80017 |                                                              0.000
  545.14612 |                                                              0.000
  559.49207 |                                                              0.000
  573.83802 |                                                              0.000
  588.18397 |******************************                                0.032
  602.52993 |                                                              0.000
  616.87588 |                                                              0.000
  631.22183 |                                                              0.000
  645.56778 |******************************                                0.032
  659.91373 |                                                              0.000
  674.25968 |                                                              0.000
  688.60563 |                                                              0.000
  702.95158 |************************************************************  0.065
  717.29753 |                                                              0.000
  731.64348 |                                                              0.000
  745.98943 |                                                              0.000
  760.33538 |                                                              0.000
  774.68133 |******************************                                0.032
  789.02728 |******************************                                0.032
  803.37323 |                                                              0.000
  817.71918 |                                                              0.000
  832.06513 |                                                              0.000
  846.41109 |                                                              0.000
  860.75704 |                                                              0.000
  875.10299 |                                                              0.000
  889.44894 |                                                              0.000
  903.79489 |******************************                                0.032
--------------------------------------------------------------------------------



  Time to end of optimisation =       0.0463 seconds


  Peak dynamic memory used =       0.65 MB 


  Timing analysis for GULP :

--------------------------------------------------------------------------------
  Task / Subroutine                                          Time (Seconds)
--------------------------------------------------------------------------------
  Calculation of real space energy and derivatives                0.0032
  Calculation of phonons                                          0.0016
  Calculation and manipulation of Hessian matrix                  0.0021
--------------------------------------------------------------------------------
  Total CPU time                                                  0.0464
--------------------------------------------------------------------------------


  Job Finished at 14:40.05 25th May        2022                               

