12
Properties=species:S:1:pos:R:3:forces:R:3 energy=-184.22589053 pbc="F F F"
Al    0.302104872    -2.336465111    -1.8976665609999999    -0.076135    -0.293294    -0.069263
Al    2.0278755299999998    -0.543049656    -0.752546024    0.27371    0.062121    0.133526
Al    -0.354933506    0.319637803    -1.786418983    -0.197582    0.231164    -0.064266
F    3.689071888    -0.164335016    -0.12377252300000001    0.054956    0.012471    0.02681
F    -0.23690587400000002    -4.067337993000001    -2.092666636    -0.015282    -0.058872    -0.013902
F    2.524428038    -1.716672376    -1.8800134890000002    0.877265    -1.381054    0.906948
F    1.716576795    0.7905541389999999    -2.26322922    0.184728    1.609457    0.935404
F    -1.477115422    1.6717950309999998    -2.220197411    -0.039669    0.046411    -0.012904
F    -1.2455760859999998    -1.6775620519999999    -1.056848169    -1.311381    -0.291299    -1.301875
F    -0.594544374    -0.7486034089999999    -3.1067080810000003    -1.810162    -0.417094    -0.220914
F    0.619798096    0.795040798    -0.310419602    0.683506    1.735248    -0.145551
F    0.929417334    -2.56251401    -0.256056573    1.376046    -1.255259    -0.174012
