********************************************************************************
*                       GENERAL UTILITY LATTICE PROGRAM                        *
*                                 Julian Gale                                  *
*                       Curtin Institute for Computation                       *
*                           Department of Chemistry                            *
*                    Curtin University, Western Australia                      *
********************************************************************************
* Version = 5.1.1 * Last modified =  24th November 2018                        *
********************************************************************************
*  optimise     - perform optimisation run                                     *
*  conp         - constant pressure calculation                                *
*  shell        - only shells and radii to be optimised                        *
*  phonon       - calculate phonons for final geometry                         *
*  eigenvectors - output phonon eigenvectors                                   *
********************************************************************************

  Job Started  at 14:40.09 25th May        2022                               

  Number of CPUs =     1

  Host name      = login03                                 


  Total number of configurations input =      1

********************************************************************************
*  Input for Configuration =   1                                               *
********************************************************************************

  Formula = Al3F9                                                       

  Number of irreducible atoms/shells =      21


  Total number atoms/shells =      21

  Dimensionality = 0               :  Cluster


  Charge on cluster =  -0.000000


  Initial cluster dipoles : x =      0.162284 e.Angs
                            y =     -0.589423 e.Angs
                            z =      0.038600 e.Angs

  Temperature of configuration =  0.000     K 

  Symmetry number =      1

  Cartesian coordinates of cluster :

--------------------------------------------------------------------------------
   No.  Atomic       x           y          z         Charge      Occupancy
        Label      (Angs)      (Angs)     (Angs)        (e)         (Frac)  
--------------------------------------------------------------------------------
      1 Al    c     -1.6891      2.5638     -1.2189     3.00000    1.000000    
      2 Al    c     -0.4110      0.0337     -2.4739     3.00000    1.000000    
      3 Al    c     -2.3175     -0.3542     -0.3819     3.00000    1.000000    
      4 F     c     -0.7445      3.7037     -0.1466     0.59000    1.000000    
      5 F     c     -3.0029      3.1467     -2.3081     0.59000    1.000000    
      6 F     c     -1.3732     -1.1545     -1.6205     0.59000    1.000000    
      7 F     c     -2.4083      1.3766     -0.1393     0.59000    1.000000    
      8 F     c     -3.4154     -1.4656      0.7813     0.59000    1.000000    
      9 F     c      0.8072     -0.6065     -3.8522     0.59000    1.000000    
     10 F     c     -0.4975      1.7654     -2.2361     0.59000    1.000000    
     11 F     c     -2.4359      0.4440     -2.2925     0.59000    1.000000    
     12 F     c     -0.3446      0.1095     -0.4487     0.59000    1.000000    
     13 F     s     -0.7445 *    3.7037 *   -0.1466 *  -1.59000    1.000000    
     14 F     s     -3.0029 *    3.1467 *   -2.3081 *  -1.59000    1.000000    
     15 F     s     -1.3732 *   -1.1545 *   -1.6205 *  -1.59000    1.000000    
     16 F     s     -2.4083 *    1.3766 *   -0.1393 *  -1.59000    1.000000    
     17 F     s     -3.4154 *   -1.4656 *    0.7813 *  -1.59000    1.000000    
     18 F     s      0.8072 *   -0.6065 *   -3.8522 *  -1.59000    1.000000    
     19 F     s     -0.4975 *    1.7654 *   -2.2361 *  -1.59000    1.000000    
     20 F     s     -2.4359 *    0.4440 *   -2.2925 *  -1.59000    1.000000    
     21 F     s     -0.3446 *    0.1095 *   -0.4487 *  -1.59000    1.000000    
--------------------------------------------------------------------------------


  Brillouin zone sampling points :

--------------------------------------------------------------------------------
  Point number          x          y          z            Weight
--------------------------------------------------------------------------------
        1           0.000000   0.000000   0.000000     1.00000000
--------------------------------------------------------------------------------


********************************************************************************
*  General input information                                                   *
********************************************************************************

  Species output for all configurations : 

--------------------------------------------------------------------------------
  Species    Type    Atomic    Atomic    Charge       Radii (Angs)     Library
                     Number     Mass       (e)     Cova   Ionic  VDW   Symbol
--------------------------------------------------------------------------------
    Al       Core       13      26.98   3.000000   1.350  0.000  2.050          
    F        Core        9      19.00   0.590000   0.710  0.000  1.300          
    F        Shell       9       0.00  -1.590000   0.710  0.000  1.300          
--------------------------------------------------------------------------------


  Accuracy factor for short range sums = 12.000

  Time limit = Infinity

  Maximum range for interatomic potentials =    100000.000000 Angstroms

  General interatomic potentials :

--------------------------------------------------------------------------------
Atom  Types   Potential      Parameter       Value         Units   Cutoffs(Ang)
  1     2                                                            Min /  Max 
--------------------------------------------------------------------------------
Al   c F    s Buckingham    Buckingham A     3760.0008    eV        0.000 10.000
                            Buckingham rho  0.22200000    Ang       
                            Buckingham C     0.0000000    eV*Ang^6  
--------------------------------------------------------------------------------
F    s F    s Buck 4 range  Buck4 A          1127.7000    eV        0.000 12.000
                            Buck4 rho       0.27530000    Ang       
                            Buck4 C          15.830000    eV*Ang^6  
                            Buck4 minimum    2.7900000    Ang       
--------------------------------------------------------------------------------
F    c F    s Spring (c-s)  Spring k 2       20.770000    eV*Ang^-2 0.000  0.800
                            Spring k 4       0.0000000    eV*Ang^-4 
--------------------------------------------------------------------------------

********************************************************************************
*  Output for configuration   1                                                *
********************************************************************************


  Components of energy : 

--------------------------------------------------------------------------------
  Interatomic potentials     =          14.86291467 eV    
  Monopole - monopole (real) =        -186.45510935 eV    
--------------------------------------------------------------------------------
  Total lattice energy       =        -171.59219467 eV    
--------------------------------------------------------------------------------
  Total lattice energy       =          -16556.0238 kJ/mol
--------------------------------------------------------------------------------


  Number of variables =       27

  Maximum number of calculations  =          2000
  Maximum Hessian update interval =            10
  Maximum step size               =   1.000000000
  Maximum parameter tolerance     =   0.000001000
  Maximum function  tolerance     =   0.000010000
  Maximum gradient  tolerance     =   0.000000010
  Maximum gradient  component     =   0.010000000

  Symmetry not applied to optimisation

  Newton-Raphson optimiser to be used

  BFGS hessian update to be used

  Lower half triangular hessian to be used

  Minimiser to switch to RFO
  When gradient norm is less than     0.010000

  Shell only optimisation

  Start of cluster optimisation :

  Cycle:      0 Energy:      -171.592195  Gnorm:      1.068043  CPU:    0.004
  ** Hessian calculated **
  Cycle:      1 Energy:      -182.255983  Gnorm:      0.336977  CPU:    0.006
  ** Hessian calculated **
  Cycle:      2 Energy:      -182.904620  Gnorm:      0.006326  CPU:    0.008
  ** Hessian has required structure
  Cycle:      3 Energy:      -182.904807  Gnorm:      0.002888  CPU:    0.010
  ** Hessian has required structure
  Cycle:      4 Energy:      -182.904832  Gnorm:      0.002347  CPU:    0.011
  ** Hessian has required structure
  Cycle:      5 Energy:      -182.904837  Gnorm:      0.002218  CPU:    0.013
  ** Hessian has required structure
  Cycle:      6 Energy:      -182.904838  Gnorm:      0.002134  CPU:    0.014
  ** Hessian has required structure
  Cycle:      7 Energy:      -182.904839  Gnorm:      0.002130  CPU:    0.016
  ** Hessian has required structure
  Cycle:      8 Energy:      -182.904839  Gnorm:      0.002143  CPU:    0.017
  ** Hessian has required structure
  Cycle:      9 Energy:      -182.904839  Gnorm:      0.002140  CPU:    0.019
  ** Hessian has required structure
  Cycle:     10 Energy:      -182.904839  Gnorm:      0.002123  CPU:    0.021
  ** Hessian has required structure
  Cycle:     11 Energy:      -182.904840  Gnorm:      0.002079  CPU:    0.022
  ** Hessian has required structure
  Cycle:     12 Energy:      -182.904863  Gnorm:      0.000000  CPU:    0.024
  ** Hessian has required structure

  XYZ File written as 005/4/sp_mod_80/sp_mod_80_eig.xyz



  **** Optimisation achieved ****


  Final energy =    -182.90486302 eV
  Final Gnorm  =       0.00000000

  Components of energy : 

--------------------------------------------------------------------------------
  Interatomic potentials     =          34.34406814 eV    
  Monopole - monopole (real) =        -217.24893116 eV    
--------------------------------------------------------------------------------
  Total lattice energy       =        -182.90486302 eV    
--------------------------------------------------------------------------------
  Total lattice energy       =          -17647.5233 kJ/mol
--------------------------------------------------------------------------------

  Final cartesian coordinates of atoms :

--------------------------------------------------------------------------------
   No.  Atomic        x           y          z          Radius
        Label       (Angs)      (Angs)     (Angs)       (Angs) 
--------------------------------------------------------------------------------
     1  Al    c    -1.689140    2.563816   -1.218912    0.000000
     2  Al    c    -0.410978    0.033680   -2.473933    0.000000
     3  Al    c    -2.317484   -0.354228   -0.381907    0.000000
     4  F     c    -0.744454    3.703686   -0.146642    0.000000
     5  F     c    -3.002938    3.146715   -2.308120    0.000000
     6  F     c    -1.373246   -1.154538   -1.620495    0.000000
     7  F     c    -2.408325    1.376598   -0.139339    0.000000
     8  F     c    -3.415365   -1.465615    0.781285    0.000000
     9  F     c     0.807249   -0.606461   -3.852226    0.000000
    10  F     c    -0.497498    1.765384   -2.236106    0.000000
    11  F     c    -2.435924    0.444002   -2.292530    0.000000
    12  F     c    -0.344589    0.109457   -0.448686    0.000000
    13  F     s    -0.887013    3.526628   -0.309390    0.000000
    14  F     s    -2.810032    3.082545   -2.144219    0.000000
    15  F     s    -1.375893   -1.162335   -1.624353    0.000000
    16  F     s    -2.361466    1.319071   -0.215841    0.000000
    17  F     s    -3.201028   -1.241867    0.555153    0.000000
    18  F     s     0.569123   -0.474773   -3.581866    0.000000
    19  F     s    -0.556720    1.686274   -2.196206    0.000000
    20  F     s    -2.311694    0.431712   -2.181595    0.000000
    21  F     s    -0.459699    0.125947   -0.550530    0.000000
--------------------------------------------------------------------------------


  Final Cartesian derivatives :

--------------------------------------------------------------------------------
   No.  Atomic          x             y             z           Radius
        Label       (eV/Angs)     (eV/Angs)    (eV/Angs)      (eV/Angs)
--------------------------------------------------------------------------------
      1 Al    c       0.000000      0.000000      0.000000      0.000000
      2 Al    c       0.000000      0.000000      0.000000      0.000000
      3 Al    c       0.000000      0.000000      0.000000      0.000000
      4 F     c       0.000000      0.000000      0.000000      0.000000
      5 F     c       0.000000      0.000000      0.000000      0.000000
      6 F     c       0.000000      0.000000      0.000000      0.000000
      7 F     c       0.000000      0.000000      0.000000      0.000000
      8 F     c       0.000000      0.000000      0.000000      0.000000
      9 F     c       0.000000      0.000000      0.000000      0.000000
     10 F     c       0.000000      0.000000      0.000000      0.000000
     11 F     c       0.000000      0.000000      0.000000      0.000000
     12 F     c       0.000000      0.000000      0.000000      0.000000
     13 F     s      -0.000000     -0.000000      0.000000      0.000000
     14 F     s       0.000000      0.000000     -0.000000      0.000000
     15 F     s      -0.000000     -0.000000      0.000000      0.000000
     16 F     s      -0.000000     -0.000000     -0.000000      0.000000
     17 F     s       0.000000      0.000000     -0.000000      0.000000
     18 F     s      -0.000000      0.000000      0.000000      0.000000
     19 F     s      -0.000000      0.000000      0.000000      0.000000
     20 F     s       0.000000      0.000000     -0.000000      0.000000
     21 F     s       0.000000      0.000000     -0.000000      0.000000
--------------------------------------------------------------------------------
  Maximum abs         0.000000      0.000000      0.000000      0.000000
--------------------------------------------------------------------------------


  Born effective charge tensors : 

-------------------------------------------------------------------------------
  Atom             x           y             z
-------------------------------------------------------------------------------
    1 Al    x       0.6397     -0.0736     -0.3506
            y      -0.0359      1.6634      0.0885
            z      -0.3436      0.0542      0.7064
-------------------------------------------------------------------------------
    2 Al    x       1.4871     -0.1291     -0.0668
            y      -0.0806      0.9147     -0.0505
            z      -0.0569      0.0290      1.4990
-------------------------------------------------------------------------------
    3 Al    x       1.4744      0.1237     -0.0176
            y       0.0515      0.9935     -0.1883
            z      -0.0319     -0.2462      1.4328
-------------------------------------------------------------------------------
    4 F     x      -0.3479      0.1586      0.1653
            y       0.1949     -0.3532      0.2043
            z       0.1721      0.1712     -0.3085
-------------------------------------------------------------------------------
    5 F     x      -0.2105     -0.0776      0.2530
            y      -0.1545     -0.5422     -0.1479
            z       0.2388     -0.0778     -0.3008
-------------------------------------------------------------------------------
    6 F     x      -0.3423      0.0038     -0.0259
            y       0.0423     -0.3708      0.0279
            z      -0.0188     -0.0072     -0.3316
-------------------------------------------------------------------------------
    7 F     x      -0.3101      0.0206      0.0422
            y      -0.0017     -0.2264      0.0034
            z       0.0433     -0.0105     -0.3258
-------------------------------------------------------------------------------
    8 F     x      -0.3584      0.1410     -0.1576
            y       0.1472     -0.3583     -0.1527
            z      -0.1553     -0.1450     -0.3348
-------------------------------------------------------------------------------
    9 F     x      -0.3223     -0.0826     -0.2020
            y      -0.0893     -0.4534      0.1058
            z      -0.2043      0.0985     -0.2759
-------------------------------------------------------------------------------
   10 F     x      -0.3124     -0.0323      0.0379
            y      -0.0201     -0.2408      0.0222
            z       0.0349      0.0453     -0.3091
-------------------------------------------------------------------------------
   11 F     x      -0.6866     -0.0399      0.1468
            y       0.0023     -0.5786      0.0535
            z       0.1546      0.0151     -0.7121
-------------------------------------------------------------------------------
   12 F     x      -0.7107     -0.0125      0.1752
            y      -0.0561     -0.4480      0.0337
            z       0.1671      0.0734     -0.7396
-------------------------------------------------------------------------------




  Moment of inertia tensor (10^-46 x kgm^2): 

-------------------------------------------------------------------------------
                x           y           z           Principal axis system
-------------------------------------------------------------------------------
       x        171.07        2.60       33.13          122.451885
       y          2.60      122.74        0.05          135.252658
       z         33.13        0.05      165.45          201.558331
-------------------------------------------------------------------------------
  Centre of mass (Ang) =    -1.484773     0.792207    -1.361162
-------------------------------------------------------------------------------


  Vibrational Frequency Calculation : 

--------------------------------------------------------------------------------

  Frequencies (cm-1) and Eigenvectors : 

  Frequency    -371.9779 -338.5843 -171.3816  -34.3497  -25.2525   -0.0000
  IR Intensity    0.0003    0.0823    0.0041    0.0021    0.0008    0.0000
     in X         0.0001    0.0367    0.0004    0.0008    0.0003    0.0000
     in Y         0.0000    0.0015    0.0036    0.0009    0.0000    0.0000
     in Z         0.0001    0.0441    0.0001    0.0004    0.0004    0.0000
  Raman Intsty    0.0000    0.0000    0.0096    0.0028    0.0000    0.0000

     1 x      -0.027802  0.083991  0.062242 -0.299667 -0.195856  0.173330
     1 y      -0.005657  0.017089  0.061821 -0.063798 -0.039851 -0.276963
     1 z       0.030507 -0.092164  0.068186 -0.284920  0.214916 -0.018373
     2 x       0.366245 -0.116067 -0.059413  0.173048  0.098570  0.173330
     2 y      -0.062162  0.137970  0.003564  0.014329  0.258699 -0.276963
     2 z       0.286141  0.217708 -0.024105  0.136158 -0.100236 -0.018373
     3 x      -0.330963 -0.175085 -0.030699  0.149395  0.134070  0.173330
     3 y       0.069340 -0.197209  0.009406  0.009515 -0.211364 -0.276963
     3 z      -0.324856  0.101775 -0.055612  0.162109 -0.155044 -0.018373
     4 x       0.027832 -0.057805  0.052702 -0.415784 -0.255175  0.145455
     4 y       0.005663 -0.011761  0.027882  0.192164 -0.051922 -0.232422
     4 z      -0.030540  0.063430  0.053198 -0.343278  0.280010 -0.015418
     5 x      -0.025586 -0.059587  0.020645 -0.284221 -0.246593  0.145455
     5 y      -0.005206 -0.012124 -0.083343 -0.264095 -0.050172 -0.232422
     5 z       0.028075  0.065385  0.003361 -0.307985  0.270592 -0.015418
     6 x       0.014457 -0.262813  0.516526  0.110826  0.202894  0.145455
     6 y       0.002942 -0.053473 -0.123484  0.039983  0.041282 -0.232422
     6 z      -0.015863  0.288388  0.447824  0.108410 -0.222638 -0.015418
     7 x       0.185927  0.102630 -0.221095  0.031469 -0.051287  0.145455
     7 y       0.018079 -0.129941  0.011353  0.023579 -0.230433 -0.232422
     7 z       0.192366 -0.131355 -0.185882  0.042906  0.050483 -0.015418
     8 x      -0.011662 -0.110139 -0.014095  0.141999  0.144376  0.145455
     8 y       0.015739 -0.036038  0.016002 -0.002535 -0.251251 -0.232422
     8 z      -0.039974  0.132883 -0.024474  0.141389 -0.169430 -0.015418
     9 x       0.043196 -0.124363 -0.028360  0.154172  0.104276  0.145455
     9 y      -0.009323 -0.011675  0.013099 -0.000056  0.301843 -0.232422
     9 z       0.005372  0.124438 -0.008821  0.128034 -0.103419 -0.015418
    10 x      -0.205059  0.093611 -0.207899  0.041102 -0.085492  0.145455
    10 y      -0.021972  0.169869  0.014038  0.025540  0.202604 -0.232422
    10 z      -0.171373 -0.083983 -0.200361  0.032340  0.099603 -0.015418
    11 x      -0.319477  0.298423 -0.025349  0.093121  0.062608  0.145455
    11 y      -0.065002  0.060719 -0.369722 -0.036441  0.012739 -0.232422
    11 z       0.350564 -0.327461 -0.091656  0.078105 -0.068701 -0.015418
    12 x       0.281458  0.366905 -0.059863  0.100176  0.080560  0.145455
    12 y       0.057267  0.074652  0.405051  0.069471  0.016392 -0.232422
    12 z      -0.308846 -0.402608  0.020551  0.104174 -0.088400 -0.015418


  Frequency      -0.0000    0.0000   46.8582   64.4476  130.7935  139.1239
  IR Intensity    0.0000    0.0000    0.0001    0.0196    0.0003    0.0117
     in X         0.0000    0.0000    0.0000    0.0012    0.0001    0.0001
     in Y         0.0000    0.0000    0.0000    0.0184    0.0000    0.0107
     in Z         0.0000    0.0000    0.0000    0.0000    0.0002    0.0008
  Raman Intsty    0.0000    0.0000    0.0000    0.0054    0.0000    0.0747

     1 x      -0.273731  0.046010  0.002368 -0.080318 -0.023779  0.024949
     1 y      -0.166966  0.050030  0.000481 -0.281021 -0.004838 -0.287404
     1 z      -0.065440 -0.320108 -0.002601 -0.125303  0.026093 -0.030554
     2 x      -0.273731  0.046010 -0.245927  0.167706 -0.081410  0.002275
     2 y      -0.166966  0.050030  0.000230  0.034810  0.010117  0.059440
     2 z      -0.065440 -0.320108 -0.226095  0.021061 -0.073957 -0.110926
     3 x      -0.273731  0.046010  0.247902  0.032608  0.083015 -0.118935
     3 y      -0.166966  0.050030  0.000171  0.007324 -0.009791  0.034778
     3 z      -0.065440 -0.320108  0.223932  0.169303  0.072196  0.022081
     4 x      -0.229710  0.038611  0.202670  0.103928 -0.331600 -0.027137
     4 y      -0.140115  0.041984  0.041236 -0.475120 -0.067469 -0.175415
     4 z      -0.054916 -0.268629 -0.222394  0.006614  0.363867 -0.057256
     5 x      -0.229710  0.038611 -0.263563  0.007157  0.400842  0.025103
     5 y      -0.140115  0.041984 -0.053626  0.193315  0.081558 -0.225433
     5 z      -0.054916 -0.268629  0.289208  0.042365 -0.439847 -0.018925
     6 x      -0.229710  0.038611 -0.013880 -0.112506 -0.007710  0.170748
     6 y      -0.140115  0.041984 -0.002824  0.220839 -0.001569  0.155713
     6 z      -0.054916 -0.268629  0.015230 -0.061580  0.008459  0.184478
     7 x      -0.229710  0.038611  0.293111 -0.392574 -0.026466  0.092508
     7 y      -0.140115  0.041984  0.004118  0.012938 -0.005054  0.016418
     7 z      -0.054916 -0.268629  0.183577 -0.014045  0.021714  0.372454
     8 x      -0.229710  0.038611  0.259205  0.128814  0.284028 -0.309295
     8 y      -0.140115  0.041984  0.003720 -0.087262 -0.020946 -0.031772
     8 z      -0.054916 -0.268629  0.239221  0.150855  0.251229 -0.230279
     9 x      -0.229710  0.038611 -0.261462  0.177335 -0.280384 -0.253119
     9 y      -0.140115  0.041984 -0.004180 -0.077392  0.021688 -0.020342
     9 z      -0.054916 -0.268629 -0.236740  0.097616 -0.255226 -0.291923
    10 x      -0.229710  0.038611 -0.210717 -0.058988 -0.019246  0.371155
    10 y      -0.140115  0.041984  0.012647  0.080810 -0.004247  0.073112
    10 z      -0.054916 -0.268629 -0.273991 -0.380090  0.028445  0.066693
    11 x      -0.229710  0.038611 -0.099521  0.037453 -0.126260  0.077361
    11 y      -0.140115  0.041984 -0.020249  0.182384 -0.025690  0.202153
    11 z      -0.054916 -0.268629  0.109206  0.067949  0.138546  0.107985
    12 x      -0.229710  0.038611  0.088981 -0.033611  0.133220 -0.038038
    12 y      -0.140115  0.041984  0.018105  0.234156  0.027105  0.235773
    12 z      -0.054916 -0.268629 -0.097640  0.012788 -0.146183  0.009052


  Frequency     186.4241  187.0111  190.3788  202.6707  222.8709  228.9235
  IR Intensity    0.0015    0.0029    0.0364    0.0013    0.0447    0.0750
     in X         0.0001    0.0013    0.0162    0.0000    0.0193    0.0004
     in Y         0.0010    0.0001    0.0007    0.0013    0.0146    0.0701
     in Z         0.0003    0.0016    0.0195    0.0000    0.0108    0.0045
  Raman Intsty    0.0102    0.0000    0.0000    0.2146    0.0035    0.3391

     1 x      -0.029347  0.009217  0.023623  0.241846 -0.160253 -0.090230
     1 y      -0.056971  0.001874  0.004807 -0.053807  0.112024  0.257220
     1 z      -0.037308 -0.010115 -0.025921  0.210422 -0.125271 -0.034535
     2 x       0.011493 -0.156639  0.086640 -0.106350 -0.154823 -0.013765
     2 y      -0.007206  0.053416 -0.079013  0.042000  0.059939  0.111735
     2 z      -0.011411 -0.027513 -0.172406 -0.056553 -0.090085  0.221342
     3 x      -0.008591  0.053695  0.144710 -0.074510 -0.115832  0.194574
     3 y      -0.011287 -0.074362  0.126085  0.048478  0.067873  0.154126
     3 z       0.010617  0.140476 -0.081456 -0.091492 -0.132869 -0.007271
     4 x       0.146456 -0.128510 -0.324097  0.011140  0.178210  0.272039
     4 y      -0.301821 -0.026155 -0.065940  0.249243 -0.363479 -0.266607
     4 z       0.077502  0.141021  0.355632  0.056367  0.095011  0.198480
     5 x      -0.063103  0.197115 -0.167299  0.115577 -0.162280 -0.186700
     5 y      -0.265574  0.040098 -0.034038 -0.643131  0.028102 -0.323016
     5 z      -0.106737 -0.216300  0.183580 -0.013922 -0.142678 -0.230037
     6 x      -0.015160 -0.012378  0.070530 -0.210183  0.034501 -0.028690
     6 y      -0.056372 -0.002520  0.014350 -0.010266  0.022214 -0.128201
     6 z      -0.024270  0.013580 -0.077392 -0.193448  0.035561 -0.049916
     7 x       0.002541  0.471896  0.091423 -0.162260  0.341629 -0.084408
     7 y      -0.026850 -0.059490  0.064483  0.047850  0.032898  0.157148
     7 z      -0.013998  0.191228  0.066651  0.105480  0.105223 -0.088608
     8 x      -0.217671 -0.244199 -0.131811  0.200266  0.268688  0.058038
     8 y       0.489125 -0.136463  0.502163 -0.018142 -0.071173 -0.037443
     8 z       0.289429 -0.208238  0.030457  0.106596  0.095824 -0.328397
     9 x       0.170426  0.205496  0.075643  0.129362  0.135926 -0.307828
     9 y       0.568078  0.128616 -0.513598 -0.032569 -0.098185 -0.111883
     9 z      -0.136456  0.250709  0.031174  0.184398  0.241507  0.073069
    10 x      -0.008525 -0.249267 -0.063450  0.076681  0.134226 -0.124307
    10 y      -0.029110  0.104786 -0.058791  0.096465 -0.009301  0.149029
    10 z      -0.001820 -0.435523 -0.097347 -0.156710  0.332806 -0.044825
    11 x      -0.000798  0.019490  0.100041 -0.035781 -0.229937  0.136163
    11 y      -0.130353  0.003962  0.020356  0.072384 -0.075074  0.073371
    11 z      -0.024898 -0.021386 -0.109775 -0.019186 -0.223467  0.137693
    12 x       0.017348 -0.147954  0.045185 -0.197476 -0.187477  0.157755
    12 y      -0.157196 -0.030108  0.009194  0.194468  0.248201 -0.135721
    12 z      -0.013347  0.162352 -0.049582 -0.143906 -0.124829  0.118599


  Frequency     240.9086  255.1697  260.8778  286.1958  287.9253  329.7657
  IR Intensity    0.0112    0.0001    0.0109    0.0050    0.0556    0.0066
     in X         0.0050    0.0000    0.0049    0.0022    0.0304    0.0011
     in Y         0.0002    0.0000    0.0011    0.0001    0.0029    0.0038
     in Z         0.0060    0.0001    0.0049    0.0027    0.0222    0.0017
  Raman Intsty    0.0000    0.0000    2.0336    0.0000    0.1634    0.0073

     1 x      -0.247780 -0.004107  0.047840 -0.119622 -0.002788  0.024443
     1 y      -0.050414 -0.000835  0.125586 -0.024338 -0.016766 -0.099944
     1 z       0.271890  0.004507  0.066883  0.131262 -0.005645  0.003744
     2 x      -0.020881 -0.245431  0.209868  0.099332  0.154294  0.013964
     2 y       0.270614 -0.085177  0.007463 -0.119357 -0.072172  0.123394
     2 z      -0.068718 -0.256981 -0.087407  0.008399  0.237621  0.056280
     3 x       0.118486  0.262554 -0.063837 -0.040710  0.262184  0.034170
     3 y      -0.250755  0.088661 -0.048228  0.131288 -0.050214  0.127506
     3 z      -0.038385  0.238192  0.212930 -0.072744  0.119228  0.034107
     4 x       0.252839  0.001857  0.109254  0.070796 -0.018814 -0.045128
     4 y       0.051443  0.000378  0.037960  0.014404  0.009952 -0.006625
     4 z      -0.277441 -0.002037  0.106604 -0.077684 -0.015303 -0.042355
     5 x       0.200865  0.011257 -0.015915  0.092396  0.021829  0.058781
     5 y       0.040869  0.002290 -0.263143  0.018797  0.089704  0.033239
     5 z      -0.220412 -0.012353 -0.063296 -0.101388  0.036522  0.059732
     6 x       0.146604 -0.090436 -0.115854 -0.112452 -0.326280 -0.065034
     6 y       0.029828 -0.018399  0.592919 -0.022877 -0.177138  0.214826
     6 z      -0.160870  0.099236  0.004359  0.123408 -0.330186 -0.019433
     7 x      -0.076259 -0.216211  0.131708 -0.122484  0.099246 -0.147942
     7 y      -0.267820  0.112403 -0.085835  0.124378 -0.044002  0.159635
     7 z       0.104797  0.060812 -0.263477  0.478759  0.014690  0.276757
     8 x      -0.204640 -0.175773 -0.164183  0.144473 -0.116466  0.060347
     8 y       0.239021 -0.043326 -0.161827 -0.021021  0.078771  0.011805
     8 z       0.129967 -0.308079  0.043408 -0.068481 -0.130003 -0.097646
     9 x      -0.061336  0.312466  0.053800  0.047333 -0.154064 -0.090976
     9 y      -0.293138  0.071137 -0.117476  0.060042  0.071123 -0.018984
     9 z       0.161891  0.158085 -0.195789 -0.141978 -0.088751  0.068402
    10 x      -0.142620 -0.015429 -0.227553 -0.431985  0.033164  0.225383
    10 y       0.223286 -0.159535 -0.158930 -0.237192 -0.057453  0.235594
    10 z       0.135382  0.193368  0.130743  0.129661  0.087189 -0.132898
    11 x      -0.014420 -0.182277 -0.160574  0.357948  0.062930 -0.278107
    11 y      -0.002934 -0.037087 -0.042668  0.072838 -0.372460 -0.530420
    11 z       0.015823  0.200013 -0.154246 -0.392780 -0.011728 -0.351797
    12 x       0.077922  0.339034  0.158293  0.026665 -0.094512  0.196190
    12 y       0.015854  0.068982  0.097925  0.005414  0.567321 -0.278955
    12 z      -0.085504 -0.372025  0.162416 -0.029258  0.019061  0.127067


  Frequency     374.1359  447.1849  454.6110  467.7193  522.4556  624.0955
  IR Intensity    0.0194    0.1176    0.0127    0.0013    0.0008    0.0959
     in X         0.0004    0.0647    0.0069    0.0006    0.0000    0.0427
     in Y         0.0189    0.0001    0.0008    0.0000    0.0008    0.0018
     in Z         0.0001    0.0527    0.0050    0.0007    0.0000    0.0514
  Raman Intsty    0.3882    0.8182    7.3103    0.0000    0.1279    0.0000

     1 x      -0.050289  0.003693  0.044486 -0.210820 -0.037800  0.432449
     1 y       0.194575 -0.065179 -0.190067 -0.042895  0.150937  0.087990
     1 z      -0.009751 -0.008720  0.005300  0.231335 -0.006462 -0.474530
     2 x       0.131039 -0.313612  0.027555  0.059874 -0.050064  0.066590
     2 y       0.074059  0.025554  0.065827 -0.060483 -0.225467  0.351089
     2 z      -0.139062 -0.234742  0.141138 -0.057663  0.061982 -0.041557
     3 x      -0.135008 -0.268340  0.129023  0.038849  0.095964  0.096961
     3 y       0.019928  0.034765  0.086473  0.080570 -0.195755 -0.317811
     3 z       0.152873 -0.284418  0.029795 -0.050668 -0.098257 -0.137909
     4 x       0.094554 -0.055435 -0.124454  0.024450  0.209947 -0.018427
     4 y       0.047182 -0.069089 -0.114161  0.004975  0.252207 -0.003750
     4 z       0.094918 -0.063330 -0.134585 -0.026830  0.238094  0.020218
     5 x      -0.104948  0.026902  0.160618  0.020094 -0.291440 -0.017058
     5 y       0.059908  0.028806 -0.065177  0.004088  0.143595 -0.003472
     5 z      -0.084533  0.029857  0.134290 -0.022049 -0.238969  0.018721
     6 x      -0.031299 -0.135236  0.044301 -0.396813  0.008196 -0.174231
     6 y       0.081998  0.196023  0.386422 -0.080738  0.300717 -0.035450
     6 z      -0.013320 -0.086898  0.112024  0.435425  0.063229  0.191185
     7 x      -0.022499  0.041010  0.105965  0.078992 -0.154584 -0.148007
     7 y       0.173713 -0.049506 -0.081794 -0.256942 -0.337579 -0.112869
     7 z       0.082154 -0.044046 -0.179632 -0.142372  0.228560  0.233490
     8 x      -0.129666  0.132697  0.191180  0.231535  0.073290  0.044713
     8 y      -0.194371  0.065800  0.201852  0.197780  0.118257  0.075420
     8 z       0.133174 -0.014932 -0.238834 -0.248055 -0.078670 -0.046021
     9 x       0.151206 -0.012012 -0.249103  0.252967 -0.090306  0.053759
     9 y      -0.137224  0.036357  0.112270 -0.099201  0.084971 -0.055385
     9 z      -0.175029  0.143859  0.244292 -0.283592  0.100845 -0.062033
    10 x       0.046353 -0.029594 -0.149155  0.083948  0.267659 -0.232474
    10 y       0.187722 -0.063872 -0.133701  0.290095 -0.251667  0.035454
    10 z       0.006602  0.033428  0.100314 -0.036423 -0.234770  0.184015
    11 x       0.379267  0.396302  0.116813 -0.071983  0.029661 -0.114010
    11 y      -0.392787 -0.270957 -0.094612 -0.014647  0.000792 -0.023197
    11 z       0.272803  0.310917  0.088911  0.078989  0.027178  0.125104
    12 x      -0.318313  0.324442 -0.335763 -0.089611 -0.062075 -0.104481
    12 y      -0.170001  0.132228 -0.166095 -0.018233  0.010789 -0.021258
    12 z      -0.321608  0.320188 -0.336785  0.098333 -0.054570  0.114648


  Frequency     688.3961  693.9757  712.0299  739.8518  789.3555  805.9071
  IR Intensity    0.0000    0.0256    0.1055    0.0829    0.0047    0.0028
     in X         0.0000    0.0114    0.0010    0.0369    0.0012    0.0002
     in Y         0.0000    0.0005    0.1035    0.0015    0.0019    0.0025
     in Z         0.0000    0.0137    0.0009    0.0445    0.0016    0.0000
  Raman Intsty    0.0039    0.0000    0.0981    0.0000    0.2764    3.5371

     1 x      -0.085065 -0.189486 -0.075923  0.084633 -0.511964  0.131876
     1 y       0.479040 -0.038555  0.462837  0.017219  0.000389  0.226662
     1 z       0.011302  0.207925  0.016635 -0.092869 -0.466491  0.162210
     2 x      -0.160491  0.225373  0.068869  0.257842  0.096186  0.341773
     2 y      -0.370425  0.310277  0.333495 -0.284733 -0.063391 -0.194381
     2 z       0.164248 -0.212703 -0.041277 -0.308316 -0.132788 -0.382416
     3 x       0.210107  0.239479 -0.093246  0.221543 -0.107777 -0.301164
     3 y      -0.295016 -0.215705  0.300508  0.382270 -0.104891 -0.325197
     3 z      -0.242412 -0.297385  0.136612 -0.217717  0.091022  0.323084
     4 x      -0.179273 -0.004460 -0.145278 -0.005831  0.218751 -0.106308
     4 y      -0.246690 -0.000907 -0.188159 -0.001186  0.241507 -0.130773
     4 z      -0.209117  0.004895 -0.167284  0.006399  0.244133 -0.121129
     5 x       0.229084 -0.005785  0.167774 -0.004104  0.374505 -0.069805
     5 y      -0.107337 -0.001177 -0.084796 -0.000835 -0.163024  0.020264
     5 z       0.188866  0.006347  0.137173  0.004503  0.311065 -0.059857
     6 x       0.002065 -0.231946 -0.002540 -0.109515  0.009526 -0.003086
     6 y       0.229278 -0.047190 -0.131039 -0.022283 -0.042775 -0.109146
     6 z       0.044391  0.254517 -0.026609  0.120172  0.000749 -0.023050
     7 x      -0.049359  0.066650 -0.079221 -0.029507 -0.007331 -0.017135
     7 y       0.149904  0.390901 -0.417405 -0.298611  0.020680  0.104271
     7 z       0.086111 -0.090100  0.105829  0.027818  0.017931  0.033236
     8 x      -0.070065 -0.116574 -0.010905 -0.213535  0.063108  0.181614
     8 y      -0.037292 -0.101274 -0.037646 -0.219490  0.065048  0.186133
     8 z       0.074394  0.125187  0.008813  0.226155 -0.064580 -0.192878
     9 x       0.071808 -0.127959  0.014241 -0.237464 -0.068006 -0.202385
     9 y      -0.008426  0.051520 -0.032528  0.127727  0.038371  0.108002
     9 z      -0.081285  0.143142 -0.018780  0.268731  0.079292  0.228487
    10 x       0.051597  0.151610  0.170417 -0.078077  0.012976  0.011714
    10 y       0.170450 -0.346484 -0.366619  0.276722  0.024811  0.110140
    10 z      -0.024670 -0.149399 -0.168101  0.090235 -0.004352  0.001580
    11 x       0.011243 -0.025790  0.002772  0.008540  0.004277 -0.027842
    11 y       0.041211 -0.005247 -0.027824  0.001738  0.000907  0.033450
    11 z       0.017887  0.028300 -0.002633 -0.009371  0.004066 -0.019171
    12 x      -0.024859 -0.033882  0.002262 -0.002613  0.016084  0.027694
    12 y       0.031025 -0.006893 -0.021021 -0.000532  0.014544  0.026707
    12 z      -0.016902  0.037179 -0.001836  0.002867  0.017354  0.030190




--------------------------------------------------------------------------------
  Vibrational properties (for cluster):  Temperature  =       0.000 K
--------------------------------------------------------------------------------
  Zero point energy            =        0.655885 eV
--------------------------------------------------------------------------------

  Phonon density of states : 

--------------------------------------------------------------------------------
 Frequency (cm-1) Density of States                                             
--------------------------------------------------------------------------------
    0.00000 |******************************                                0.034
   12.59230 |                                                              0.000
   25.18460 |                                                              0.000
   37.77690 |******************************                                0.034
   50.36920 |                                                              0.000
   62.96150 |******************************                                0.034
   75.55380 |                                                              0.000
   88.14610 |                                                              0.000
  100.73840 |                                                              0.000
  113.33070 |                                                              0.000
  125.92300 |******************************                                0.034
  138.51530 |******************************                                0.034
  151.10760 |                                                              0.000
  163.69990 |                                                              0.000
  176.29220 |************************************************************  0.069
  188.88450 |******************************                                0.034
  201.47680 |******************************                                0.034
  214.06910 |******************************                                0.034
  226.66140 |******************************                                0.034
  239.25370 |******************************                                0.034
  251.84600 |************************************************************  0.069
  264.43830 |                                                              0.000
  277.03060 |************************************************************  0.069
  289.62290 |                                                              0.000
  302.21520 |                                                              0.000
  314.80750 |                                                              0.000
  327.39980 |******************************                                0.034
  339.99210 |                                                              0.000
  352.58440 |                                                              0.000
  365.17670 |******************************                                0.034
  377.76900 |                                                              0.000
  390.36130 |                                                              0.000
  402.95360 |                                                              0.000
  415.54590 |                                                              0.000
  428.13820 |                                                              0.000
  440.73049 |******************************                                0.034
  453.32279 |******************************                                0.034
  465.91509 |******************************                                0.034
  478.50739 |                                                              0.000
  491.09969 |                                                              0.000
  503.69199 |                                                              0.000
  516.28429 |******************************                                0.034
  528.87659 |                                                              0.000
  541.46889 |                                                              0.000
  554.06119 |                                                              0.000
  566.65349 |                                                              0.000
  579.24579 |                                                              0.000
  591.83809 |                                                              0.000
  604.43039 |                                                              0.000
  617.02269 |******************************                                0.034
  629.61499 |                                                              0.000
  642.20729 |                                                              0.000
  654.79959 |                                                              0.000
  667.39189 |                                                              0.000
  679.98419 |******************************                                0.034
  692.57649 |******************************                                0.034
  705.16879 |******************************                                0.034
  717.76109 |                                                              0.000
  730.35339 |******************************                                0.034
  742.94569 |                                                              0.000
  755.53799 |                                                              0.000
  768.13029 |                                                              0.000
  780.72259 |******************************                                0.034
  793.31489 |******************************                                0.034
--------------------------------------------------------------------------------



  Time to end of optimisation =       0.0335 seconds


  Peak dynamic memory used =       0.65 MB 


  Timing analysis for GULP :

--------------------------------------------------------------------------------
  Task / Subroutine                                          Time (Seconds)
--------------------------------------------------------------------------------
  Calculation of real space energy and derivatives                0.0022
  Calculation of phonons                                          0.0015
  Calculation and manipulation of Hessian matrix                  0.0013
--------------------------------------------------------------------------------
  Total CPU time                                                  0.0335
--------------------------------------------------------------------------------


  Job Finished at 14:40.09 25th May        2022                               

