********************************************************************************
*                       GENERAL UTILITY LATTICE PROGRAM                        *
*                                 Julian Gale                                  *
*                       Curtin Institute for Computation                       *
*                           Department of Chemistry                            *
*                    Curtin University, Western Australia                      *
********************************************************************************
* Version = 5.1.1 * Last modified =  24th November 2018                        *
********************************************************************************
*  optimise     - perform optimisation run                                     *
*  conp         - constant pressure calculation                                *
*  shell        - only shells and radii to be optimised                        *
*  phonon       - calculate phonons for final geometry                         *
*  eigenvectors - output phonon eigenvectors                                   *
********************************************************************************

  Job Started  at 14:40.14 25th May        2022                               

  Number of CPUs =     1

  Host name      = login03                                 


  Total number of configurations input =      1

********************************************************************************
*  Input for Configuration =   1                                               *
********************************************************************************

  Formula = Al3F9                                                       

  Number of irreducible atoms/shells =      21


  Total number atoms/shells =      21

  Dimensionality = 0               :  Cluster


  Charge on cluster =  -0.000000


  Initial cluster dipoles : x =      0.000002 e.Angs
                            y =     -0.000000 e.Angs
                            z =      0.000001 e.Angs

  Temperature of configuration =  0.000     K 

  Symmetry number =      1

  Cartesian coordinates of cluster :

--------------------------------------------------------------------------------
   No.  Atomic       x           y          z         Charge      Occupancy
        Label      (Angs)      (Angs)     (Angs)        (e)         (Frac)  
--------------------------------------------------------------------------------
      1 Al    c      0.2013     -2.3477     -1.6624     3.00000    1.000000    
      2 Al    c      2.0699     -0.5303     -0.8845     3.00000    1.000000    
      3 Al    c     -0.2961      0.3181     -1.8897     3.00000    1.000000    
      4 F     c      3.6888     -0.1608     -0.1710     0.59000    1.000000    
      5 F     c     -0.3012     -4.0677     -1.9315     0.59000    1.000000    
      6 F     c      2.0446     -1.9336     -2.2443     0.59000    1.000000    
      7 F     c      1.5621      0.5569     -2.4191     0.59000    1.000000    
      8 F     c     -1.4125      1.6686     -2.3341     0.59000    1.000000    
      9 F     c     -1.1445     -1.1686     -0.9100     0.59000    1.000000    
     10 F     c     -0.1702     -1.1393     -3.1834     0.59000    1.000000    
     11 F     c      0.5878      0.5276     -0.1456     0.59000    1.000000    
     12 F     c      1.0703     -1.9629      0.0291     0.59000    1.000000    
     13 F     s      3.6888 *   -0.1608 *   -0.1710 *  -1.59000    1.000000    
     14 F     s     -0.3012 *   -4.0677 *   -1.9315 *  -1.59000    1.000000    
     15 F     s      2.0446 *   -1.9336 *   -2.2443 *  -1.59000    1.000000    
     16 F     s      1.5621 *    0.5569 *   -2.4191 *  -1.59000    1.000000    
     17 F     s     -1.4125 *    1.6686 *   -2.3341 *  -1.59000    1.000000    
     18 F     s     -1.1445 *   -1.1686 *   -0.9100 *  -1.59000    1.000000    
     19 F     s     -0.1702 *   -1.1393 *   -3.1834 *  -1.59000    1.000000    
     20 F     s      0.5878 *    0.5276 *   -0.1456 *  -1.59000    1.000000    
     21 F     s      1.0703 *   -1.9629 *    0.0291 *  -1.59000    1.000000    
--------------------------------------------------------------------------------


  Brillouin zone sampling points :

--------------------------------------------------------------------------------
  Point number          x          y          z            Weight
--------------------------------------------------------------------------------
        1           0.000000   0.000000   0.000000     1.00000000
--------------------------------------------------------------------------------


********************************************************************************
*  General input information                                                   *
********************************************************************************

  Species output for all configurations : 

--------------------------------------------------------------------------------
  Species    Type    Atomic    Atomic    Charge       Radii (Angs)     Library
                     Number     Mass       (e)     Cova   Ionic  VDW   Symbol
--------------------------------------------------------------------------------
    Al       Core       13      26.98   3.000000   1.350  0.000  2.050          
    F        Core        9      19.00   0.590000   0.710  0.000  1.300          
    F        Shell       9       0.00  -1.590000   0.710  0.000  1.300          
--------------------------------------------------------------------------------


  Accuracy factor for short range sums = 12.000

  Time limit = Infinity

  Maximum range for interatomic potentials =    100000.000000 Angstroms

  General interatomic potentials :

--------------------------------------------------------------------------------
Atom  Types   Potential      Parameter       Value         Units   Cutoffs(Ang)
  1     2                                                            Min /  Max 
--------------------------------------------------------------------------------
Al   c F    s Buckingham    Buckingham A     3760.0008    eV        0.000 10.000
                            Buckingham rho  0.22200000    Ang       
                            Buckingham C     0.0000000    eV*Ang^6  
--------------------------------------------------------------------------------
F    s F    s Buck 4 range  Buck4 A          1127.7000    eV        0.000 12.000
                            Buck4 rho       0.27530000    Ang       
                            Buck4 C          15.830000    eV*Ang^6  
                            Buck4 minimum    2.7900000    Ang       
--------------------------------------------------------------------------------
F    c F    s Spring (c-s)  Spring k 2       20.770000    eV*Ang^-2 0.000  0.800
                            Spring k 4       0.0000000    eV*Ang^-4 
--------------------------------------------------------------------------------

********************************************************************************
*  Output for configuration   1                                                *
********************************************************************************


  Components of energy : 

--------------------------------------------------------------------------------
  Interatomic potentials     =          10.03388971 eV    
  Monopole - monopole (real) =        -176.58392134 eV    
--------------------------------------------------------------------------------
  Total lattice energy       =        -166.55003163 eV    
--------------------------------------------------------------------------------
  Total lattice energy       =          -16069.5321 kJ/mol
--------------------------------------------------------------------------------


  Number of variables =       27

  Maximum number of calculations  =          2000
  Maximum Hessian update interval =            10
  Maximum step size               =   1.000000000
  Maximum parameter tolerance     =   0.000001000
  Maximum function  tolerance     =   0.000010000
  Maximum gradient  tolerance     =   0.000000010
  Maximum gradient  component     =   0.010000000

  Symmetry not applied to optimisation

  Newton-Raphson optimiser to be used

  BFGS hessian update to be used

  Lower half triangular hessian to be used

  Minimiser to switch to RFO
  When gradient norm is less than     0.010000

  Shell only optimisation

  Start of cluster optimisation :

  Cycle:      0 Energy:      -166.550032  Gnorm:      1.548491  CPU:    0.004
  ** Hessian calculated **
  Cycle:      1 Energy:      -184.168315  Gnorm:      0.646528  CPU:    0.006
  ** Hessian calculated **
  Cycle:      2 Energy:      -185.758930  Gnorm:      0.030129  CPU:    0.008
  Cycle:      3 Energy:      -185.763919  Gnorm:      0.002763  CPU:    0.010
  ** Hessian has required structure
  Cycle:      4 Energy:      -185.763958  Gnorm:      0.000496  CPU:    0.012
  ** Hessian has required structure
  Cycle:      5 Energy:      -185.763959  Gnorm:      0.000290  CPU:    0.013
  ** Hessian has required structure
  Cycle:      6 Energy:      -185.763960  Gnorm:      0.000154  CPU:    0.015
  ** Hessian has required structure
  Cycle:      7 Energy:      -185.763960  Gnorm:      0.000092  CPU:    0.016
  ** Hessian has required structure
  Cycle:      8 Energy:      -185.763960  Gnorm:      0.000040  CPU:    0.018
  ** Hessian has required structure
  Cycle:      9 Energy:      -185.763960  Gnorm:      0.000023  CPU:    0.019
  ** Hessian has required structure
  Cycle:     10 Energy:      -185.763960  Gnorm:      0.000018  CPU:    0.021
  ** Hessian has required structure
  Cycle:     11 Energy:      -185.763960  Gnorm:      0.000008  CPU:    0.023
  ** Hessian has required structure
  Cycle:     12 Energy:      -185.763960  Gnorm:      0.000000  CPU:    0.025
  ** Hessian has required structure
  Cycle:     13 Energy:      -185.763960  Gnorm:      0.000000  CPU:    0.026
  ** Hessian has required structure
  Cycle:     14 Energy:      -185.763960  Gnorm:      0.000000  CPU:    0.028
  ** Hessian has required structure
  Cycle:     15 Energy:      -185.763960  Gnorm:      0.000000  CPU:    0.029
  ** Hessian has required structure
  Cycle:     16 Energy:      -185.763960  Gnorm:      0.000000  CPU:    0.031
  ** Hessian has required structure
  Cycle:     17 Energy:      -185.763960  Gnorm:      0.000000  CPU:    0.033
  ** Hessian has required structure
  Cycle:     18 Energy:      -185.763960  Gnorm:      0.000000  CPU:    0.035
  ** Hessian has required structure
  Cycle:     19 Energy:      -185.763960  Gnorm:      0.000000  CPU:    0.036
  ** Hessian calculated **

  XYZ File written as 006/0/sp_mod_-60/sp_mod_-60_eig.xyz



  **** Optimisation achieved ****


  Final energy =    -185.76396026 eV
  Final Gnorm  =       0.00000020

  Components of energy : 

--------------------------------------------------------------------------------
  Interatomic potentials     =          37.22659120 eV    
  Monopole - monopole (real) =        -222.99055146 eV    
--------------------------------------------------------------------------------
  Total lattice energy       =        -185.76396026 eV    
--------------------------------------------------------------------------------
  Total lattice energy       =          -17923.3825 kJ/mol
--------------------------------------------------------------------------------

  Final cartesian coordinates of atoms :

--------------------------------------------------------------------------------
   No.  Atomic        x           y          z          Radius
        Label       (Angs)      (Angs)     (Angs)       (Angs) 
--------------------------------------------------------------------------------
     1  Al    c     0.201254   -2.347668   -1.662380    0.000000
     2  Al    c     2.069898   -0.530344   -0.884531    0.000000
     3  Al    c    -0.296103    0.318135   -1.889725    0.000000
     4  F     c     3.688784   -0.160843   -0.171024    0.000000
     5  F     c    -0.301186   -4.067661   -1.931535    0.000000
     6  F     c     2.044588   -1.933569   -2.244299    0.000000
     7  F     c     1.562071    0.556941   -2.419069    0.000000
     8  F     c    -1.412549    1.668626   -2.334076    0.000000
     9  F     c    -1.144489   -1.168591   -0.909987    0.000000
    10  F     c    -0.170245   -1.139273   -3.183426    0.000000
    11  F     c     0.587827    0.527623   -0.145630    0.000000
    12  F     c     1.070344   -1.962887    0.029140    0.000000
    13  F     s     3.435000   -0.219028   -0.283575    0.000000
    14  F     s    -0.222136   -3.795282   -1.887712    0.000000
    15  F     s     1.875622   -1.837865   -2.053924    0.000000
    16  F     s     1.434992    0.435357   -2.222436    0.000000
    17  F     s    -1.237100    1.456369   -2.265000    0.000000
    18  F     s    -0.938910   -1.144833   -1.076995    0.000000
    19  F     s    -0.151947   -1.110548   -2.914085    0.000000
    20  F     s     0.647284    0.407819   -0.386472    0.000000
    21  F     s     1.082990   -1.869773   -0.219308    0.000000
--------------------------------------------------------------------------------


  Final Cartesian derivatives :

--------------------------------------------------------------------------------
   No.  Atomic          x             y             z           Radius
        Label       (eV/Angs)     (eV/Angs)    (eV/Angs)      (eV/Angs)
--------------------------------------------------------------------------------
      1 Al    c       0.000000      0.000000      0.000000      0.000000
      2 Al    c       0.000000      0.000000      0.000000      0.000000
      3 Al    c       0.000000      0.000000      0.000000      0.000000
      4 F     c       0.000000      0.000000      0.000000      0.000000
      5 F     c       0.000000      0.000000      0.000000      0.000000
      6 F     c       0.000000      0.000000      0.000000      0.000000
      7 F     c       0.000000      0.000000      0.000000      0.000000
      8 F     c       0.000000      0.000000      0.000000      0.000000
      9 F     c       0.000000      0.000000      0.000000      0.000000
     10 F     c       0.000000      0.000000      0.000000      0.000000
     11 F     c       0.000000      0.000000      0.000000      0.000000
     12 F     c       0.000000      0.000000      0.000000      0.000000
     13 F     s      -0.000003     -0.000000     -0.000001      0.000000
     14 F     s       0.000000      0.000001     -0.000000      0.000000
     15 F     s       0.000000      0.000001     -0.000001      0.000000
     16 F     s       0.000001     -0.000000     -0.000001      0.000000
     17 F     s      -0.000001      0.000002     -0.000000      0.000000
     18 F     s       0.000000     -0.000000      0.000001      0.000000
     19 F     s       0.000001     -0.000000     -0.000001      0.000000
     20 F     s      -0.000001     -0.000000      0.000002      0.000000
     21 F     s      -0.000000      0.000000      0.000000      0.000000
--------------------------------------------------------------------------------
  Maximum abs         0.000003      0.000002      0.000002      0.000000
--------------------------------------------------------------------------------


  Born effective charge tensors : 

-------------------------------------------------------------------------------
  Atom             x           y             z
-------------------------------------------------------------------------------
    1 Al    x       1.2754     -0.1197      0.0092
            y      -0.1222      0.8614     -0.1067
            z       0.0067     -0.1130      1.2139
-------------------------------------------------------------------------------
    2 Al    x       0.9031     -0.0745     -0.1546
            y      -0.0708      1.3035     -0.0585
            z      -0.1597     -0.0543      1.1461
-------------------------------------------------------------------------------
    3 Al    x       1.0983      0.2477     -0.0495
            y       0.2461      1.0492      0.0674
            z      -0.0421      0.0687      1.2050
-------------------------------------------------------------------------------
    4 F     x      -0.0419      0.1140      0.2166
            y       0.1143     -0.5206      0.0508
            z       0.2165      0.0514     -0.4389
-------------------------------------------------------------------------------
    5 F     x      -0.4957      0.1638      0.0204
            y       0.1639      0.0140      0.0868
            z       0.0205      0.0870     -0.5206
-------------------------------------------------------------------------------
    6 F     x      -0.4622     -0.0260     -0.0187
            y      -0.0287     -0.4008      0.0010
            z      -0.0014     -0.0315     -0.3374
-------------------------------------------------------------------------------
    7 F     x      -0.4029     -0.0020     -0.0323
            y       0.0131     -0.3803      0.0029
            z      -0.0194      0.0376     -0.3413
-------------------------------------------------------------------------------
    8 F     x      -0.3064     -0.2889      0.0910
            y      -0.2887     -0.1976     -0.1150
            z       0.0914     -0.1145     -0.4974
-------------------------------------------------------------------------------
    9 F     x      -0.3831     -0.0301     -0.0198
            y      -0.0193     -0.4499      0.0282
            z       0.0205      0.0293     -0.3369
-------------------------------------------------------------------------------
   10 F     x      -0.3714      0.0306     -0.0257
            y       0.0154     -0.4478      0.0382
            z      -0.0588      0.0294     -0.3817
-------------------------------------------------------------------------------
   11 F     x      -0.4247      0.0304     -0.0396
            y       0.0192     -0.3986     -0.0031
            z      -0.0486     -0.0282     -0.3661
-------------------------------------------------------------------------------
   12 F     x      -0.3886     -0.0453      0.0029
            y      -0.0423     -0.4327      0.0079
            z      -0.0256      0.0381     -0.3447
-------------------------------------------------------------------------------




  Moment of inertia tensor (10^-46 x kgm^2): 

-------------------------------------------------------------------------------
                x           y           z           Principal axis system
-------------------------------------------------------------------------------
       x        129.68       -0.06      -22.21          119.340310
       y         -0.06      119.42       -0.50          120.263977
       z        -22.21       -0.50      172.19          181.682603
-------------------------------------------------------------------------------
  Centre of mass (Ang) =     0.658350    -0.853293    -1.478879
-------------------------------------------------------------------------------


  Vibrational Frequency Calculation : 

--------------------------------------------------------------------------------

  Frequencies (cm-1) and Eigenvectors : 

  Frequency      -0.0000    0.0000    0.0000   22.3311   23.1124   29.4659
  IR Intensity    0.0000    0.0000    0.0000    0.0000    0.0000    0.0000
     in X         0.0000    0.0000    0.0000    0.0000    0.0000    0.0000
     in Y         0.0000    0.0000    0.0000    0.0000    0.0000    0.0000
     in Z         0.0000    0.0000    0.0000    0.0000    0.0000    0.0000
  Raman Intsty    0.0000    0.0000    0.0000    0.0000    0.0000    0.0000

     1 x       0.038720 -0.323366 -0.032002  0.186721 -0.101825 -0.115063
     1 y       0.324896  0.039089 -0.001877 -0.066236  0.037798  0.000595
     1 z      -0.005677  0.031551 -0.325671  0.073167 -0.053100  0.272947
     2 x       0.038720 -0.323366 -0.032002 -0.088595 -0.070091  0.053279
     2 y       0.324896  0.039089 -0.001877  0.205040 -0.118564  0.000781
     2 z      -0.005677  0.031551 -0.325671  0.103057  0.226843 -0.126148
     3 x       0.038720 -0.323366 -0.032002 -0.094363  0.171665  0.060452
     3 y       0.324896  0.039089 -0.001877 -0.140430  0.080965 -0.000173
     3 z      -0.005677  0.031551 -0.325671 -0.174901 -0.174270 -0.142350
     4 x       0.032493 -0.271363 -0.026856 -0.170289 -0.127229  0.104952
     4 y       0.272647  0.032802 -0.001575  0.381470 -0.225252  0.005278
     4 z      -0.004764  0.026477 -0.273297  0.195848  0.410820 -0.245016
     5 x       0.032493 -0.271363 -0.026856  0.340892 -0.183367 -0.218367
     5 y       0.272647  0.032802 -0.001575 -0.120673  0.068221 -0.007881
     5 z      -0.004764  0.026477 -0.273297  0.133463 -0.095061  0.511049
     6 x       0.032493 -0.271363 -0.026856  0.163971  0.011900 -0.098121
     6 y       0.272647  0.032802 -0.001575  0.079391 -0.103302 -0.189768
     6 z      -0.004764  0.026477 -0.273297  0.177290  0.190134  0.091846
     7 x       0.032493 -0.271363 -0.026856 -0.060675  0.234811  0.040376
     7 y       0.272647  0.032802 -0.001575  0.025255 -0.079565 -0.192980
     7 z      -0.004764  0.026477 -0.273297 -0.020873  0.107034 -0.240620
     8 x       0.032493 -0.271363 -0.026856 -0.175944  0.315339  0.118176
     8 y       0.272647  0.032802 -0.001575 -0.258513  0.154709  0.004167
     8 z      -0.004764  0.026477 -0.273297 -0.330973 -0.312706 -0.275647
     9 x       0.032493 -0.271363 -0.026856 -0.018451 -0.089331  0.007923
     9 y       0.272647  0.032802 -0.001575 -0.137224  0.144358  0.188244
     9 z      -0.004764  0.026477 -0.273297 -0.122380 -0.233928  0.125045
    10 x       0.032493 -0.271363 -0.026856  0.162270  0.191704 -0.094528
    10 y       0.272647  0.032802 -0.001575 -0.187930  0.043281 -0.189709
    10 z      -0.004764  0.026477 -0.273297 -0.043833 -0.111353  0.078547
    11 x       0.032493 -0.271363 -0.026856 -0.231964 -0.074352  0.140177
    11 y       0.272647  0.032802 -0.001575  0.078377  0.020371  0.191618
    11 z      -0.004764  0.026477 -0.273297 -0.093759 -0.024482 -0.187990
    12 x       0.032493 -0.271363 -0.026856 -0.014295 -0.279176  0.001000
    12 y       0.272647  0.032802 -0.001575  0.141786 -0.023057  0.189598
    12 z      -0.004764  0.026477 -0.273297  0.103639  0.070171  0.137485


  Frequency     117.7948  118.8668  126.0986  127.1984  133.1258  139.8024
  IR Intensity    0.0001    0.0001    0.0157    0.0147    0.0408    0.0006
     in X         0.0000    0.0001    0.0010    0.0115    0.0064    0.0005
     in Y         0.0001    0.0000    0.0145    0.0011    0.0000    0.0001
     in Z         0.0000    0.0000    0.0002    0.0021    0.0344    0.0000
  Raman Intsty    0.0156    0.0000    0.0000    0.0000    0.0002    0.0000

     1 x       0.122428  0.031294  0.022093 -0.048963  0.030236  0.044948
     1 y       0.021083 -0.006625  0.088391  0.013709  0.000182 -0.014998
     1 z      -0.273934 -0.007882  0.017944 -0.021664 -0.072543  0.006308
     2 x      -0.046681 -0.116261  0.028868 -0.083514  0.067095 -0.143578
     2 y      -0.000635  0.021070  0.069345  0.020643  0.003268  0.016190
     2 z       0.121947  0.221299  0.006984 -0.029419 -0.156964  0.348804
     3 x      -0.065291  0.062594  0.011445 -0.075534  0.064841  0.138135
     3 y       0.000557 -0.003573  0.074851  0.030322  0.003409 -0.016608
     3 z       0.152273 -0.223879 -0.000859 -0.037484 -0.147041 -0.344130
     4 x      -0.025675 -0.081357  0.176800  0.036228 -0.214650  0.186251
     4 y      -0.078546 -0.072937 -0.644088 -0.357878 -0.004737  0.043443
     4 z       0.112643  0.194457  0.027908 -0.081322  0.486966 -0.417127
     5 x       0.081683  0.110776  0.018715  0.646143 -0.179696 -0.100958
     5 y       0.021233 -0.035993  0.066817 -0.234164 -0.013883  0.032156
     5 z      -0.209073  0.030466  0.089955  0.267602  0.411671 -0.022015
     6 x       0.172569 -0.255364 -0.010666 -0.084231  0.035031 -0.064459
     6 y      -0.174656  0.321341  0.129907  0.011865  0.013653  0.060751
     6 z       0.100776 -0.174448 -0.033456 -0.019769 -0.154624  0.220558
     7 x      -0.114355  0.013540  0.038507 -0.049491  0.073711  0.139737
     7 y      -0.459015 -0.038444  0.214311  0.005564 -0.010330 -0.053039
     7 z      -0.126361 -0.000528  0.081482 -0.025392 -0.186702  0.063512
     8 x      -0.120121  0.101028 -0.451917  0.197187 -0.201354 -0.191320
     8 y      -0.062112  0.045930 -0.389762  0.318135 -0.009131 -0.036593
     8 z       0.101400 -0.163497 -0.225032  0.188383  0.482747  0.417015
     9 x       0.206428  0.363135  0.022235 -0.161767  0.026713  0.129959
     9 y       0.042257  0.080067  0.074306 -0.030068  0.012404  0.056196
     9 z       0.118075  0.222954  0.004531 -0.139016 -0.153851 -0.202405
    10 x      -0.189878 -0.454597  0.098518 -0.074723  0.089493  0.077523
    10 y      -0.015017 -0.079524  0.091866  0.033336 -0.002522 -0.059606
    10 z      -0.060657 -0.123676  0.009091 -0.044184 -0.126170 -0.227257
    11 x       0.177688 -0.038803  0.024448 -0.098587  0.083201 -0.130154
    11 y       0.487869  0.053877  0.092878  0.034819  0.013935  0.047952
    11 z       0.010394 -0.022187  0.009774 -0.043394 -0.180705 -0.050936
    12 x      -0.200798  0.268301  0.008994 -0.162886  0.094299 -0.093654
    12 y       0.212957 -0.287272  0.086605  0.141322 -0.007562 -0.072888
    12 z      -0.047537  0.048927  0.007066  0.002632 -0.130626  0.205569


  Frequency     142.3108  174.5246  207.8583  245.1161  246.1792  272.7872
  IR Intensity    0.0007    0.0000    0.0018    0.0256    0.0259    0.0110
     in X         0.0000    0.0000    0.0014    0.0200    0.0015    0.0018
     in Y         0.0002    0.0000    0.0001    0.0020    0.0239    0.0000
     in Z         0.0004    0.0000    0.0003    0.0036    0.0006    0.0092
  Raman Intsty    0.0103    0.0000    0.0000    0.0000    0.0001    0.0000

     1 x       0.173221  0.273990 -0.053176 -0.012227 -0.085432 -0.052185
     1 y       0.001170 -0.098631  0.019582  0.015926 -0.286599 -0.013127
     1 z      -0.409758  0.117336 -0.021300 -0.005426 -0.041881  0.111486
     2 x      -0.079745 -0.046574 -0.002349  0.242815 -0.124837 -0.055038
     2 y      -0.013319  0.308176  0.028688  0.061648 -0.019729  0.001761
     2 z       0.175011 -0.044810  0.016507  0.101007 -0.063606  0.112186
     3 x      -0.087363 -0.222028 -0.008110  0.152689  0.107536 -0.042306
     3 y      -0.014430 -0.212009 -0.028065 -0.198662 -0.112980 -0.003286
     3 z       0.190769 -0.070262 -0.023773  0.067163  0.035448  0.117428
     4 x       0.066052  0.063857  0.017835  0.240995 -0.149006  0.011305
     4 y       0.046461 -0.345750 -0.017882  0.099603  0.050046  0.002483
     4 z      -0.185535  0.042238 -0.005602  0.110545 -0.058635 -0.040035
     5 x      -0.232412 -0.331024  0.045400 -0.077207 -0.089310  0.012918
     5 y      -0.027295  0.118585 -0.015476  0.039512 -0.296954 -0.009816
     5 z       0.538646 -0.141157  0.018627 -0.032055 -0.049337 -0.039134
     6 x       0.146551  0.160693  0.261773 -0.144183 -0.211580 -0.235643
     6 y       0.069159  0.137637  0.294384  0.334188  0.065938  0.296358
     6 z      -0.113859  0.068469  0.130552 -0.152784 -0.142141 -0.153817
     7 x      -0.115534 -0.213860 -0.330503  0.131664  0.094836 -0.082421
     7 y      -0.037226  0.076972  0.120497 -0.063430  0.436676 -0.350395
     7 z       0.226530 -0.090874 -0.140610  0.051998  0.159531 -0.100232
     8 x       0.122495  0.252041  0.017002  0.133867  0.154096  0.021620
     8 y       0.035520  0.234047  0.008267 -0.233324 -0.071759 -0.001585
     8 z      -0.186076  0.092456  0.022868  0.047867  0.068776 -0.035644
     9 x       0.094624  0.033800 -0.060015 -0.304012  0.206951 -0.322239
     9 y      -0.114358 -0.226647  0.417220 -0.155821 -0.086136 -0.091209
     9 z      -0.124058  0.015820 -0.023216 -0.222438  0.145500 -0.197522
    10 x       0.028797  0.054307  0.064347 -0.375293  0.213730  0.385919
    10 y       0.109799 -0.215603 -0.413355 -0.146722 -0.106145  0.072466
    10 z      -0.150783  0.022852  0.008231 -0.064299  0.045495  0.109707
    11 x      -0.089296 -0.179445  0.332403  0.140015  0.168611  0.138709
    11 y       0.017549  0.063565 -0.120999 -0.067486  0.405744  0.393477
    11 z       0.236841 -0.076103  0.139892  0.063472 -0.037349  0.006241
    12 x      -0.028562  0.153209 -0.272412 -0.202574 -0.265910  0.248016
    12 y      -0.067936  0.160130 -0.296733  0.337772  0.102255 -0.294317
    12 z      -0.189300  0.063601 -0.116702  0.003760 -0.048380  0.043969


  Frequency     295.2554  337.4314  337.8850  362.9248  364.2675  402.5127
  IR Intensity    0.0000    0.0008    0.0008    0.0029    0.0028    0.0000
     in X         0.0000    0.0002    0.0005    0.0023    0.0001    0.0000
     in Y         0.0000    0.0006    0.0001    0.0002    0.0024    0.0000
     in Z         0.0000    0.0000    0.0001    0.0004    0.0002    0.0000
  Raman Intsty    0.2123    0.0474    0.0000    0.0000    0.0002    1.3303

     1 x      -0.009864 -0.011130 -0.105742  0.285990 -0.069666  0.083552
     1 y      -0.026844 -0.052264  0.035734 -0.108031 -0.191322  0.240078
     1 z       0.001001  0.001336 -0.046795  0.121182 -0.018381  0.006198
     2 x       0.026328 -0.005986  0.020060 -0.126797 -0.141220 -0.236651
     2 y       0.006976  0.058548 -0.007475 -0.205079  0.272263 -0.047599
     2 z       0.008322 -0.013244  0.019263 -0.048011 -0.053553 -0.087422
     3 x      -0.015410  0.043667  0.035490  0.027416  0.256359  0.155517
     3 y       0.021959  0.047452 -0.004298  0.252030  0.114829 -0.187407
     3 z      -0.009650  0.009301  0.004418  0.005777  0.116201  0.080916
     4 x       0.030683  0.020236  0.064017 -0.224885 -0.112573 -0.396084
     4 y       0.006186 -0.009593 -0.008107 -0.030526 -0.066289 -0.090550
     4 z       0.010242 -0.035936 -0.061104 -0.107240 -0.046263 -0.175575
     5 x      -0.011758 -0.057668  0.001377 -0.045751 -0.075895  0.120293
     5 y      -0.031073 -0.067871 -0.004565  0.008615 -0.279692  0.415160
     5 z       0.001351  0.075634  0.005689 -0.020357 -0.053766  0.067230
     6 x       0.181132  0.189226  0.302686  0.230744 -0.039543  0.118660
     6 y      -0.266289  0.292538  0.154189  0.094893  0.009477 -0.064821
     6 z       0.265057  0.275651 -0.113657 -0.356123  0.210238 -0.101282
     7 x       0.033824  0.131346  0.375761  0.126568  0.137872  0.111305
     7 y       0.332945  0.026116 -0.129009 -0.045793 -0.026140  0.114793
     7 z       0.198171 -0.349602  0.137383  0.045416 -0.361034 -0.167724
     8 x      -0.019323  0.005474  0.000864 -0.169515  0.062212  0.273580
     8 y       0.024138 -0.001061 -0.017741  0.166485 -0.135050 -0.330452
     8 z      -0.011501 -0.050702  0.083953 -0.059042  0.026606  0.107676
     9 x      -0.255358  0.026564 -0.192341  0.103583  0.064485 -0.160820
     9 y      -0.094924 -0.402741  0.140112 -0.017247  0.150397 -0.034698
     9 z      -0.293885  0.147668  0.277813 -0.329952 -0.236255  0.110873
    10 x      -0.412834 -0.118862 -0.011870 -0.165045 -0.101663 -0.033207
    10 y      -0.052369  0.421053 -0.224668 -0.122891  0.041917 -0.010069
    10 z       0.012561  0.123884  0.260056  0.393666  0.157186 -0.166611
    11 x       0.179165  0.102021 -0.452030  0.056488 -0.196078 -0.030741
    11 y       0.361802 -0.057309  0.160770 -0.022791 -0.025993  0.085158
    11 z      -0.112539 -0.219203 -0.204899  0.039601  0.442835  0.145257
    12 x       0.273212 -0.329975 -0.028654 -0.134558  0.206996 -0.005866
    12 y      -0.282907 -0.265166 -0.099532  0.042041  0.098085 -0.090565
    12 z      -0.069067  0.035713 -0.357690  0.299953 -0.192298  0.180523


  Frequency     444.3556  444.9280  463.0791  474.4311  481.0313  487.9421
  IR Intensity    0.0327    0.0409    0.0044    0.0020    0.0009    0.0003
     in X         0.0182    0.0117    0.0031    0.0004    0.0006    0.0000
     in Y         0.0098    0.0291    0.0007    0.0017    0.0001    0.0002
     in Z         0.0047    0.0000    0.0006    0.0000    0.0001    0.0000
  Raman Intsty    0.0005    0.0156    0.0007    3.0767    0.0000    5.1796

     1 x      -0.145221  0.147962  0.279393  0.167968  0.176580  0.098734
     1 y       0.097424  0.136506 -0.098132  0.020036 -0.061821 -0.067822
     1 z      -0.103728 -0.124907  0.129540 -0.379161  0.049070 -0.297147
     2 x      -0.157245  0.073489 -0.042526 -0.132168 -0.183748 -0.006923
     2 y      -0.057945  0.120277  0.367993 -0.037484  0.158923  0.000987
     2 z       0.114166  0.047092 -0.209551  0.157402  0.391169  0.157847
     3 x       0.024156  0.000737 -0.353842 -0.076262  0.058217 -0.106671
     3 y       0.163638  0.090452 -0.215695 -0.066991 -0.121957  0.037341
     3 z      -0.152837  0.085467  0.026147  0.223549 -0.416778  0.142902
     4 x      -0.211343  0.214694 -0.107515 -0.165907  0.064099  0.175625
     4 y      -0.053591  0.048145 -0.013064 -0.036816  0.018819  0.039976
     4 z      -0.093079  0.098905 -0.046633 -0.077813  0.020544  0.074688
     5 x       0.019405  0.091330  0.012603  0.005288  0.000166 -0.080502
     5 y       0.078327  0.321191  0.005160  0.027950 -0.008151 -0.268925
     5 z       0.012837  0.057492  0.005707  0.011562  0.000268 -0.037618
     6 x      -0.002908 -0.402306 -0.153615 -0.244306  0.043031  0.062981
     6 y       0.104017 -0.254562 -0.027962  0.086905 -0.279712 -0.092891
     6 z       0.173743 -0.012719  0.052445  0.244898 -0.285835 -0.171592
     7 x       0.216718  0.084440  0.468693  0.035151 -0.135132  0.227300
     7 y      -0.038773  0.137737 -0.167345  0.040642  0.058100  0.199878
     7 z       0.024099 -0.253017  0.195564  0.009325 -0.070323 -0.341279
     8 x      -0.195111 -0.066302 -0.088857  0.107647  0.041694 -0.124190
     8 y       0.241376  0.074382  0.090667 -0.125793 -0.060245  0.151913
     8 z      -0.075199 -0.022839 -0.035757  0.037462  0.023578 -0.052553
     9 x      -0.113870  0.136463 -0.037615 -0.016883 -0.228816 -0.324634
     9 y      -0.392807 -0.215887  0.205383  0.221155  0.057147  0.125465
     9 z       0.200968 -0.091072  0.006350 -0.077106  0.146149  0.244695
    10 x       0.084999  0.049364 -0.031228  0.017188 -0.006986  0.026805
    10 y      -0.302844 -0.325957  0.083602 -0.023808  0.267084 -0.093875
    10 z      -0.050097  0.248556 -0.135483  0.321297  0.313669 -0.207220
    11 x       0.339961 -0.132656  0.227056  0.129159  0.199500 -0.029251
    11 y      -0.119809  0.050763 -0.076435 -0.233004 -0.079804 -0.002566
    11 z       0.183702  0.086133  0.111482 -0.494774  0.064111  0.057154
    12 x       0.193793 -0.239794 -0.150131  0.180878 -0.038389  0.083573
    12 y       0.242061 -0.249590 -0.164553  0.143389  0.056381 -0.023830
    12 z      -0.207288 -0.120558 -0.089488  0.023015 -0.240118  0.429434


  Frequency     591.3033  618.8903  620.6891  800.2032  801.7582  902.2455
  IR Intensity    0.1948    0.1170    0.1188    0.0094    0.0091    0.0000
     in X         0.0349    0.0915    0.0039    0.0074    0.0005    0.0000
     in Y         0.0038    0.0091    0.1057    0.0007    0.0083    0.0000
     in Z         0.1561    0.0163    0.0092    0.0013    0.0002    0.0000
  Raman Intsty    0.0000    0.0000    0.0003    0.0000    0.0007    3.0479

     1 x      -0.171802  0.556178  0.030909 -0.108915 -0.171049 -0.135787
     1 y      -0.022323 -0.198007 -0.046005  0.062143 -0.596289 -0.476696
     1 z       0.397191  0.234438 -0.051464 -0.044659 -0.115531 -0.084445
     2 x      -0.161735  0.091766  0.114582  0.477827 -0.278680  0.461004
     2 y      -0.083103 -0.283719 -0.546934  0.168898  0.062851  0.098938
     2 z       0.398364  0.028623 -0.034113  0.220555 -0.126774  0.208383
     3 x      -0.215129  0.248704 -0.322149  0.285267  0.284334 -0.324574
     3 y      -0.061142  0.198262 -0.371491 -0.439379 -0.162761  0.379753
     3 z       0.376056  0.115555 -0.217731  0.101714  0.109573 -0.123355
     4 x       0.041371 -0.118268  0.063900 -0.388664  0.201908 -0.237953
     4 y       0.011288 -0.011022  0.044537 -0.089847  0.043434 -0.054229
     4 z      -0.018970 -0.051419  0.033890 -0.171639  0.089125 -0.105213
     5 x       0.031795 -0.031063  0.037810 -0.002322  0.135646  0.071063
     5 y       0.062824  0.007117  0.139012 -0.017347  0.464959  0.244121
     5 z      -0.022496 -0.013199  0.025119 -0.001552  0.073532  0.038829
     6 x       0.139102 -0.199373 -0.035284  0.001383  0.053392  0.012798
     6 y      -0.059230  0.059674  0.166839 -0.048751  0.029938 -0.011591
     6 z      -0.173668  0.147516  0.177654 -0.053059 -0.000836 -0.032487
     7 x       0.153989 -0.145221  0.131959 -0.068401 -0.035365  0.021488
     7 y       0.132826  0.043655  0.145657  0.025621 -0.028364  0.013694
     7 z      -0.250348 -0.049994 -0.199229 -0.030797  0.050883 -0.038079
     8 x      -0.006267 -0.087537 -0.037163 -0.257435 -0.158678  0.163947
     8 y       0.030531  0.079706  0.084118  0.313137  0.188076 -0.197995
     8 z      -0.039144 -0.035776 -0.008822 -0.102072 -0.063003  0.064869
     9 x       0.205440 -0.246941  0.054995  0.032380 -0.044879 -0.026563
     9 y       0.019040  0.069944  0.128081  0.029064  0.066934  0.007507
     9 z      -0.191483  0.157727 -0.058000 -0.035001  0.021636  0.030606
    10 x       0.006213 -0.041794 -0.008192 -0.006279 -0.011550  0.008093
    10 y      -0.013041  0.014187  0.158904  0.047739  0.056168 -0.010525
    10 z      -0.232965 -0.259324  0.173434  0.053009 -0.023914 -0.034527
    11 x       0.057112 -0.126251 -0.071920 -0.065303  0.011651 -0.011876
    11 y      -0.070300  0.041110  0.159077  0.024266 -0.023403  0.008376
    11 z      -0.194502 -0.062765  0.285600 -0.025258 -0.052515  0.033689
    12 x       0.025055 -0.072032  0.074407 -0.024902  0.044965 -0.001764
    12 y       0.084552  0.033417  0.123027 -0.035619  0.031875 -0.001736
    12 z      -0.272560 -0.283938 -0.068214  0.035558  0.063262  0.041618




--------------------------------------------------------------------------------
  Vibrational properties (for cluster):  Temperature  =       0.000 K
--------------------------------------------------------------------------------
  Zero point energy            =        0.699449 eV
--------------------------------------------------------------------------------

  Phonon density of states : 

--------------------------------------------------------------------------------
 Frequency (cm-1) Density of States                                             
--------------------------------------------------------------------------------
    0.00000 |****************************************                      0.057
   14.09759 |****************************************                      0.057
   28.19517 |********************                                          0.029
   42.29276 |                                                              0.000
   56.39035 |                                                              0.000
   70.48794 |                                                              0.000
   84.58552 |                                                              0.000
   98.68311 |                                                              0.000
  112.78070 |************************************************************  0.086
  126.87829 |************************************************************  0.086
  140.97587 |********************                                          0.029
  155.07346 |                                                              0.000
  169.17105 |********************                                          0.029
  183.26864 |                                                              0.000
  197.36622 |********************                                          0.029
  211.46381 |                                                              0.000
  225.56140 |                                                              0.000
  239.65899 |****************************************                      0.057
  253.75657 |                                                              0.000
  267.85416 |********************                                          0.029
  281.95175 |********************                                          0.029
  296.04934 |                                                              0.000
  310.14692 |                                                              0.000
  324.24451 |****************************************                      0.057
  338.34210 |                                                              0.000
  352.43969 |****************************************                      0.057
  366.53727 |                                                              0.000
  380.63486 |                                                              0.000
  394.73245 |********************                                          0.029
  408.83004 |                                                              0.000
  422.92762 |                                                              0.000
  437.02521 |****************************************                      0.057
  451.12280 |********************                                          0.029
  465.22039 |********************                                          0.029
  479.31797 |****************************************                      0.057
  493.41556 |                                                              0.000
  507.51315 |                                                              0.000
  521.61073 |                                                              0.000
  535.70832 |                                                              0.000
  549.80591 |                                                              0.000
  563.90350 |                                                              0.000
  578.00108 |********************                                          0.029
  592.09867 |                                                              0.000
  606.19626 |********************                                          0.029
  620.29385 |********************                                          0.029
  634.39143 |                                                              0.000
  648.48902 |                                                              0.000
  662.58661 |                                                              0.000
  676.68420 |                                                              0.000
  690.78178 |                                                              0.000
  704.87937 |                                                              0.000
  718.97696 |                                                              0.000
  733.07455 |                                                              0.000
  747.17213 |                                                              0.000
  761.26972 |                                                              0.000
  775.36731 |                                                              0.000
  789.46490 |****************************************                      0.057
  803.56248 |                                                              0.000
  817.66007 |                                                              0.000
  831.75766 |                                                              0.000
  845.85525 |                                                              0.000
  859.95283 |                                                              0.000
  874.05042 |                                                              0.000
  888.14801 |********************                                          0.029
--------------------------------------------------------------------------------



  Time to end of optimisation =       0.0466 seconds


  Peak dynamic memory used =       0.65 MB 


  Timing analysis for GULP :

--------------------------------------------------------------------------------
  Task / Subroutine                                          Time (Seconds)
--------------------------------------------------------------------------------
  Calculation of real space energy and derivatives                0.0034
  Calculation of phonons                                          0.0016
  Calculation and manipulation of Hessian matrix                  0.0018
--------------------------------------------------------------------------------
  Total CPU time                                                  0.0466
--------------------------------------------------------------------------------


  Job Finished at 14:40.14 25th May        2022                               

