********************************************************************************
*                       GENERAL UTILITY LATTICE PROGRAM                        *
*                                 Julian Gale                                  *
*                       Curtin Institute for Computation                       *
*                           Department of Chemistry                            *
*                    Curtin University, Western Australia                      *
********************************************************************************
* Version = 5.1.1 * Last modified =  24th November 2018                        *
********************************************************************************
*  optimise     - perform optimisation run                                     *
*  conp         - constant pressure calculation                                *
*  shell        - only shells and radii to be optimised                        *
*  phonon       - calculate phonons for final geometry                         *
*  eigenvectors - output phonon eigenvectors                                   *
********************************************************************************

  Job Started  at 14:38.58 25th May        2022                               

  Number of CPUs =     1

  Host name      = login03                                 


  Total number of configurations input =      1

********************************************************************************
*  Input for Configuration =   1                                               *
********************************************************************************

  Formula = Al3F9                                                       

  Number of irreducible atoms/shells =      21


  Total number atoms/shells =      21

  Dimensionality = 0               :  Cluster


  Charge on cluster =  -0.000000


  Initial cluster dipoles : x =     -0.058144 e.Angs
                            y =      0.231161 e.Angs
                            z =      0.378740 e.Angs

  Temperature of configuration =  0.000     K 

  Symmetry number =      1

  Cartesian coordinates of cluster :

--------------------------------------------------------------------------------
   No.  Atomic       x           y          z         Charge      Occupancy
        Label      (Angs)      (Angs)     (Angs)        (e)         (Frac)  
--------------------------------------------------------------------------------
      1 Al    c      0.3435     -0.5605      1.7791     3.00000    1.000000    
      2 Al    c      2.3311     -1.7800     -0.5068     3.00000    1.000000    
      3 Al    c     -0.8782     -1.8212     -0.9743     3.00000    1.000000    
      4 F     c      3.4853     -0.4866     -1.1176     0.59000    1.000000    
      5 F     c     -1.8422     -0.5550     -1.8938     0.59000    1.000000    
      6 F     c      2.7411     -3.5796     -0.4920     0.59000    1.000000    
      7 F     c     -1.2299     -3.6306     -1.0705     0.59000    1.000000    
      8 F     c      1.9185     -1.4281      1.1901     0.59000    1.000000    
      9 F     c      0.8314     -1.5099     -1.4861     0.59000    1.000000    
     10 F     c      0.1138     -1.1624      3.4091     0.59000    1.000000    
     11 F     c      0.4054      1.1011      1.2078     0.59000    1.000000    
     12 F     c     -0.9758     -1.4652      0.7684     0.59000    1.000000    
     13 F     s      3.4853 *   -0.4866 *   -1.1176 *  -1.59000    1.000000    
     14 F     s     -1.8422 *   -0.5550 *   -1.8938 *  -1.59000    1.000000    
     15 F     s      2.7411 *   -3.5796 *   -0.4920 *  -1.59000    1.000000    
     16 F     s     -1.2299 *   -3.6306 *   -1.0705 *  -1.59000    1.000000    
     17 F     s      1.9185 *   -1.4281 *    1.1901 *  -1.59000    1.000000    
     18 F     s      0.8314 *   -1.5099 *   -1.4861 *  -1.59000    1.000000    
     19 F     s      0.1138 *   -1.1624 *    3.4091 *  -1.59000    1.000000    
     20 F     s      0.4054 *    1.1011 *    1.2078 *  -1.59000    1.000000    
     21 F     s     -0.9758 *   -1.4652 *    0.7684 *  -1.59000    1.000000    
--------------------------------------------------------------------------------


  Brillouin zone sampling points :

--------------------------------------------------------------------------------
  Point number          x          y          z            Weight
--------------------------------------------------------------------------------
        1           0.000000   0.000000   0.000000     1.00000000
--------------------------------------------------------------------------------


********************************************************************************
*  General input information                                                   *
********************************************************************************

  Species output for all configurations : 

--------------------------------------------------------------------------------
  Species    Type    Atomic    Atomic    Charge       Radii (Angs)     Library
                     Number     Mass       (e)     Cova   Ionic  VDW   Symbol
--------------------------------------------------------------------------------
    Al       Core       13      26.98   3.000000   1.350  0.000  2.050          
    F        Core        9      19.00   0.590000   0.710  0.000  1.300          
    F        Shell       9       0.00  -1.590000   0.710  0.000  1.300          
--------------------------------------------------------------------------------


  Accuracy factor for short range sums = 12.000

  Time limit = Infinity

  Maximum range for interatomic potentials =    100000.000000 Angstroms

  General interatomic potentials :

--------------------------------------------------------------------------------
Atom  Types   Potential      Parameter       Value         Units   Cutoffs(Ang)
  1     2                                                            Min /  Max 
--------------------------------------------------------------------------------
Al   c F    s Buckingham    Buckingham A     3760.0008    eV        0.000 10.000
                            Buckingham rho  0.22200000    Ang       
                            Buckingham C     0.0000000    eV*Ang^6  
--------------------------------------------------------------------------------
F    s F    s Buck 4 range  Buck4 A          1127.7000    eV        0.000 12.000
                            Buck4 rho       0.27530000    Ang       
                            Buck4 C          15.830000    eV*Ang^6  
                            Buck4 minimum    2.7900000    Ang       
--------------------------------------------------------------------------------
F    c F    s Spring (c-s)  Spring k 2       20.770000    eV*Ang^-2 0.000  0.800
                            Spring k 4       0.0000000    eV*Ang^-4 
--------------------------------------------------------------------------------

********************************************************************************
*  Output for configuration   1                                                *
********************************************************************************


  Components of energy : 

--------------------------------------------------------------------------------
  Interatomic potentials     =          12.17891367 eV    
  Monopole - monopole (real) =        -182.87706772 eV    
--------------------------------------------------------------------------------
  Total lattice energy       =        -170.69815405 eV    
--------------------------------------------------------------------------------
  Total lattice energy       =          -16469.7625 kJ/mol
--------------------------------------------------------------------------------


  Number of variables =       27

  Maximum number of calculations  =          2000
  Maximum Hessian update interval =            10
  Maximum step size               =   1.000000000
  Maximum parameter tolerance     =   0.000001000
  Maximum function  tolerance     =   0.000010000
  Maximum gradient  tolerance     =   0.000000010
  Maximum gradient  component     =   0.010000000

  Symmetry not applied to optimisation

  Newton-Raphson optimiser to be used

  BFGS hessian update to be used

  Lower half triangular hessian to be used

  Minimiser to switch to RFO
  When gradient norm is less than     0.010000

  Shell only optimisation

  Start of cluster optimisation :

  Cycle:      0 Energy:      -170.698154  Gnorm:      1.346376  CPU:    0.016
  ** Hessian calculated **
  Cycle:      1 Energy:      -185.894719  Gnorm:      0.423195  CPU:    0.018
  ** Hessian calculated **
  Cycle:      2 Energy:      -187.049004  Gnorm:      0.011005  CPU:    0.020
  Cycle:      3 Energy:      -187.049894  Gnorm:      0.001667  CPU:    0.021
  ** Hessian has required structure
  Cycle:      4 Energy:      -187.049902  Gnorm:      0.000958  CPU:    0.023
  ** Hessian has required structure
  Cycle:      5 Energy:      -187.049903  Gnorm:      0.000935  CPU:    0.024
  ** Hessian has required structure
  Cycle:      6 Energy:      -187.049903  Gnorm:      0.000918  CPU:    0.026
  ** Hessian has required structure
  Cycle:      7 Energy:      -187.049903  Gnorm:      0.000901  CPU:    0.027
  ** Hessian has required structure
  Cycle:      8 Energy:      -187.049903  Gnorm:      0.000899  CPU:    0.029
  ** Hessian has required structure
  Cycle:      9 Energy:      -187.049903  Gnorm:      0.000900  CPU:    0.030
  ** Hessian has required structure
  Cycle:     10 Energy:      -187.049903  Gnorm:      0.000868  CPU:    0.032
  ** Hessian has required structure
  Cycle:     11 Energy:      -187.049904  Gnorm:      0.000774  CPU:    0.033
  ** Hessian has required structure
  Cycle:     12 Energy:      -187.049909  Gnorm:      0.000000  CPU:    0.035
  ** Hessian has required structure

  XYZ File written as 002/5/sp_mod_10/sp_mod_10_eig.xyz



  **** Optimisation achieved ****


  Final energy =    -187.04990853 eV
  Final Gnorm  =       0.00000000

  Components of energy : 

--------------------------------------------------------------------------------
  Interatomic potentials     =          37.96229298 eV    
  Monopole - monopole (real) =        -225.01220151 eV    
--------------------------------------------------------------------------------
  Total lattice energy       =        -187.04990853 eV    
--------------------------------------------------------------------------------
  Total lattice energy       =          -18047.4569 kJ/mol
--------------------------------------------------------------------------------

  Final cartesian coordinates of atoms :

--------------------------------------------------------------------------------
   No.  Atomic        x           y          z          Radius
        Label       (Angs)      (Angs)     (Angs)       (Angs) 
--------------------------------------------------------------------------------
     1  Al    c     0.343498   -0.560499    1.779061    0.000000
     2  Al    c     2.331140   -1.780014   -0.506751    0.000000
     3  Al    c    -0.878176   -1.821230   -0.974290    0.000000
     4  F     c     3.485282   -0.486612   -1.117628    0.000000
     5  F     c    -1.842247   -0.555032   -1.893752    0.000000
     6  F     c     2.741077   -3.579621   -0.492039    0.000000
     7  F     c    -1.229885   -3.630619   -1.070536    0.000000
     8  F     c     1.918548   -1.428060    1.190081    0.000000
     9  F     c     0.831365   -1.509934   -1.486092    0.000000
    10  F     c     0.113766   -1.162429    3.409069    0.000000
    11  F     c     0.405383    1.101148    1.207785    0.000000
    12  F     c    -0.975756   -1.465231    0.768433    0.000000
    13  F     s     3.297866   -0.691203   -1.018380    0.000000
    14  F     s    -1.685847   -0.755208   -1.744416    0.000000
    15  F     s     2.670637   -3.289771   -0.491141    0.000000
    16  F     s    -1.169940   -3.339094   -1.050643    0.000000
    17  F     s     1.750577   -1.352185    1.044472    0.000000
    18  F     s     0.801538   -1.587893   -1.274479    0.000000
    19  F     s     0.145280   -1.076625    3.185189    0.000000
    20  F     s     0.397224    0.872761    1.283926    0.000000
    21  F     s    -0.775191   -1.384623    0.676514    0.000000
--------------------------------------------------------------------------------


  Final Cartesian derivatives :

--------------------------------------------------------------------------------
   No.  Atomic          x             y             z           Radius
        Label       (eV/Angs)     (eV/Angs)    (eV/Angs)      (eV/Angs)
--------------------------------------------------------------------------------
      1 Al    c       0.000000      0.000000      0.000000      0.000000
      2 Al    c       0.000000      0.000000      0.000000      0.000000
      3 Al    c       0.000000      0.000000      0.000000      0.000000
      4 F     c       0.000000      0.000000      0.000000      0.000000
      5 F     c       0.000000      0.000000      0.000000      0.000000
      6 F     c       0.000000      0.000000      0.000000      0.000000
      7 F     c       0.000000      0.000000      0.000000      0.000000
      8 F     c       0.000000      0.000000      0.000000      0.000000
      9 F     c       0.000000      0.000000      0.000000      0.000000
     10 F     c       0.000000      0.000000      0.000000      0.000000
     11 F     c       0.000000      0.000000      0.000000      0.000000
     12 F     c       0.000000      0.000000      0.000000      0.000000
     13 F     s       0.000000     -0.000000     -0.000000      0.000000
     14 F     s      -0.000000      0.000000      0.000000      0.000000
     15 F     s      -0.000000      0.000000     -0.000000      0.000000
     16 F     s      -0.000000     -0.000000      0.000000      0.000000
     17 F     s      -0.000000      0.000000      0.000000      0.000000
     18 F     s      -0.000000      0.000000     -0.000000      0.000000
     19 F     s       0.000000     -0.000000      0.000000      0.000000
     20 F     s      -0.000000      0.000000     -0.000000      0.000000
     21 F     s      -0.000000     -0.000000     -0.000000      0.000000
--------------------------------------------------------------------------------
  Maximum abs         0.000000      0.000000      0.000000      0.000000
--------------------------------------------------------------------------------


  Born effective charge tensors : 

-------------------------------------------------------------------------------
  Atom             x           y             z
-------------------------------------------------------------------------------
    1 Al    x       1.6130     -0.0781      0.0826
            y      -0.0793      0.7899      0.6179
            z       0.0827      0.6100      1.0027
-------------------------------------------------------------------------------
    2 Al    x       1.2250     -0.1565      0.0923
            y      -0.1623      0.4856      0.1628
            z       0.0949      0.1677      1.2561
-------------------------------------------------------------------------------
    3 Al    x       1.2730      0.1217     -0.0911
            y       0.1286      0.4929      0.2027
            z      -0.0938      0.2057      1.2009
-------------------------------------------------------------------------------
    4 F     x      -0.3571      0.2783     -0.0990
            y       0.2386     -0.2402     -0.1382
            z      -0.1015     -0.1476     -0.4852
-------------------------------------------------------------------------------
    5 F     x      -0.4119     -0.2284      0.1236
            y      -0.1931     -0.2523     -0.1982
            z       0.1264     -0.2184     -0.4184
-------------------------------------------------------------------------------
    6 F     x      -0.5591     -0.1164      0.0208
            y      -0.0802     -0.0006     -0.0311
            z       0.0076     -0.0112     -0.5415
-------------------------------------------------------------------------------
    7 F     x      -0.5546      0.1008     -0.0235
            y       0.0718      0.0042     -0.0095
            z      -0.0110      0.0202     -0.5507
-------------------------------------------------------------------------------
    8 F     x      -0.4030      0.0402     -0.0091
            y       0.0223     -0.2730     -0.0310
            z      -0.0002     -0.0483     -0.2898
-------------------------------------------------------------------------------
    9 F     x      -0.2849      0.0050      0.0083
            y       0.0054     -0.2532     -0.0397
            z       0.0083     -0.0369     -0.3371
-------------------------------------------------------------------------------
   10 F     x      -0.5678      0.0380     -0.0812
            y       0.0296     -0.4770     -0.2119
            z      -0.0804     -0.2700     -0.0032
-------------------------------------------------------------------------------
   11 F     x      -0.5773      0.0236     -0.0021
            y       0.0344     -0.0019     -0.2870
            z      -0.0031     -0.2125     -0.5376
-------------------------------------------------------------------------------
   12 F     x      -0.3953     -0.0279     -0.0216
            y      -0.0157     -0.2744     -0.0367
            z      -0.0300     -0.0586     -0.2961
-------------------------------------------------------------------------------




  Moment of inertia tensor (10^-46 x kgm^2): 

-------------------------------------------------------------------------------
                x           y           z           Principal axis system
-------------------------------------------------------------------------------
       x        153.72        2.94       -1.82          153.492216
       y          2.94      201.56      -24.39          155.294858
       z         -1.82      -24.39      168.12          214.603831
-------------------------------------------------------------------------------
  Centre of mass (Ang) =     0.603206    -1.404681     0.070778
-------------------------------------------------------------------------------


  Vibrational Frequency Calculation : 

--------------------------------------------------------------------------------

  Frequencies (cm-1) and Eigenvectors : 

  Frequency     -76.3139  -55.6340   -0.0000    0.0000    0.0000    8.6843
  IR Intensity    0.0022    0.0001    0.0000    0.0000    0.0000    0.0006
     in X         0.0000    0.0001    0.0000    0.0000    0.0000    0.0006
     in Y         0.0004    0.0000    0.0000    0.0000    0.0000    0.0000
     in Z         0.0018    0.0000    0.0000    0.0000    0.0000    0.0000
  Raman Intsty    0.0116    0.0000    0.0000    0.0000    0.0000    0.0000

     1 x      -0.009857 -0.067952  0.210751 -0.010388  0.250130  0.241428
     1 y      -0.038226 -0.000873  0.249981 -0.008910 -0.210996  0.003101
     1 z       0.071029 -0.009899  0.013508  0.326958  0.002197  0.035172
     2 x       0.007781  0.015748  0.210751 -0.010388  0.250130 -0.116408
     2 y       0.032778 -0.077490  0.249981 -0.008910 -0.210996 -0.126071
     2 z      -0.068149  0.125821  0.013508  0.326958  0.002197 -0.194787
     3 x       0.011161  0.049032  0.210751 -0.010388  0.250130 -0.170269
     3 y       0.032821  0.078322  0.249981 -0.008910 -0.210996  0.122389
     3 z      -0.067656 -0.116383  0.013508  0.326958  0.002197  0.153023
     4 x       0.004521  0.029228  0.176859 -0.008717  0.209904 -0.100269
     4 y       0.009173 -0.014466  0.209779 -0.007477 -0.177064 -0.128071
     4 z      -0.100681  0.242332  0.011336  0.274377  0.001844 -0.216364
     5 x       0.024158  0.096768  0.176859 -0.008717  0.209904 -0.161011
     5 y       0.009425  0.016085  0.209779 -0.007477 -0.177064  0.124715
     5 z      -0.097820 -0.223976  0.011336  0.274377  0.001844  0.178300
     6 x      -0.000467  0.031378  0.176859 -0.008717  0.209904 -0.156836
     6 y       0.026825 -0.061045  0.209779 -0.007477 -0.177064 -0.119961
     6 z       0.017836 -0.004989  0.011336  0.274377  0.001844 -0.268423
     7 x      -0.005315  0.027105  0.176859 -0.008717  0.209904 -0.229856
     7 y       0.026763  0.061796  0.209779 -0.007477 -0.177064  0.114995
     7 z       0.017129  0.013509  0.011336  0.274377  0.001844  0.212090
     8 x       0.023580 -0.152112  0.176859 -0.008717  0.209904  0.073956
     8 y       0.175678 -0.283355  0.209779 -0.007477 -0.177064 -0.176852
     8 z      -0.098418  0.114262  0.011336  0.274377  0.001844 -0.100102
     9 x       0.011437  0.083979  0.176859 -0.008717  0.209904 -0.169661
     9 y      -0.018414  0.001079  0.209779 -0.007477 -0.177064 -0.002179
     9 z      -0.076881  0.012234  0.011336  0.274377  0.001844 -0.024717
    10 x       0.028886 -0.529851  0.176859 -0.008717  0.209904  0.282505
    10 y      -0.609171 -0.006805  0.209779 -0.007477 -0.177064  0.003628
    10 z      -0.144576 -0.077190  0.011336  0.274377  0.001844  0.041156
    11 x      -0.098690  0.537559  0.176859 -0.008717  0.209904  0.477235
    11 y       0.171714  0.006904  0.209779 -0.007477 -0.177064  0.006129
    11 z       0.662298  0.078313  0.011336  0.274377  0.001844  0.069524
    12 x       0.001065 -0.120273  0.176859 -0.008717  0.209904  0.037856
    12 y       0.175389  0.279857  0.209779 -0.007477 -0.177064  0.178288
    12 z      -0.101698 -0.153943  0.011336  0.274377  0.001844  0.116391


  Frequency      18.4323   33.8855   59.6864  106.2110  143.2862  145.9630
  IR Intensity    0.0003    0.0002    0.0011    0.0071    0.0203    0.0116
     in X         0.0000    0.0002    0.0000    0.0070    0.0002    0.0113
     in Y         0.0000    0.0000    0.0010    0.0000    0.0109    0.0000
     in Z         0.0003    0.0000    0.0001    0.0001    0.0092    0.0002
  Raman Intsty    0.0368    0.0000    0.0108    0.0000    0.0002    0.0000

     1 x       0.010245 -0.000367 -0.001513  0.160474 -0.003467  0.160046
     1 y       0.293027 -0.000005 -0.044363  0.002061  0.006680  0.002055
     1 z      -0.096158 -0.000053  0.014296  0.023378  0.023207  0.023316
     2 x      -0.002531  0.008325  0.056543 -0.007867 -0.036472  0.031144
     2 y      -0.152250  0.238267  0.022423  0.079773 -0.091637  0.023616
     2 z       0.039323 -0.098962  0.013749 -0.055734 -0.095067 -0.083628
     3 x      -0.004963 -0.014262 -0.058661 -0.021430  0.064368  0.006578
     3 y      -0.152281 -0.238343  0.020943 -0.080149 -0.090342 -0.023132
     3 z       0.038969  0.098098 -0.003034  0.051466 -0.080376  0.089123
     4 x       0.005095 -0.205821 -0.243229 -0.080287 -0.017831  0.197975
     4 y      -0.235165  0.417037  0.252591 -0.005869  0.011751  0.012836
     4 z      -0.183836 -0.023328 -0.044896 -0.346497  0.139010  0.228760
     5 x       0.053474 -0.193368  0.239498 -0.175915 -0.022866  0.255263
     5 y      -0.234544 -0.422164  0.258790  0.002579  0.011687 -0.007015
     5 z      -0.176788 -0.034827  0.025428  0.309173  0.138277 -0.162731
     6 x      -0.012394  0.272896  0.458775 -0.009576 -0.032648 -0.151977
     6 y      -0.126629  0.258898  0.113229  0.069190 -0.082356 -0.023730
     6 z       0.338316 -0.229808  0.075124  0.148748 -0.219973 -0.475282
     7 x      -0.081449  0.202422 -0.463838  0.034998  0.096102 -0.281788
     7 y      -0.127516 -0.252794  0.101380 -0.068864 -0.080703  0.018159
     7 z       0.328256  0.299054 -0.059283 -0.145044 -0.201217  0.412089
     8 x       0.017708 -0.052777 -0.023650  0.267098 -0.125657  0.186556
     8 y       0.282197 -0.095235 -0.067533  0.220269 -0.093484  0.093513
     8 z      -0.060580 -0.030743  0.006355  0.010365 -0.101627 -0.021307
     9 x       0.009752 -0.078312  0.012528 -0.039826  0.038171 -0.016204
     9 y      -0.332731 -0.001005 -0.516077 -0.000512 -0.180118 -0.000208
     9 z      -0.037609 -0.011409 -0.040500 -0.005802 -0.246136 -0.002361
    10 x       0.008253  0.014072 -0.002036 -0.602595 -0.037280 -0.330551
    10 y       0.249556  0.000181 -0.025606 -0.007739  0.535898 -0.004245
    10 z      -0.078653  0.002050  0.016231 -0.087787  0.208660 -0.048155
    11 x       0.003065  0.110130  0.003735  0.185379 -0.078837 -0.269960
    11 y       0.256658  0.001414 -0.048648  0.002381  0.176138 -0.003467
    11 z      -0.043668  0.016044 -0.021349  0.027006  0.525633 -0.039328
    12 x      -0.006782 -0.061731  0.022545  0.264408  0.151735  0.175017
    12 y       0.281882  0.093764 -0.066940 -0.213443 -0.089921 -0.088870
    12 z      -0.064148  0.014062  0.013085  0.067066 -0.061217  0.073982


  Frequency     159.3341  159.4361  176.3511  182.4934  194.9946  219.7477
  IR Intensity    0.0008    0.0040    0.0006    0.0127    0.0102    0.0345
     in X         0.0008    0.0000    0.0000    0.0124    0.0001    0.0007
     in Y         0.0000    0.0026    0.0005    0.0000    0.0040    0.0028
     in Z         0.0000    0.0014    0.0001    0.0003    0.0061    0.0311
  Raman Intsty    0.0000    0.0008    0.0000    0.0000    0.0010    0.0000

     1 x       0.153959 -0.013965  0.009004  0.330925 -0.014533 -0.038699
     1 y       0.001976 -0.210329 -0.042508  0.004250 -0.169024 -0.137584
     1 z       0.022430  0.114396 -0.058062  0.048210  0.114656  0.277771
     2 x      -0.099492 -0.019645  0.146594 -0.067265 -0.005553 -0.006581
     2 y       0.095537  0.045746 -0.017238 -0.266594  0.180111  0.110325
     2 z       0.114515 -0.019704  0.045293  0.015570 -0.132448  0.056480
     3 x      -0.060255  0.023293 -0.152942 -0.066711  0.038574 -0.012581
     3 y      -0.097588  0.046298 -0.021084  0.264873  0.180678  0.110248
     3 z      -0.137788 -0.013448  0.001656 -0.035088 -0.126019  0.055606
     4 x      -0.168525 -0.215491  0.304199 -0.321647  0.362905  0.090921
     4 y       0.240548 -0.018070 -0.216471  0.019610 -0.095081 -0.049166
     4 z       0.275131 -0.514197 -0.056995  0.064075  0.028124 -0.083513
     5 x      -0.076929  0.353603 -0.269757 -0.289405 -0.353339 -0.062054
     5 y      -0.243701 -0.010758 -0.223842 -0.027458 -0.104280 -0.051131
     5 z      -0.310895 -0.431286 -0.140610 -0.153095 -0.076219 -0.105799
     6 x      -0.354075 -0.058058  0.396079  0.229970  0.071842 -0.155657
     6 y       0.022355  0.031617  0.046991 -0.171614  0.185048  0.066556
     6 z       0.154599  0.101024 -0.164010  0.043721  0.324834 -0.267903
     7 x      -0.294582  0.026017 -0.333887  0.228495 -0.166150  0.223887
     7 y      -0.030685  0.032697  0.037616  0.177502  0.181992  0.071431
     7 z      -0.249095  0.113275 -0.270352  0.023069  0.290162 -0.212611
     8 x       0.236993  0.032129  0.108576  0.189828 -0.098955  0.163595
     8 y       0.095131 -0.110722  0.054624 -0.216519 -0.108874  0.304005
     8 z       0.183585  0.051352  0.035986  0.108565 -0.110569  0.059554
     9 x      -0.035072 -0.017482 -0.062835  0.007758  0.056346  0.014003
     9 y      -0.000449  0.257179  0.147675  0.000100 -0.023620 -0.462822
     9 z      -0.005109  0.097331  0.418297  0.001130 -0.384695 -0.055321
    10 x       0.213043 -0.039163 -0.004796 -0.101107 -0.025261 -0.043920
    10 y       0.002737  0.225416  0.161464 -0.001298  0.029229 -0.022056
    10 z       0.031038  0.248943  0.018688 -0.014729  0.170821  0.303423
    11 x       0.204215 -0.026609 -0.025078 -0.385984  0.001490  0.019551
    11 y       0.002622 -0.154727  0.036518 -0.004957 -0.186983 -0.255285
    11 z       0.029752  0.196286  0.168920 -0.056231  0.006258 -0.111695
    12 x       0.281829 -0.042651 -0.115667  0.207402  0.129090 -0.181377
    12 y      -0.088469 -0.111681  0.051744  0.221621 -0.105946  0.299575
    12 z      -0.108002  0.040459  0.003317 -0.050696 -0.077347  0.009298


  Frequency     223.4719  232.0592  240.7033  261.6566  262.4559  318.1555
  IR Intensity    0.0225    0.0227    0.1216    0.0895    0.0122    0.0004
     in X         0.0220    0.0223    0.0019    0.0876    0.0001    0.0000
     in Y         0.0000    0.0000    0.0415    0.0000    0.0057    0.0001
     in Z         0.0005    0.0005    0.0782    0.0019    0.0063    0.0003
  Raman Intsty    0.0000    0.0000    0.0033    0.0000    0.0037    0.2348

     1 x      -0.303321  0.138589  0.043054 -0.010077 -0.036340  0.028507
     1 y      -0.003896  0.001780 -0.385593 -0.000129 -0.011323 -0.020176
     1 z      -0.044188  0.020190 -0.261541 -0.001468  0.250447 -0.193898
     2 x      -0.042021 -0.190564  0.114254 -0.334358 -0.156530 -0.164357
     2 y      -0.179464 -0.080491 -0.055871  0.147924 -0.180842  0.031559
     2 z       0.197072 -0.290027 -0.132030  0.102224 -0.037357  0.094509
     3 x       0.011443 -0.267341 -0.070401 -0.287475  0.165177  0.129720
     3 y       0.179071  0.074610 -0.058243 -0.155910 -0.176711  0.035336
     3 z      -0.201527  0.223318 -0.158930 -0.192814  0.009509  0.137350
     4 x      -0.220826  0.069185 -0.018098  0.119345 -0.181165 -0.045192
     4 y      -0.067965 -0.020133  0.212605 -0.305425 -0.092232 -0.139792
     4 z       0.056262  0.321015  0.178313  0.026399  0.110918  0.012381
     5 x      -0.197238  0.157355 -0.038872  0.114196  0.144257  0.043283
     5 y       0.062596  0.023042  0.212338  0.308425 -0.088052 -0.138656
     5 z      -0.117167 -0.288012  0.175287  0.007623  0.158326  0.025271
     6 x       0.201482  0.190257 -0.063875  0.173507  0.268304  0.073875
     6 y      -0.112589  0.016051 -0.093877  0.271223 -0.082616  0.097118
     6 z      -0.232828  0.201006  0.195719 -0.050742 -0.024732 -0.032421
     7 x       0.123795  0.240032  0.007729  0.158587 -0.247934 -0.063974
     7 y       0.116766 -0.010525 -0.092958 -0.266958 -0.089247  0.095348
     7 z       0.280215 -0.138321  0.206150  0.099123 -0.099938 -0.052503
     8 x       0.027990 -0.007826  0.342184  0.132003 -0.018934  0.354386
     8 y       0.420020  0.177007  0.174728 -0.075171  0.279088 -0.077179
     8 z       0.048351 -0.305457 -0.103313  0.293474 -0.122492  0.352026
     9 x       0.090084 -0.286536 -0.018074 -0.235443  0.036187  0.070132
     9 y       0.001157 -0.003680  0.051036 -0.003024  0.429001  0.051359
     9 z       0.013124 -0.041743  0.119562 -0.034299 -0.286218 -0.485934
    10 x       0.083364 -0.037455  0.004813  0.086652 -0.034268  0.027349
    10 y       0.001071 -0.000481  0.207467  0.001113 -0.054184  0.057862
    10 z       0.012145 -0.005457 -0.051327  0.012623  0.240004 -0.192830
    11 x       0.238065  0.145681 -0.016593 -0.004140  0.020487 -0.014530
    11 y       0.003057  0.001871 -0.242315 -0.000053 -0.142114  0.085625
    11 z       0.034682  0.021223  0.135261 -0.000603 -0.128100  0.092188
    12 x       0.051173 -0.090182 -0.302776  0.208301  0.046066 -0.438023
    12 y      -0.419003 -0.178266  0.166445  0.079541  0.279923 -0.087356
    12 z      -0.036818  0.291179 -0.197272 -0.243897 -0.113024  0.236587


  Frequency     454.9995  491.8866  499.6520  577.2503  633.5711  663.1699
  IR Intensity    0.0025    0.0529    0.0120    0.0393    0.0578    0.0131
     in X         0.0000    0.0518    0.0001    0.0385    0.0012    0.0129
     in Y         0.0024    0.0000    0.0043    0.0000    0.0001    0.0000
     in Z         0.0001    0.0011    0.0075    0.0008    0.0566    0.0003
  Raman Intsty    2.7526    0.0000    0.0724    0.0000    0.0046    0.0000

     1 x       0.041475  0.584778 -0.020928 -0.413161  0.011229 -0.049230
     1 y      -0.249368  0.007510  0.134137 -0.005306 -0.079442 -0.000632
     1 z      -0.262713  0.085192  0.131830 -0.060190 -0.070073 -0.007172
     2 x      -0.213931 -0.041103 -0.237296  0.019559  0.273098  0.142109
     2 y       0.071996  0.056444  0.001583 -0.018022  0.016375  0.076253
     2 z       0.123641  0.240010 -0.272389 -0.059584  0.409072  0.414030
     3 x       0.167891  0.030504  0.305020  0.001290 -0.378765  0.256181
     3 y       0.076900 -0.056580  0.008548  0.018289  0.008003 -0.071138
     3 z       0.179266 -0.241555 -0.193384  0.062621  0.314108 -0.356006
     4 x      -0.171611 -0.148755 -0.120295 -0.164636 -0.096464 -0.002606
     4 y      -0.234696 -0.171365 -0.158672 -0.165793 -0.083760 -0.005852
     4 z       0.084260  0.038121  0.114977  0.099208  0.019807 -0.006569
     5 x       0.146289 -0.135960  0.086448 -0.133610  0.088880 -0.004518
     5 y      -0.230613  0.167708 -0.156017  0.161963 -0.081379  0.005760
     5 z       0.130572 -0.079599  0.145095 -0.142657  0.046808  0.005531
     6 x      -0.034578 -0.057114 -0.030365 -0.066942 -0.046879  0.016752
     6 y       0.280933  0.229478  0.211849  0.247873  0.114081 -0.065947
     6 z      -0.028087 -0.046139  0.039156  0.016985 -0.022489 -0.007607
     7 x       0.034078 -0.062113  0.012596 -0.053060  0.048462  0.012222
     7 y       0.281814 -0.231009  0.212401 -0.249414  0.115305  0.066319
     7 z      -0.018085  0.028769  0.045414 -0.034467 -0.008600  0.011828
     8 x      -0.229890 -0.245246  0.283646  0.304514  0.155472  0.136762
     8 y       0.118896  0.089270 -0.165264 -0.176704 -0.106317 -0.100799
     8 z      -0.115980 -0.201007 -0.170150 -0.281160 -0.355667 -0.302385
     9 x      -0.021805  0.290285 -0.045541  0.382951  0.026120 -0.587102
     9 y      -0.068902  0.003728 -0.108353  0.004918  0.064951 -0.007540
     9 z       0.155746  0.042289  0.322160  0.055789 -0.185019 -0.085530
    10 x       0.043577 -0.021097 -0.029678 -0.002792 -0.024203 -0.012821
    10 y       0.122954 -0.000271 -0.074378 -0.000036 -0.050022 -0.000165
    10 z      -0.309963 -0.003073  0.210274 -0.000407  0.170543 -0.001868
    11 x      -0.010977 -0.014145  0.006497 -0.006045  0.005977 -0.016881
    11 y      -0.275725 -0.000182  0.238240 -0.000078  0.201647 -0.000217
    11 z       0.099656 -0.002061 -0.065600 -0.000881 -0.058803 -0.002459
    12 x       0.250356 -0.290070 -0.219073  0.207113 -0.044829  0.042240
    12 y       0.125064 -0.096145 -0.171720  0.183274 -0.108890  0.103098
    12 z      -0.046017  0.123021 -0.243387  0.355694 -0.384847  0.328462


  Frequency     686.5549  701.1315  721.3637  792.7676  797.5595  852.5540
  IR Intensity    0.0688    0.0564    0.0111    0.0001    0.0054    0.0003
     in X         0.0011    0.0552    0.0002    0.0001    0.0000    0.0000
     in Y         0.0220    0.0000    0.0020    0.0000    0.0043    0.0001
     in Z         0.0457    0.0012    0.0089    0.0000    0.0011    0.0002
  Raman Intsty    0.0340    0.0000    0.1659    0.0000    0.0010    0.0021

     1 x      -0.064444 -0.015576  0.022721 -0.009014 -0.000270 -0.074538
     1 y       0.419093 -0.000200 -0.209832 -0.000116  0.007916 -0.504429
     1 z       0.405419 -0.002269 -0.137462 -0.001313  0.001158  0.556121
     2 x      -0.062783 -0.427845 -0.436342 -0.103131  0.183630  0.043935
     2 y       0.050427  0.135668  0.201255 -0.495878  0.476631 -0.016500
     2 z       0.114942  0.167894  0.203437  0.128784 -0.127682 -0.032604
     3 x       0.026098 -0.358621  0.354974 -0.074544 -0.151503 -0.032379
     3 y       0.051568 -0.145769  0.211417  0.493593  0.472329 -0.017480
     3 z       0.127890 -0.282468  0.318717 -0.154668 -0.176506 -0.043722
     4 x       0.034617  0.189480  0.148348  0.206059 -0.219649 -0.009298
     4 y       0.037867  0.189334  0.136845  0.244879 -0.256682 -0.007518
     4 z      -0.020984 -0.097303 -0.079115 -0.111519  0.117473  0.002690
     5 x      -0.028134  0.158549 -0.123008  0.171774  0.183395  0.008330
     5 y       0.037061 -0.184865  0.133360 -0.240026 -0.251507 -0.007292
     5 z      -0.030125  0.148005 -0.118647  0.166561  0.176190  0.005258
     6 x       0.018246  0.073760  0.087668 -0.065612  0.056591 -0.005140
     6 y      -0.081794 -0.262231 -0.295287  0.325316 -0.300670  0.013559
     6 z      -0.003675 -0.004853 -0.007381 -0.005361  0.009143  0.001496
     7 x      -0.014377  0.062692 -0.074465 -0.056212 -0.049268  0.004157
     7 y      -0.082213  0.263984 -0.297369 -0.326878 -0.302031  0.013678
     7 z      -0.008428  0.024731 -0.031001 -0.012387 -0.006279  0.002851
     8 x       0.173069  0.080238  0.034019  0.011864 -0.011340 -0.008604
     8 y      -0.114684 -0.058350 -0.024059  0.000085 -0.001146  0.020558
     8 z      -0.194910 -0.187873 -0.159233 -0.020123  0.028798  0.006896
     9 x      -0.000199  0.369281 -0.010451 -0.049896  0.000297  0.000787
     9 y      -0.000004  0.004743 -0.040327 -0.000641 -0.016098  0.004552
     9 z       0.001365  0.053797  0.075294 -0.007269 -0.000619 -0.005803
    10 x       0.060316  0.001211 -0.010886  0.000553 -0.000286  0.062237
    10 y       0.151471  0.000016 -0.023337  0.000007 -0.001358  0.170393
    10 z      -0.427377  0.000176  0.076780  0.000081  0.002080 -0.442230
    11 x      -0.015692 -0.001283  0.005227 -0.001694 -0.000381  0.016824
    11 y      -0.450367 -0.000017  0.192784 -0.000022 -0.009793  0.412914
    11 z       0.147414 -0.000187 -0.052878 -0.000247  0.003478 -0.151887
    12 x      -0.107336  0.021817  0.013434  0.005629  0.002679  0.005760
    12 y      -0.118285  0.059661 -0.024323  0.000139 -0.000966  0.020742
    12 z      -0.235760  0.202740 -0.162232  0.022671  0.030840  0.008988




--------------------------------------------------------------------------------
  Vibrational properties (for cluster):  Temperature  =       0.000 K
--------------------------------------------------------------------------------
  Zero point energy            =        0.682586 eV
--------------------------------------------------------------------------------

  Phonon density of states : 

--------------------------------------------------------------------------------
 Frequency (cm-1) Density of States                                             
--------------------------------------------------------------------------------
    0.00000 |************************************************************  0.091
   13.32116 |********************                                          0.030
   26.64232 |********************                                          0.030
   39.96347 |                                                              0.000
   53.28463 |********************                                          0.030
   66.60579 |                                                              0.000
   79.92695 |                                                              0.000
   93.24810 |********************                                          0.030
  106.56926 |                                                              0.000
  119.89042 |                                                              0.000
  133.21158 |****************************************                      0.061
  146.53274 |****************************************                      0.061
  159.85389 |                                                              0.000
  173.17505 |****************************************                      0.061
  186.49621 |********************                                          0.030
  199.81737 |                                                              0.000
  213.13853 |****************************************                      0.061
  226.45968 |********************                                          0.030
  239.78084 |********************                                          0.030
  253.10200 |****************************************                      0.061
  266.42316 |                                                              0.000
  279.74431 |                                                              0.000
  293.06547 |                                                              0.000
  306.38663 |********************                                          0.030
  319.70779 |                                                              0.000
  333.02895 |                                                              0.000
  346.35010 |                                                              0.000
  359.67126 |                                                              0.000
  372.99242 |                                                              0.000
  386.31358 |                                                              0.000
  399.63473 |                                                              0.000
  412.95589 |                                                              0.000
  426.27705 |                                                              0.000
  439.59821 |                                                              0.000
  452.91937 |********************                                          0.030
  466.24052 |                                                              0.000
  479.56168 |********************                                          0.030
  492.88284 |********************                                          0.030
  506.20400 |                                                              0.000
  519.52516 |                                                              0.000
  532.84631 |                                                              0.000
  546.16747 |                                                              0.000
  559.48863 |                                                              0.000
  572.80979 |********************                                          0.030
  586.13094 |                                                              0.000
  599.45210 |                                                              0.000
  612.77326 |                                                              0.000
  626.09442 |********************                                          0.030
  639.41558 |                                                              0.000
  652.73673 |********************                                          0.030
  666.05789 |                                                              0.000
  679.37905 |********************                                          0.030
  692.70021 |********************                                          0.030
  706.02136 |                                                              0.000
  719.34252 |********************                                          0.030
  732.66368 |                                                              0.000
  745.98484 |                                                              0.000
  759.30600 |                                                              0.000
  772.62715 |                                                              0.000
  785.94831 |****************************************                      0.061
  799.26947 |                                                              0.000
  812.59063 |                                                              0.000
  825.91179 |                                                              0.000
  839.23294 |********************                                          0.030
--------------------------------------------------------------------------------



  Time to end of optimisation =       0.0569 seconds


  Peak dynamic memory used =       0.65 MB 


  Timing analysis for GULP :

--------------------------------------------------------------------------------
  Task / Subroutine                                          Time (Seconds)
--------------------------------------------------------------------------------
  Calculation of real space energy and derivatives                0.0020
  Calculation of phonons                                          0.0015
  Calculation and manipulation of Hessian matrix                  0.0013
--------------------------------------------------------------------------------
  Total CPU time                                                  0.0569
--------------------------------------------------------------------------------


  Job Finished at 14:38.58 25th May        2022                               

