------------------------------------------------------------
          Invoking FHI-aims ...

          When using FHI-aims, please cite the following reference:

            Volker Blum, Ralf Gehrke, Felix Hanke, Paula Havu,
            Ville Havu, Xinguo Ren, Karsten Reuter, and Matthias Scheffler,
            'Ab Initio Molecular Simulations with Numeric Atom-Centered Orbitals',
            Computer Physics Communications 180, 2175-2196 (2009)

          In addition, many other developments in FHI-aims are likely important for
          your particular application. A partial list of references is given at the end of
          this file. Thank you for giving credit to the authors of these developments.

          For any questions about FHI-aims, please visit our slack channel at

            https://fhi-aims.slack.com

          and our main development and support site at

            https://aims-git.rz-berlin.mpg.de .

          The latter site, in particular, has a wiki to collect information, as well
          as an issue tracker to log discussions, suggest improvements, and report issues
          or bugs. https://aims-git.rz-berlin.mpg.de is also the main development site
          of the project and all new and updated code versions can be obtained there.
          Please send an email to aims-coordinators@fhi-berlin.mpg.de and we will add
          you to these sites. They are for you and everyone is welcome there.

------------------------------------------------------------



  Date     :  20220517, Time     :  120346.363
  Time zero on CPU 1             :   0.389410000000000E-01  s.
  Internal wall clock time zero  :           422021026.363  s.

  FHI-aims created a unique identifier for this run for later identification
  aims_uuid : 6DD6FF74-683C-4AB8-A4A6-EAB3B0E692F5

  Build configuration of the current instance of FHI-aims
  -------------------------------------------------------
  FHI-aims version      : 210914
  Commit number         : GITDIR-NOTFOUND
  CMake host system     : Linux-3.10.0-693.17.1.el7.x86_64
  CMake version         : 3.21.1
  Fortran compiler      : /shared/ucl/apps/intel/2018.Update3/impi/2018.3.222/intel64/bin/mpiifort (Intel) version 18.0.3.20180410
  Fortran compiler flags: -O3 -ip -fp-model precise
  C compiler            : /shared/ucl/apps/intel/2018.Update3/compilers_and_libraries_2018.3.222/linux/bin/intel64/icc (Intel) version 18.0.3.20180410
  C compiler flags      : -O3 -ip -fp-model precise -std=gnu99
  ELPA2 kernel          : AVX2
  Using MPI
  Using ScaLAPACK
  Using LibXC
  Using i-PI
  Using RLSY
  Linking against: /shared/ucl/apps/intel/2019.Update5/compilers_and_libraries_2019.5.281/linux/mkl/lib/intel64/libmkl_intel_lp64.so
                   /shared/ucl/apps/intel/2019.Update5/compilers_and_libraries_2019.5.281/linux/mkl/lib/intel64/libmkl_sequential.so
                   /shared/ucl/apps/intel/2019.Update5/compilers_and_libraries_2019.5.281/linux/mkl/lib/intel64/libmkl_core.so
                   /shared/ucl/apps/intel/2019.Update5/compilers_and_libraries_2019.5.281/linux/mkl/lib/intel64/libmkl_blacs_intelmpi_lp64.so
                   /shared/ucl/apps/intel/2019.Update5/compilers_and_libraries_2019.5.281/linux/mkl/lib/intel64/libmkl_scalapack_lp64.so

  Using       24 parallel tasks.
  Task        0 on host node-k98i-010 reporting.
  Task        1 on host node-k98i-010 reporting.
  Task        2 on host node-k98i-010 reporting.
  Task        3 on host node-k98i-010 reporting.
  Task        4 on host node-k98i-010 reporting.
  Task        5 on host node-k98i-010 reporting.
  Task        6 on host node-k98i-010 reporting.
  Task        7 on host node-k98i-010 reporting.
  Task        8 on host node-k98i-010 reporting.
  Task        9 on host node-k98i-010 reporting.
  Task       10 on host node-k98i-010 reporting.
  Task       11 on host node-k98i-010 reporting.
  Task       12 on host node-k98i-010 reporting.
  Task       13 on host node-k98i-010 reporting.
  Task       14 on host node-k98i-010 reporting.
  Task       15 on host node-k98i-010 reporting.
  Task       16 on host node-k98i-010 reporting.
  Task       17 on host node-k98i-010 reporting.
  Task       18 on host node-k98i-010 reporting.
  Task       19 on host node-k98i-010 reporting.
  Task       20 on host node-k98i-010 reporting.
  Task       21 on host node-k98i-010 reporting.
  Task       22 on host node-k98i-010 reporting.
  Task       23 on host node-k98i-010 reporting.

  Performing system and environment tests:
  | Environment variable OMP_NUM_THREADS correctly set to 1.
  | Checking for ScaLAPACK...
  | Testing pdtran()...
  | All pdtran() tests passed.

  Obtaining array dimensions for all initial allocations:
  
  -----------------------------------------------------------------------
  Parsing control.in (first pass over file, find array dimensions only).
  The contents of control.in will be repeated verbatim below
  unless switched off by setting 'verbatim_writeout .false.' .
  in the first line of control.in .
  -----------------------------------------------------------------------
  
  #########################################################################################  Physical model
  #########################################################################################
  xc                 pbesol
  spin               none
  relativistic       atomic_zora scalar
  charge             0.0
  #  SCF convergence
  occupation_type    gaussian 0.01
  mixer              pulay
  n_max_pulay        10
  charge_mix_param   0.5
  sc_accuracy_rho    1E-5
  sc_accuracy_eev    1E-3
  sc_accuracy_etot   1E-6
  sc_accuracy_forces 1E-4
  sc_iter_limit      1500
  #  Relaxation
  #relax_geometry   bfgs 1.e-3
  
  ################################################################################
  #
  #  FHI-aims code project
  #  VB, Fritz-Haber Institut, 2009
  #
  #  Suggested "light" defaults for Al atom (to be pasted into control.in file)
  #  Be sure to double-check any results obtained with these settings for post-processing,
  #  e.g., with the "tight" defaults and larger basis sets.
  #
  ################################################################################
    species        Al
  #     global species definitions
      nucleus             13
      mass                26.9815386
  #
      l_hartree           4
  #
      cut_pot             3.5          1.5  1.0
      basis_dep_cutoff    1e-4
  #
      radial_base         41 5.0
      radial_multiplier   1
      angular_grids       specified
        division   0.6594  110
        division   0.8170  194
        division   0.9059  302
  #      division   1.0363  434
  #      division   1.1443  590
  #      division   1.2621  770
  #      division   2.8177  974
  #      outer_grid   974
        outer_grid   302
  ################################################################################
  #
  #  Definition of "minimal" basis
  #
  ################################################################################
  #     valence basis states
      valence      3  s   2.
      valence      3  p   1.
  #     ion occupancy
      ion_occ      3  s   1.
      ion_occ      2  p   6.
  ################################################################################
  #
  #  Suggested additional basis functions. For production calculations,
  #  uncomment them one after another (the most important basis functions are
  #  listed first).
  #
  #  Constructed for dimers: 2.0 A, 2.5 A, 3.0 A, 3.75 A, 4.5 A
  #
  ################################################################################
  #  "First tier" - improvements: -199.47 meV to -10.63 meV
       ionic 3 d auto
       ionic 3 p auto
  #     hydro 4 f 4.7
       ionic 3 s auto
  #  "Second tier" - improvements: -5.35 meV to -1.57 meV
  #     hydro 5 g 7
  #     hydro 3 d 6
  #     hydro 2 s 11.6
  #     hydro 2 p 0.9
  #  "Third tier" - improvements: -0.63 meV to -0.20 meV
  #     hydro 5 f 7.6
  #     hydro 4 p 7.2
  #     hydro 4 s 3.7
  #     hydro 4 d 7.6
  #  "Fourth tier" - improvements: -0.17 meV to -0.08 meV
  #     hydro 4 d 13.6
  #     hydro 5 g 11.2
  #     hydro 4 d 0.9
  #     hydro 1 s 0.4
  #     hydro 4 p 0.1
  #     hydro 5 f 9.8
  #  Further basis functions that fell out of the optimization - noise level...
  #     hydro 4 p 5
  
  ################################################################################
  #
  #  FHI-aims code project
  #  VB, Fritz-Haber Institut, 2009
  #
  #  Suggested "light" defaults for F atom (to be pasted into control.in file)
  #  Be sure to double-check any results obtained with these settings for post-processing,
  #  e.g., with the "tight" defaults and larger basis sets.
  #
  ################################################################################
    species        F
  #     global species definitions
      nucleus             9
      mass                18.9984032
  #
      l_hartree           4
  #
      cut_pot             3.5  1.5  1.0
      basis_dep_cutoff    1e-4
  #
      radial_base         37 5.0
      radial_multiplier   1
      angular_grids specified
        division   0.4014  110
        division   0.5291  194
        division   0.6019  302
  #      division   0.6814  434
  #      division   0.7989  590
  #      division   0.8965  770
  #      division   1.3427  974
  #      outer_grid   974
        outer_grid   302
  ################################################################################
  #
  #  Definition of "minimal" basis
  #
  ################################################################################
  #     valence basis states
      valence      2  s   2.
      valence      2  p   5.
  #     ion occupancy
      ion_occ      2  s   1.
      ion_occ      2  p   4.
  ################################################################################
  #
  #  Suggested additional basis functions. For production calculations,
  #  uncomment them one after another (the most important basis functions are
  #  listed first).
  #
  #  Constructed for dimers: 1.2 A, 1.418 A, 1.75 A, 2.25 A, 3.25 A
  #
  ################################################################################
  #  "First tier" - improvements: -149.44 meV to -45.88 meV
       hydro 2 p 1.7
       hydro 3 d 7.4
       hydro 3 s 6.8
  #  "Second tier" - improvements: -12.96 meV to -1.56 meV
  #     hydro 4 f 11.2
  #     ionic 2 p auto
  #     hydro 1 s 0.75
  #     hydro 4 d 8.8
  #     hydro 5 g 16.8
  #  "Third tier" - improvements: -0.58 meV to -0.05 meV
  #     hydro 3 p 6.2
  #     hydro 3 s 3.2
  #     hydro 4 f 9.6
  #     hydro 3 s 19.6
  #     hydro 4 d 8.6
  #     hydro 5 g 14.4
  # Further basis functions: -0.05 meV and below
  #     hydro 3 p 4.2
  
  -----------------------------------------------------------------------
  Completed first pass over input file control.in .
  -----------------------------------------------------------------------
  
  
  -----------------------------------------------------------------------
  Parsing geometry.in (first pass over file, find array dimensions only).
  The contents of geometry.in will be repeated verbatim below
  unless switched off by setting 'verbatim_writeout .false.' .
  in the first line of geometry.in .
  -----------------------------------------------------------------------
  
  atom -0.020360613 1.549202572 1.639408620 Al
  atom 2.591398096 2.587361025 1.896537575 Al
  atom 1.221821684 2.596467584 -0.596555654 Al
  atom 1.017694378 2.967617536 2.789577863 F
  atom -1.455221883 2.597332522 2.196806186 F
  atom -0.429338471 0.118028734 2.769041230 F
  atom 1.402354353 0.907388593 2.051361265 F
  atom 2.865743345 1.953607853 -0.210368416 F
  atom 1.156491809 3.055504933 -2.326973812 F
  atom 1.657675894 3.975331587 0.422081267 F
  atom 4.245136968 3.191966577 2.535512180 F
  atom 0.195723609 1.899820410 0.706568493 F
  
  -----------------------------------------------------------------------
  Completed first pass over input file geometry.in .
  -----------------------------------------------------------------------
  

  Basic array size parameters:
  | Number of species                 :        2
  | Number of atoms                   :       12
  | Max. basis fn. angular momentum   :        2
  | Max. atomic/ionic basis occupied n:        3
  | Max. number of basis fn. types    :        3
  | Max. radial fns per species/type  :        5
  | Max. logarithmic grid size        :     1340
  | Max. radial integration grid size :       41
  | Max. angular integration grid size:      302
  | Max. angular grid division number :        8
  | Radial grid for Hartree potential :     1340
  | Number of spin channels           :        1

------------------------------------------------------------
          Reading file control.in.
------------------------------------------------------------
  XC: Using PBEsol gradient-corrected functionals.
  Spin treatment: No spin polarisation.
  Scalar relativistic treatment of kinetic energy: on-site free-atom approximation to ZORA.
  Charge =   0.000000E+00: Neutral system requested explicitly.
  Occupation type: Gaussian broadening, width =   0.100000E-01 eV.
  Using pulay charge density mixing.
  Pulay mixing - number of memorized iterations:   10
  Charge density mixing - mixing parameter:     0.5000
  Convergence accuracy of self-consistent charge density:  0.1000E-04
  Convergence accuracy of sum of eigenvalues:  0.1000E-02
  Convergence accuracy of total energy:  0.1000E-05
  Convergence accuracy of forces:  0.1000E-03
  Maximum number of s.-c. iterations  :  1500
 
  Reading configuration options for species Al                  .
  | Found nuclear charge :  13.0000
  | Found atomic mass :    26.9815386000000      amu
  | Found l_max for Hartree potential  :   4
  | Found cutoff potl. onset [A], width [A], scale factor :    3.50000    1.50000    1.00000
  | Threshold for basis-dependent cutoff potential is   0.100000E-03
  | Found data for basic radial integration grid :    41 points, outermost radius =    5.000 A
  | Found multiplier for basic radial grid :   1
  | Found angular grid specification: user-specified.
  | Specified grid contains     4 separate shells.
  | Check grid settings after all constraints further below.
  | Found free-atom valence shell :  3 s   2.000
  | Found free-atom valence shell :  3 p   1.000
  | Found free-ion valence shell :  3 s   1.000
  | Found free-ion valence shell :  2 p   6.000
  | Found ionic basis function :  3 d , default cutoff radius.
  | Found ionic basis function :  3 p , default cutoff radius.
  | Found ionic basis function :  3 s , default cutoff radius.
  Species Al                  : Missing cutoff potential type.
  Defaulting to exp(1/x)/(1-x)^2 type cutoff potential.
  Species Al: No 'logarithmic' tag. Using default grid for free atom:
  | Default logarithmic grid data [bohr] : 0.1000E-03 0.1000E+03 0.1012E+01
  | Will include ionic basis functions of  2.0-fold positive Al                   ion.
  Species Al: On-site basis accuracy parameter (for Gram-Schmidt orthonormalisation) not specified.
  Using default value basis_acc =  0.1000000E-03.
  Species Al                  : Using default innermost maximum threshold i_radial=  2 for radial functions.
  Species Al                  : Default cutoff onset for free atom density etc. : 0.35000000E+01 AA.
  Species Al                  : Basic radial grid will be enhanced according to radial_multiplier =   1, to contain    41 grid points.
 
  Reading configuration options for species F                   .
  | Found nuclear charge :   9.0000
  | Found atomic mass :    18.9984032000000      amu
  | Found l_max for Hartree potential  :   4
  | Found cutoff potl. onset [A], width [A], scale factor :    3.50000    1.50000    1.00000
  | Threshold for basis-dependent cutoff potential is   0.100000E-03
  | Found data for basic radial integration grid :    37 points, outermost radius =    5.000 A
  | Found multiplier for basic radial grid :   1
  | Found angular grid specification: user-specified.
  | Specified grid contains     4 separate shells.
  | Check grid settings after all constraints further below.
  | Found free-atom valence shell :  2 s   2.000
  | Found free-atom valence shell :  2 p   5.000
  | Found free-ion valence shell :  2 s   1.000
  | Found free-ion valence shell :  2 p   4.000
  | Found hydrogenic basis function :  2 p   1.700
  | Found hydrogenic basis function :  3 d   7.400
  | Found hydrogenic basis function :  3 s   6.800
  Species F                   : Missing cutoff potential type.
  Defaulting to exp(1/x)/(1-x)^2 type cutoff potential.
  Species F : No 'logarithmic' tag. Using default grid for free atom:
  | Default logarithmic grid data [bohr] : 0.1000E-03 0.1000E+03 0.1012E+01
  Species F : On-site basis accuracy parameter (for Gram-Schmidt orthonormalisation) not specified.
  Using default value basis_acc =  0.1000000E-03.
  Species F                   : Using default innermost maximum threshold i_radial=  2 for radial functions.
  Species F                   : Default cutoff onset for free atom density etc. : 0.35000000E+01 AA.
  Species F                   : Basic radial grid will be enhanced according to radial_multiplier =   1, to contain    37 grid points.
 
  Finished reading input file 'control.in'.
 
------------------------------------------------------------


------------------------------------------------------------
          Reading geometry description geometry.in.
------------------------------------------------------------
  | The smallest distance between any two atoms is         1.01971367 AA.
  | The first atom of this pair is atom number                      1 .
  | The second atom of this pair is atom number                    12 .
  Input structure read successfully.
  The structure contains       12 atoms,  and a total of        120.000 electrons.

  Input geometry:
  | No unit cell requested.
  | Atomic structure:
  |       Atom                x [A]            y [A]            z [A]
  |    1: Species Al           -0.02036061        1.54920257        1.63940862
  |    2: Species Al            2.59139810        2.58736102        1.89653757
  |    3: Species Al            1.22182168        2.59646758       -0.59655565
  |    4: Species F             1.01769438        2.96761754        2.78957786
  |    5: Species F            -1.45522188        2.59733252        2.19680619
  |    6: Species F            -0.42933847        0.11802873        2.76904123
  |    7: Species F             1.40235435        0.90738859        2.05136127
  |    8: Species F             2.86574334        1.95360785       -0.21036842
  |    9: Species F             1.15649181        3.05550493       -2.32697381
  |   10: Species F             1.65767589        3.97533159        0.42208127
  |   11: Species F             4.24513697        3.19196658        2.53551218
  |   12: Species F             0.19572361        1.89982041        0.70656849

 
  Finished reading input file 'control.in'.
 

------------------------------------------------------------
          Reading geometry description geometry.in.
------------------------------------------------------------
 
  Consistency checks for stacksize environment parameter are next.
 
  | Maximum stacksize for task 0: unlimited
  | Maximum stacksize for task 1: unlimited
  | Maximum stacksize for task 2: unlimited
  | Maximum stacksize for task 3: unlimited
  | Maximum stacksize for task 4: unlimited
  | Maximum stacksize for task 5: unlimited
  | Maximum stacksize for task 6: unlimited
  | Maximum stacksize for task 7: unlimited
  | Maximum stacksize for task 8: unlimited
  | Maximum stacksize for task 9: unlimited
  | Maximum stacksize for task 10: unlimited
  | Maximum stacksize for task 11: unlimited
  | Maximum stacksize for task 12: unlimited
  | Maximum stacksize for task 13: unlimited
  | Maximum stacksize for task 14: unlimited
  | Maximum stacksize for task 15: unlimited
  | Maximum stacksize for task 16: unlimited
  | Maximum stacksize for task 17: unlimited
  | Maximum stacksize for task 18: unlimited
  | Maximum stacksize for task 19: unlimited
  | Maximum stacksize for task 20: unlimited
  | Maximum stacksize for task 21: unlimited
  | Maximum stacksize for task 22: unlimited
  | Maximum stacksize for task 23: unlimited
  | Current stacksize for task 0: unlimited
  | Current stacksize for task 1: unlimited
  | Current stacksize for task 2: unlimited
  | Current stacksize for task 3: unlimited
  | Current stacksize for task 4: unlimited
  | Current stacksize for task 5: unlimited
  | Current stacksize for task 6: unlimited
  | Current stacksize for task 7: unlimited
  | Current stacksize for task 8: unlimited
  | Current stacksize for task 9: unlimited
  | Current stacksize for task 10: unlimited
  | Current stacksize for task 11: unlimited
  | Current stacksize for task 12: unlimited
  | Current stacksize for task 13: unlimited
  | Current stacksize for task 14: unlimited
  | Current stacksize for task 15: unlimited
  | Current stacksize for task 16: unlimited
  | Current stacksize for task 17: unlimited
  | Current stacksize for task 18: unlimited
  | Current stacksize for task 19: unlimited
  | Current stacksize for task 20: unlimited
  | Current stacksize for task 21: unlimited
  | Current stacksize for task 22: unlimited
  | Current stacksize for task 23: unlimited
 
  Consistency checks for the contents of control.in are next.
 
  MPI_IN_PLACE appears to work with this MPI implementation.
  | Keeping use_mpi_in_place .true. (see manual).
  Target number of points in a grid batch is not set. Defaulting to  100
  Method for grid partitioning is not set. Defaulting to parallel hash+maxmin partitioning.
  Batch size limit is not set. Defaulting to    200
  By default, will store active basis functions for each batch.
  If in need of memory, prune_basis_once .false. can be used to disable this option.
  communication_type for Hartree potential was not specified.
  Defaulting to calc_hartree .
  Pulay mixer: Number of initial linear mixing iterations not set.
  Defaulting to    0 iterations.
  Work space size for distributed Hartree potential not set.
  Defaulting to   0.200000E+03 MB.
  Algorithm-dependent basis array size parameters:
  | n_max_pulay                         :       10
  Presetting      1001 iterations before the initial mixing cycle
  is restarted anyway using the sc_init_iter criterion / keyword.
  Presetting a factor      1.000 between actual scf density residual
  and density convergence criterion sc_accuracy_rho below which sc_init_iter
  takes no effect.
  Geometry relaxation not requested: no relaxation will be performed.
  Forces evaluation will include force correction term due to incomplete self-consistency (default).
  Handling of forces: Unphysical translation and rotation will be removed from forces.
  No accuracy limit for integral partition fn. given. Defaulting to  0.1000E-14.
  No threshold value for u(r) in integrations given. Defaulting to  0.1000E-05.
  No accuracy for occupation numbers given. Defaulting to  0.1000E-12.
  No threshold value for occupation numbers given. Defaulting to  0.0000E+00.
  No accuracy for fermi level given. Defaulting to  0.1000E-19.
  Maximum # of iterations to find E_F not set. Defaulting to  200.
  Preferred method for the eigenvalue solver ('KS_method') not specified in 'control.in'.
  Calling BLACS routine to test compilation state
  Since ScaLAPACK support is enabled, defaulting to ELPA (via ELSI).
  Will not use alltoall communication since running on < 1024 CPUs.
  Threshold for basis singularities not set.
  Default threshold for basis singularities:  0.1000E-04
  partition_type (choice of integration weights) for integrals was not specified.
  | Using a version of the partition function of Stratmann and coworkers ('stratmann_sparse').
  | At each grid point, the set of atoms used to build the partition table is smoothly restricted to
  | only those atoms whose free-atom density would be non-zero at that grid point.
  Partitioning for Hartree potential was not defined. Using partition_type for integrals.
  | Adjusted default value of keyword multip_moments_threshold to:       0.10000000E-11
  | This value may affect high angular momentum components of the Hartree potential in periodic systems.
  No q(lm)/r^(l+1) cutoff set for long-range Hartree potential.
  | Using default value of  0.100000E-09 .
  | Verify using the multipole_threshold keyword.
  Defaulting to new monopole extrapolation.
  Density update method: automatic selection selected.
  Charge integration errors on the 3D integration grid will be compensated
  by explicit normalization and distribution of residual charges.
  Use the "compensate_multipole_errors" flag to change this behaviour.
  Set 'collect_eigenvectors' to be '.true.' for use_density_matrix .false.
 
  Consistency checks for the contents of geometry.in are next.
 
  Number of empty states per atom not set in control.in - providing a guess from actual geometry.
  | Total number of empty states used during s.c.f. cycle:       36
  If you use a very high smearing, use empty_states (per atom!) in control.in to increase this value.

  Structure-dependent array size parameters: 
  | Maximum number of distinct radial functions  :       14
  | Maximum number of basis functions            :      180
  | Number of Kohn-Sham states (occupied + empty):       96
------------------------------------------------------------

------------------------------------------------------------
          Preparing all fixed parts of the calculation.
------------------------------------------------------------
  Determining machine precision:
    2.225073858507201E-308
  Setting up grids for atomic and cluster calculations.

  Creating wave function, potential, and density for free atoms.

  Species: Al

  List of occupied orbitals and eigenvalues:
    n    l              occ      energy [Ha]    energy [eV]
    1    0           2.0000       -55.621123     -1513.5278
    2    0           2.0000        -3.957030      -107.6763
    3    0           2.0000        -0.272233        -7.4078
    2    1           6.0000        -2.540949       -69.1427
    3    1           1.0000        -0.083300        -2.2667


  Species: F

  List of occupied orbitals and eigenvalues:
    n    l              occ      energy [Ha]    energy [eV]
    1    0           2.0000       -24.399611      -663.9472
    2    0           2.0000        -1.098702       -29.8972
    2    1           5.0000        -0.408210       -11.1080


  Adding cutoff potential to free-atom effective potential.
  Creating fixed part of basis set: Ionic, confined, hydrogenic.
 
  Al                   ion:

  List of free ionic orbitals and eigenvalues:
    n    l      energy [Ha]    energy [eV]
    1    0       -56.418846     -1535.2349
    2    0        -4.732717      -128.7838
    3    0        -0.872690       -23.7471
    2    1        -3.317230       -90.2664


  List of ionic basis orbitals and eigenvalues:
    n    l      energy [Ha]    energy [eV]    outer radius [A]
    3    2        -0.346815        -9.4373       4.594041
    3    1        -0.631870       -17.1940       4.538221
    3    0        -0.872657       -23.7462       4.538221

 
  F                    hydrogenic:
 
  List of hydrogenic basis orbitals: 
    n    l      effective z      eigenvalue [eV]  inner max. [A]     outer max. [A]     outer radius [A]   
    2    1         1.700000        -9.7616           1.243167           1.243167           4.598524
    3    2         7.400000       -82.7828           0.642437           0.642437           3.305741
    3    0         6.800000       -69.9026           0.057798           1.022307           3.781556
 
  Creating atomic-like basis functions for current effective potential.

  Species Al                  :

  List of atomic basis orbitals and eigenvalues:
    n    l      energy [Ha]    energy [eV]    outer radius [A]
    1    0       -55.621123     -1513.5278       0.850197
    2    0        -3.957030      -107.6763       3.144911
    3    0        -0.272233        -7.4078       4.594041
    2    1        -2.540949       -69.1427       3.731966
    3    1        -0.083300        -2.2667       4.594041


  Species F                   :

  List of atomic basis orbitals and eigenvalues:
    n    l      energy [Ha]    energy [eV]    outer radius [A]
    1    0       -24.399611      -663.9472       1.258458
    2    0        -1.098702       -29.8972       4.325857
    2    1        -0.408210       -11.1080       4.487453

  Assembling full basis from fixed parts.
  | Species Al :   atomic orbital   1 s accepted.
  | Species Al :   atomic orbital   2 s accepted.
  | Species Al :    ionic orbital   3 s accepted.
  | Species Al :   atomic orbital   3 s accepted.
  | Species Al :   atomic orbital   2 p accepted.
  | Species Al :    ionic orbital   3 p accepted.
  | Species Al :   atomic orbital   3 p accepted.
  | Species Al :    ionic orbital   3 d accepted.
  | Species F :   atomic orbital   1 s accepted.
  | Species F :    hydro orbital   3 s accepted.
  | Species F :   atomic orbital   2 s accepted.
  | Species F :   atomic orbital   2 p accepted.
  | Species F :    hydro orbital   2 p accepted.
  | Species F :    hydro orbital   3 d accepted.
 
  Basis size parameters after reduction:
  | Total number of radial functions:       14
  | Total number of basis functions :      180
 
  Per-task memory consumption for arrays in subroutine allocate_ext:
  |           4.807768MB.
  Testing on-site integration grid accuracy.
  |  Species  Function  <phi|h_atom|phi> (log., in eV)  <phi|h_atom|phi> (rad., in eV)
           1        1              -1513.5277717935              -1513.5271881332
           1        2               -107.6762691836               -107.6762662489
           1        3                 -6.9467474784                 -6.9471269649
           1        4                  5.5771951849                  5.4862107220 ***
           1        5                -69.1427313144                -69.1427312731
           1        6                 -1.5197375330                 -1.5230432022
           1        7                  6.8210948310                  6.5529872240 ***
           1        8                  4.3216540965                  4.2851170187 ***
           2        9               -663.9471986398               -663.9470363334
           2       10                 16.8514011578                 16.8512525338
           2       11                -28.4490593856                -28.4490661472
           2       12                -11.1080115307                -11.1080620173
           2       13                  7.1940182175                  7.1685154137
           2       14                 44.8544281765                 44.8543763625
 * Note: Onsite integrals marked "***" above are less accurate than
 * onsite_accuracy_threshold =    0.03000 eV. Usually, this is harmless.
 * When in doubt, tighten the "radial" and/or "radial_multiplier" flags to check.

  Preparing densities etc. for the partition functions (integrals / Hartree potential).

  Preparations completed.
  max(cpu_time)          :      0.184 s.
  Wall clock time (cpu1) :      0.184 s.
------------------------------------------------------------

------------------------------------------------------------
          Begin self-consistency loop: Initialization.

          Date     :  20220517, Time     :  120346.591
------------------------------------------------------------

  Initializing index lists of integration centers etc. from given atomic structure:
  | Number of centers in hartree potential         :        12
  | Number of centers in hartree multipole         :        12
  | Number of centers in electron density summation:        12
  | Number of centers in basis integrals           :        12
  | Number of centers in integrals                 :        12
  | Number of centers in hamiltonian               :        12
  * Using 24 tasks for Scalapack Eigenvalue solver.
  Detailed listing of tasks and assigned k-points:
  (for non-periodic systems, the "k-point" denotes an internal label only)
   Task     0 k-point     1 on node-k98i-010
   Task     1 k-point     1 on node-k98i-010
   Task     2 k-point     1 on node-k98i-010
   Task     3 k-point     1 on node-k98i-010
   Task     4 k-point     1 on node-k98i-010
   Task     5 k-point     1 on node-k98i-010
   Task     6 k-point     1 on node-k98i-010
   Task     7 k-point     1 on node-k98i-010
   Task     8 k-point     1 on node-k98i-010
   Task     9 k-point     1 on node-k98i-010
   Task    10 k-point     1 on node-k98i-010
   Task    11 k-point     1 on node-k98i-010
   Task    12 k-point     1 on node-k98i-010
   Task    13 k-point     1 on node-k98i-010
   Task    14 k-point     1 on node-k98i-010
   Task    15 k-point     1 on node-k98i-010
   Task    16 k-point     1 on node-k98i-010
   Task    17 k-point     1 on node-k98i-010
   Task    18 k-point     1 on node-k98i-010
   Task    19 k-point     1 on node-k98i-010
   Task    20 k-point     1 on node-k98i-010
   Task    21 k-point     1 on node-k98i-010
   Task    22 k-point     1 on node-k98i-010
   Task    23 k-point     1 on node-k98i-010
  Tasks:    24 split into      6 X      4 BLACS grid
  Calculating block size based on n_basis =          180  max_nprow =            6  max_npcol =            4
  ScaLAPACK block size set to:           16
  Allocating        0.012 MB for ovlp
  Allocating        0.012 MB for ham
  Allocating        0.012 MB for eigenvec
  Required Scalapack workspace - INTEGER:            1  REAL:             1
  Partitioning the integration grid into batches with parallel hashing+maxmin method.
  | Number of batches:     1122
  | Maximal batch size:     199
  | Minimal batch size:      18
  | Average batch size:      81.925
  | Standard deviation of batch sizes:      18.226

  Integration load balanced across    24 MPI tasks.
  Work distribution over tasks is as follows:
  Task     0 has       3917 integration points.
  Task     1 has       3867 integration points.
  Task     2 has       3866 integration points.
  Task     3 has       3782 integration points.
  Task     4 has       3845 integration points.
  Task     5 has       3784 integration points.
  Task     6 has       3845 integration points.
  Task     7 has       3765 integration points.
  Task     8 has       3843 integration points.
  Task     9 has       3846 integration points.
  Task    10 has       3861 integration points.
  Task    11 has       3850 integration points.
  Task    12 has       3860 integration points.
  Task    13 has       3773 integration points.
  Task    14 has       3785 integration points.
  Task    15 has       3851 integration points.
  Task    16 has       3911 integration points.
  Task    17 has       3782 integration points.
  Task    18 has       3778 integration points.
  Task    19 has       3840 integration points.
  Task    20 has       3779 integration points.
  Task    21 has       3849 integration points.
  Task    22 has       3870 integration points.
  Task    23 has       3771 integration points.
  Initializing partition tables, free-atom densities, potentials, etc. across the integration grid (initialize_grid_storage).
  | initialize_grid_storage: Actual outermost partition radius vs. multipole_radius_free
  | (-- VB: in principle, multipole_radius_free should be larger, hence this output)
  | Species        1: Confinement radius =              4.999999999999999 AA, multipole_radius_free =              5.004487022111096 AA.
  | Species        1: outer_partition_radius set to              5.004487022111096 AA .
  | Species        2: Confinement radius =              4.999999999999999 AA, multipole_radius_free =              5.009370088163274 AA.
  | Species        2: outer_partition_radius set to              5.009370088163274 AA .
  | The sparse table of interatomic distances needs          1.64 kbyte instead of         1.15 kbyte of memory.
  | Using the partition_type stratmann_smoother will reduce your memory usage.
  | Net number of integration points:    91920
  | of which are non-zero points    :    84502
  Renormalizing the initial density to the exact electron count on the 3D integration grid.
  | Initial density: Formal number of electrons (from input files) :     120.0000000000
  | Integrated number of electrons on 3D grid     :     120.0000612201
  | Charge integration error                      :       0.0000612201
  | Normalization factor for density and gradient :       0.9999994898
  Renormalizing the free-atom superposition density to the exact electron count on the 3D integration grid.
  | Formal number of electrons (from input files) :     120.0000000000
  | Integrated number of electrons on 3D grid     :     120.0000612201
  | Charge integration error                      :       0.0000612201
  | Normalization factor for density and gradient :       0.9999994898
  Obtaining max. number of non-zero basis functions in each batch (get_n_compute_maxes).
  | Maximal number of non-zero basis functions:      165 in task     0
  | Maximal number of non-zero basis functions:      164 in task     1
  | Maximal number of non-zero basis functions:      171 in task     2
  | Maximal number of non-zero basis functions:      170 in task     3
  | Maximal number of non-zero basis functions:      164 in task     4
  | Maximal number of non-zero basis functions:      165 in task     5
  | Maximal number of non-zero basis functions:      172 in task     6
  | Maximal number of non-zero basis functions:      164 in task     7
  | Maximal number of non-zero basis functions:      171 in task     8
  | Maximal number of non-zero basis functions:      171 in task     9
  | Maximal number of non-zero basis functions:      171 in task    10
  | Maximal number of non-zero basis functions:      166 in task    11
  | Maximal number of non-zero basis functions:      165 in task    12
  | Maximal number of non-zero basis functions:      164 in task    13
  | Maximal number of non-zero basis functions:      166 in task    14
  | Maximal number of non-zero basis functions:      164 in task    15
  | Maximal number of non-zero basis functions:      172 in task    16
  | Maximal number of non-zero basis functions:      171 in task    17
  | Maximal number of non-zero basis functions:      165 in task    18
  | Maximal number of non-zero basis functions:      165 in task    19
  | Maximal number of non-zero basis functions:      166 in task    20
  | Maximal number of non-zero basis functions:      166 in task    21
  | Maximal number of non-zero basis functions:      171 in task    22
  | Maximal number of non-zero basis functions:      171 in task    23
  Selecting the method for density update.
  Loop over occupied states selected for charge density update.
  Allocating        0.132 MB for KS_eigenvector
  Integrating Hamiltonian matrix: batch-based integration.
  Time summed over all CPUs for integration: real work        0.764 s, elapsed        0.805 s
  Integrating overlap matrix.
  Time summed over all CPUs for integration: real work        0.294 s, elapsed        0.314 s
  Deallocating overlap matrix.

  Updating Kohn-Sham eigenvalues and eigenvectors using ELSI and the ELPA eigensolver.
  Overlap matrix is not singular
  | Lowest and highest eigenvalues :  0.9601E-03,  0.6011E+01
  Finished singularity check of overlap matrix
  | Time :     0.004 s
  Starting ELPA eigensolver
  Finished Cholesky decomposition
  | Time :     0.004 s
  Finished transformation to standard eigenproblem
  | Time :     0.000 s
  Finished solving standard eigenproblem
  | Time :     0.004 s
  Finished back-transformation of eigenvectors
  | Time :     0.000 s

  Obtaining occupation numbers and chemical potential using ELSI.
  | Chemical potential (Fermi level):    -7.27819441 eV
  Writing Kohn-Sham eigenvalues.

  State    Occupation    Eigenvalue [Ha]    Eigenvalue [eV]
      1       2.00000         -55.548376        -1511.54823
      2       2.00000         -55.486842        -1509.87378
      3       2.00000         -55.483473        -1509.78213
      4       2.00000         -24.748057         -673.42890
      5       2.00000         -24.392333         -663.74916
      6       2.00000         -24.357760         -662.80836
      7       2.00000         -24.353675         -662.69723
      8       2.00000         -24.353114         -662.68195
      9       2.00000         -24.343545         -662.42157
     10       2.00000         -24.335705         -662.20824
     11       2.00000         -24.335260         -662.19612
     12       2.00000         -24.334395         -662.17259
     13       2.00000          -4.073387         -110.84250
     14       2.00000          -3.953358         -107.57634
     15       2.00000          -3.948016         -107.43098
     16       2.00000          -2.747001          -74.74969
     17       2.00000          -2.624558          -71.41786
     18       2.00000          -2.619630          -71.28375
     19       2.00000          -2.547011          -69.30771
     20       2.00000          -2.545029          -69.25377
     21       2.00000          -2.544135          -69.22944
     22       2.00000          -2.541211          -69.14987
     23       2.00000          -2.539402          -69.10064
     24       2.00000          -2.538604          -69.07893
     25       2.00000          -1.421961          -38.69352
     26       2.00000          -1.230764          -33.49080
     27       2.00000          -1.183381          -32.20144
     28       2.00000          -1.169894          -31.83443
     29       2.00000          -1.163990          -31.67378
     30       2.00000          -1.152988          -31.37440
     31       2.00000          -1.144617          -31.14660
     32       2.00000          -1.140183          -31.02597
     33       2.00000          -1.137749          -30.95971
     34       2.00000          -0.820501          -22.32696
     35       2.00000          -0.809820          -22.03631
     36       2.00000          -0.731635          -19.90881
     37       2.00000          -0.577605          -15.71742
     38       2.00000          -0.561519          -15.27970
     39       2.00000          -0.539774          -14.68799
     40       2.00000          -0.529083          -14.39707
     41       2.00000          -0.521035          -14.17809
     42       2.00000          -0.510429          -13.88947
     43       2.00000          -0.502156          -13.66435
     44       2.00000          -0.494139          -13.44620
     45       2.00000          -0.491688          -13.37952
     46       2.00000          -0.487905          -13.27656
     47       2.00000          -0.480077          -13.06357
     48       2.00000          -0.477656          -12.99769
     49       2.00000          -0.468294          -12.74293
     50       2.00000          -0.464030          -12.62691
     51       2.00000          -0.456349          -12.41789
     52       2.00000          -0.453973          -12.35324
     53       2.00000          -0.452641          -12.31700
     54       2.00000          -0.449503          -12.23159
     55       2.00000          -0.448152          -12.19483
     56       2.00000          -0.445282          -12.11675
     57       2.00000          -0.445060          -12.11069
     58       2.00000          -0.440867          -11.99660
     59       2.00000          -0.437594          -11.90754
     60       2.00000          -0.425688          -11.58355
     61       0.00000          -0.154524           -4.20481
     62       0.00000          -0.112983           -3.07443
     63       0.00000          -0.060434           -1.64449
     64       0.00000          -0.035133           -0.95601
     65       0.00000          -0.027402           -0.74565
     66       0.00000           0.001413            0.03845
     67       0.00000           0.017462            0.47517
     68       0.00000           0.037214            1.01266
     69       0.00000           0.057050            1.55241
     70       0.00000           0.092561            2.51870
     71       0.00000           0.103711            2.82211
     72       0.00000           0.123280            3.35462
     73       0.00000           0.151711            4.12825
     74       0.00000           0.163935            4.46091
     75       0.00000           0.169035            4.59968
     76       0.00000           0.177763            4.83718
     77       0.00000           0.185823            5.05649
     78       0.00000           0.193133            5.25542
     79       0.00000           0.200637            5.45961
     80       0.00000           0.217993            5.93190
     81       0.00000           0.232814            6.33520
     82       0.00000           0.235995            6.42175
     83       0.00000           0.245811            6.68886
     84       0.00000           0.251586            6.84601
     85       0.00000           0.258584            7.03642
     86       0.00000           0.274408            7.46702
     87       0.00000           0.282924            7.69876
     88       0.00000           0.284186            7.73309
     89       0.00000           0.300303            8.17165
     90       0.00000           0.316026            8.59951
     91       0.00000           0.332842            9.05709
     92       0.00000           0.350142            9.52784
     93       0.00000           0.358243            9.74828
     94       0.00000           0.366526            9.97367
     95       0.00000           0.381940           10.39312
     96       0.00000           0.388036           10.55900

  Highest occupied state (VBM) at    -11.58354779 eV
  | Occupation number:      2.00000000

  Lowest unoccupied state (CBM) at    -4.20481267 eV
  | Occupation number:      0.00000000

  Overall HOMO-LUMO gap:      7.37873513 eV.
  Calculating total energy contributions from superposition of free atom densities.

  Total energy components:
  | Sum of eigenvalues            :        -891.92371776 Ha      -24270.47922860 eV
  | XC energy correction          :        -144.75528824 Ha       -3938.99180664 eV
  | XC potential correction       :         188.50825871 Ha        5129.57070925 eV
  | Free-atom electrostatic energy:        -776.26928544 Ha      -21123.36200160 eV
  | Hartree energy correction     :           0.00000000 Ha           0.00000000 eV
  | Entropy correction            :           0.00000000 Ha           0.00000000 eV
  | ---------------------------
  | Total energy                  :       -1624.44003272 Ha      -44203.26232759 eV
  | Total energy, T -> 0          :       -1624.44003272 Ha      -44203.26232759 eV  <-- do not rely on this value for anything but (periodic) metals
  | Electronic free energy        :       -1624.44003272 Ha      -44203.26232759 eV

  Derived energy quantities:
  | Kinetic energy                :        1629.54452700 Ha       44342.16268407 eV
  | Electrostatic energy          :       -3109.22927148 Ha      -84606.43320503 eV
  | Energy correction for multipole
  | error in Hartree potential    :           0.00000000 Ha           0.00000000 eV
  | Sum of eigenvalues per atom                           :       -2022.53993572 eV
  | Total energy (T->0) per atom                          :       -3683.60519397 eV  <-- do not rely on this value for anything but (periodic) metals
  | Electronic free energy per atom                       :       -3683.60519397 eV
  Initialize hartree_potential_storage
  Max. number of atoms included in rho_multipole:           12

  End scf initialization - timings             :  max(cpu_time)    wall_clock(cpu1)
  | Time for scf. initialization                :        0.120 s           0.120 s
  | Boundary condition initialization           :        0.000 s           0.000 s
  | Integration                                 :        0.048 s           0.048 s
  | Solution of K.-S. eqns.                     :        0.013 s           0.014 s
  | Grid partitioning                           :        0.035 s           0.036 s
  | Preloading free-atom quantities on grid     :        0.016 s           0.016 s
  | Free-atom superposition energy              :        0.005 s           0.005 s
  | Total energy evaluation                     :        0.000 s           0.000 s

  Partial memory accounting:
  | Current value for overall tracked memory usage:
  |   Minimum:        0.273 MB (on task 23)
  |   Maximum:        0.292 MB (on task  0)
  |   Average:        0.287 MB
  | Peak value for overall tracked memory usage:
  |   Minimum:        1.363 MB (on task  7 after allocating wave)
  |   Maximum:        1.429 MB (on task  6 after allocating wave)
  |   Average:        1.393 MB
  | Largest tracked array allocation so far:
  |   Minimum:        0.249 MB (H_times_psi on task  1)
  |   Maximum:        0.477 MB (all_coords on task 14)
  |   Average:        0.277 MB
  Note:  These values currently only include a subset of arrays which are explicitly tracked.
  The "true" memory usage will be greater.
------------------------------------------------------------
  Evaluating new KS density.
  Integration grid: deviation in total charge (<rho> - N_e) =   4.263256E-14

  Time for density update prior                :  max(cpu_time)    wall_clock(cpu1)
  | self-consistency iterative process          :        0.030 s           0.030 s

------------------------------------------------------------
          Begin self-consistency iteration #    1

  Date     :  20220517, Time     :  120346.742
------------------------------------------------------------
  Pulay mixing of updated and previous charge densities.
  Renormalizing the density to the exact electron count on the 3D integration grid.
  | Formal number of electrons (from input files) :     120.0000000000
  | Integrated number of electrons on 3D grid     :     120.0000000000
  | Charge integration error                      :       0.0000000000
  | Normalization factor for density and gradient :       1.0000000000

  Evaluating partitioned Hartree potential by multipole expansion.
  | Original multipole sum: apparent total charge =  -0.632777E-13
  | Sum of charges compensated after spline to logarithmic grids =   0.157468E-03
  | Analytical far-field extrapolation by fixed multipoles:
  | Hartree multipole sum: apparent total charge =  -0.622123E-13
  Summing up the Hartree potential.
  Time summed over all CPUs for potential: real work        0.382 s, elapsed        0.397 s
  | RMS charge density error from multipole expansion :   0.147740E-01

  Integrating Hamiltonian matrix: batch-based integration.
  Time summed over all CPUs for integration: real work        0.717 s, elapsed        0.755 s

  Updating Kohn-Sham eigenvalues and eigenvectors using ELSI and the ELPA eigensolver.
  Starting ELPA eigensolver
  Finished transformation to standard eigenproblem
  | Time :     0.000 s
  Finished solving standard eigenproblem
  | Time :     0.003 s
  Finished back-transformation of eigenvectors
  | Time :     0.001 s

  Obtaining occupation numbers and chemical potential using ELSI.
  | Chemical potential (Fermi level):    -5.35536780 eV
  Writing Kohn-Sham eigenvalues.

  State    Occupation    Eigenvalue [Ha]    Eigenvalue [eV]
      1       2.00000         -55.696394        -1515.57600
      2       2.00000         -55.688133        -1515.35120
      3       2.00000         -55.491070        -1509.98884
      4       2.00000         -24.292437         -661.03083
      5       2.00000         -24.219121         -659.03581
      6       2.00000         -24.200956         -658.54153
      7       2.00000         -24.171268         -657.73366
      8       2.00000         -24.140809         -656.90483
      9       2.00000         -24.099188         -655.77227
     10       2.00000         -24.079824         -655.24535
     11       2.00000         -23.996485         -652.97759
     12       2.00000         -23.970644         -652.27440
     13       2.00000          -4.128520         -112.34274
     14       2.00000          -4.128436         -112.34046
     15       2.00000          -4.044534         -110.05737
     16       2.00000          -2.722215          -74.07524
     17       2.00000          -2.721595          -74.05836
     18       2.00000          -2.721398          -74.05302
     19       2.00000          -2.721076          -74.04424
     20       2.00000          -2.720703          -74.03410
     21       2.00000          -2.720147          -74.01896
     22       2.00000          -2.700012          -73.47105
     23       2.00000          -2.602092          -70.80652
     24       2.00000          -2.599333          -70.73145
     25       2.00000          -1.294450          -35.22379
     26       2.00000          -1.151092          -31.32281
     27       2.00000          -1.137135          -30.94301
     28       2.00000          -1.126430          -30.65172
     29       2.00000          -1.072354          -29.18025
     30       2.00000          -1.045916          -28.46083
     31       2.00000          -1.020284          -27.76333
     32       2.00000          -0.949442          -25.83564
     33       2.00000          -0.929119          -25.28260
     34       2.00000          -0.696515          -18.95314
     35       2.00000          -0.675774          -18.38876
     36       2.00000          -0.616616          -16.77898
     37       2.00000          -0.524798          -14.28048
     38       2.00000          -0.515826          -14.03634
     39       2.00000          -0.482764          -13.13667
     40       2.00000          -0.475848          -12.94847
     41       2.00000          -0.472295          -12.85180
     42       2.00000          -0.455555          -12.39628
     43       2.00000          -0.444201          -12.08732
     44       2.00000          -0.425663          -11.58287
     45       2.00000          -0.420704          -11.44793
     46       2.00000          -0.408795          -11.12388
     47       2.00000          -0.407397          -11.08585
     48       2.00000          -0.386629          -10.52071
     49       2.00000          -0.378666          -10.30402
     50       2.00000          -0.354595           -9.64902
     51       2.00000          -0.353644           -9.62314
     52       2.00000          -0.349990           -9.52372
     53       2.00000          -0.332756           -9.05476
     54       2.00000          -0.331073           -9.00895
     55       2.00000          -0.318757           -8.67382
     56       2.00000          -0.279485           -7.60518
     57       2.00000          -0.263810           -7.17864
     58       2.00000          -0.258735           -7.04054
     59       2.00000          -0.241039           -6.55901
     60       2.00000          -0.226584           -6.16568
     61       0.00000          -0.180927           -4.92327
     62       0.00000          -0.152329           -4.14509
     63       0.00000          -0.076348           -2.07752
     64       0.00000          -0.069850           -1.90073
     65       0.00000          -0.039317           -1.06988
     66       0.00000          -0.027424           -0.74624
     67       0.00000           0.006334            0.17235
     68       0.00000           0.024122            0.65638
     69       0.00000           0.074139            2.01743
     70       0.00000           0.103210            2.80848
     71       0.00000           0.110530            3.00767
     72       0.00000           0.135747            3.69388
     73       0.00000           0.139185            3.78742
     74       0.00000           0.146863            3.99634
     75       0.00000           0.155727            4.23755
     76       0.00000           0.169231            4.60500
     77       0.00000           0.174913            4.75962
     78       0.00000           0.185069            5.03600
     79       0.00000           0.206066            5.60735
     80       0.00000           0.217969            5.93125
     81       0.00000           0.228591            6.22028
     82       0.00000           0.235039            6.39574
     83       0.00000           0.242808            6.60715
     84       0.00000           0.243647            6.62998
     85       0.00000           0.261033            7.10308
     86       0.00000           0.262349            7.13887
     87       0.00000           0.281622            7.66331
     88       0.00000           0.305275            8.30696
     89       0.00000           0.320342            8.71696
     90       0.00000           0.336131            9.14658
     91       0.00000           0.348730            9.48942
     92       0.00000           0.361197            9.82868
     93       0.00000           0.367651           10.00430
     94       0.00000           0.385416           10.48771
     95       0.00000           0.389678           10.60369
     96       0.00000           0.405855           11.04387

  Highest occupied state (VBM) at     -6.16567693 eV
  | Occupation number:      2.00000000

  Lowest unoccupied state (CBM) at    -4.92327405 eV
  | Occupation number:      0.00000000

  Overall HOMO-LUMO gap:      1.24240288 eV.

  Total energy components:
  | Sum of eigenvalues            :        -882.80225154 Ha      -24022.27150417 eV
  | XC energy correction          :        -146.40184907 Ha       -3983.79700646 eV
  | XC potential correction       :         190.67254735 Ha        5188.46399956 eV
  | Free-atom electrostatic energy:        -776.26928544 Ha      -21123.36200160 eV
  | Hartree energy correction     :          -9.25552055 Ha        -251.85552856 eV
  | Entropy correction            :           0.00000000 Ha           0.00000000 eV
  | ---------------------------
  | Total energy                  :       -1624.05635925 Ha      -44192.82204122 eV
  | Total energy, T -> 0          :       -1624.05635925 Ha      -44192.82204122 eV  <-- do not rely on this value for anything but (periodic) metals
  | Electronic free energy        :       -1624.05635925 Ha      -44192.82204122 eV

  Derived energy quantities:
  | Kinetic energy                :        1639.40896897 Ha       44610.58780735 eV
  | Electrostatic energy          :       -3117.06347915 Ha      -84819.61284212 eV
  | Energy correction for multipole
  | error in Hartree potential    :           0.04472189 Ha           1.21694459 eV
  | Sum of eigenvalues per atom                           :       -2001.85595868 eV
  | Total energy (T->0) per atom                          :       -3682.73517010 eV  <-- do not rely on this value for anything but (periodic) metals
  | Electronic free energy per atom                       :       -3682.73517010 eV
  Evaluating new KS density.
  Integration grid: deviation in total charge (<rho> - N_e) =   1.421085E-14

  Self-consistency convergence accuracy:
  | Change of charge density      :  0.8187E+00
  | Change of sum of eigenvalues  :  0.2482E+03 eV
  | Change of total energy        :  0.1044E+02 eV


------------------------------------------------------------
  End self-consistency iteration #     1       :  max(cpu_time)    wall_clock(cpu1)
  | Time for this iteration                     :        0.085 s           0.085 s
  | Charge density update                       :        0.029 s           0.029 s
  | Density mixing                              :        0.001 s           0.000 s
  | Hartree multipole update                    :        0.001 s           0.002 s
  | Hartree multipole summation                 :        0.017 s           0.017 s
  | Integration                                 :        0.032 s           0.032 s
  | Solution of K.-S. eqns.                     :        0.004 s           0.004 s
  | Total energy evaluation                     :        0.000 s           0.001 s

  Partial memory accounting:
  | Current value for overall tracked memory usage:
  |   Minimum:        0.273 MB (on task 23)
  |   Maximum:        0.292 MB (on task  0)
  |   Average:        0.287 MB
  | Peak value for overall tracked memory usage:
  |   Minimum:        1.363 MB (on task  7 after allocating wave)
  |   Maximum:        1.429 MB (on task  6 after allocating wave)
  |   Average:        1.393 MB
  | Largest tracked array allocation so far:
  |   Minimum:        0.747 MB (gradient_basis_wave on task  1)
  |   Maximum:        0.783 MB (gradient_basis_wave on task  6)
  |   Average:        0.763 MB
  Note:  These values currently only include a subset of arrays which are explicitly tracked.
  The "true" memory usage will be greater.
------------------------------------------------------------

------------------------------------------------------------
          Begin self-consistency iteration #    2

  Date     :  20220517, Time     :  120346.833
------------------------------------------------------------
  Pulay mixing of updated and previous charge densities.
  Renormalizing the density to the exact electron count on the 3D integration grid.
  | Formal number of electrons (from input files) :     120.0000000000
  | Integrated number of electrons on 3D grid     :     120.0000000000
  | Charge integration error                      :       0.0000000000
  | Normalization factor for density and gradient :       1.0000000000

  Evaluating partitioned Hartree potential by multipole expansion.
  | Original multipole sum: apparent total charge =  -0.506406E-13
  | Sum of charges compensated after spline to logarithmic grids =   0.115903E-03
  | Analytical far-field extrapolation by fixed multipoles:
  | Hartree multipole sum: apparent total charge =  -0.497858E-13
  Summing up the Hartree potential.
  Time summed over all CPUs for potential: real work        0.380 s, elapsed        0.395 s
  | RMS charge density error from multipole expansion :   0.175264E-01

  Integrating Hamiltonian matrix: batch-based integration.
  Time summed over all CPUs for integration: real work        0.717 s, elapsed        0.752 s

  Updating Kohn-Sham eigenvalues and eigenvectors using ELSI and the ELPA eigensolver.
  Starting ELPA eigensolver
  Finished transformation to standard eigenproblem
  | Time :     0.001 s
  Finished solving standard eigenproblem
  | Time :     0.003 s
  Finished back-transformation of eigenvectors
  | Time :     0.000 s

  Obtaining occupation numbers and chemical potential using ELSI.
  | Chemical potential (Fermi level):    -7.21544896 eV
  Highest occupied state (VBM) at     -7.77078666 eV
  | Occupation number:      2.00000000

  Lowest unoccupied state (CBM) at    -5.20817279 eV
  | Occupation number:      0.00000000

  Overall HOMO-LUMO gap:      2.56261386 eV.

  Checking to see if s.c.f. parameters should be adjusted.

  Total energy components:
  | Sum of eigenvalues            :        -886.58623849 Ha      -24125.23902795 eV
  | XC energy correction          :        -145.83355649 Ha       -3968.33297862 eV
  | XC potential correction       :         189.92439383 Ha        5168.10570655 eV
  | Free-atom electrostatic energy:        -776.26928544 Ha      -21123.36200160 eV
  | Hartree energy correction     :          -5.22546361 Ha        -142.19209956 eV
  | Entropy correction            :           0.00000000 Ha           0.00000000 eV
  | ---------------------------
  | Total energy                  :       -1623.99015020 Ha      -44191.02040119 eV
  | Total energy, T -> 0          :       -1623.99015020 Ha      -44191.02040119 eV  <-- do not rely on this value for anything but (periodic) metals
  | Electronic free energy        :       -1623.99015020 Ha      -44191.02040119 eV

  Derived energy quantities:
  | Kinetic energy                :        1635.04025110 Ha       44491.70894555 eV
  | Electrostatic energy          :       -3113.19684480 Ha      -84714.39636812 eV
  | Energy correction for multipole
  | error in Hartree potential    :           0.04936977 Ha           1.34341966 eV
  | Sum of eigenvalues per atom                           :       -2010.43658566 eV
  | Total energy (T->0) per atom                          :       -3682.58503343 eV  <-- do not rely on this value for anything but (periodic) metals
  | Electronic free energy per atom                       :       -3682.58503343 eV
  Evaluating new KS density.
  Integration grid: deviation in total charge (<rho> - N_e) =   2.842171E-14

  Self-consistency convergence accuracy:
  | Change of charge density      :  0.5005E+00
  | Change of sum of eigenvalues  : -0.1030E+03 eV
  | Change of total energy        :  0.1802E+01 eV


------------------------------------------------------------
  End self-consistency iteration #     2       :  max(cpu_time)    wall_clock(cpu1)
  | Time for this iteration                     :        0.088 s           0.084 s
  | Charge density update                       :        0.029 s           0.028 s
  | Density mixing                              :        0.004 s           0.001 s
  | Hartree multipole update                    :        0.001 s           0.002 s
  | Hartree multipole summation                 :        0.017 s           0.016 s
  | Integration                                 :        0.032 s           0.032 s
  | Solution of K.-S. eqns.                     :        0.004 s           0.004 s
  | Total energy evaluation                     :        0.000 s           0.000 s

  Partial memory accounting:
  | Current value for overall tracked memory usage:
  |   Minimum:        0.274 MB (on task 23)
  |   Maximum:        0.293 MB (on task  0)
  |   Average:        0.288 MB
  | Peak value for overall tracked memory usage:
  |   Minimum:        1.363 MB (on task  7 after allocating wave)
  |   Maximum:        1.429 MB (on task  6 after allocating wave)
  |   Average:        1.393 MB
  | Largest tracked array allocation so far:
  |   Minimum:        0.747 MB (gradient_basis_wave on task  1)
  |   Maximum:        0.783 MB (gradient_basis_wave on task  6)
  |   Average:        0.763 MB
  Note:  These values currently only include a subset of arrays which are explicitly tracked.
  The "true" memory usage will be greater.
------------------------------------------------------------

------------------------------------------------------------
          Begin self-consistency iteration #    3

  Date     :  20220517, Time     :  120346.922
------------------------------------------------------------
  Pulay mixing of updated and previous charge densities.
  Renormalizing the density to the exact electron count on the 3D integration grid.
  | Formal number of electrons (from input files) :     120.0000000000
  | Integrated number of electrons on 3D grid     :     120.0000000000
  | Charge integration error                      :      -0.0000000000
  | Normalization factor for density and gradient :       1.0000000000

  Evaluating partitioned Hartree potential by multipole expansion.
  | Original multipole sum: apparent total charge =  -0.174078E-12
  | Sum of charges compensated after spline to logarithmic grids =   0.149601E-03
  | Analytical far-field extrapolation by fixed multipoles:
  | Hartree multipole sum: apparent total charge =  -0.174041E-12
  Summing up the Hartree potential.
  Time summed over all CPUs for potential: real work        0.380 s, elapsed        0.396 s
  | RMS charge density error from multipole expansion :   0.217321E-01

  Integrating Hamiltonian matrix: batch-based integration.
  Time summed over all CPUs for integration: real work        0.717 s, elapsed        0.754 s

  Updating Kohn-Sham eigenvalues and eigenvectors using ELSI and the ELPA eigensolver.
  Starting ELPA eigensolver
  Finished transformation to standard eigenproblem
  | Time :     0.001 s
  Finished solving standard eigenproblem
  | Time :     0.003 s
  Finished back-transformation of eigenvectors
  | Time :     0.000 s

  Obtaining occupation numbers and chemical potential using ELSI.
  | Chemical potential (Fermi level):    -5.75129315 eV
  Highest occupied state (VBM) at     -6.87419889 eV
  | Occupation number:      2.00000000

  Lowest unoccupied state (CBM) at    -5.46666322 eV
  | Occupation number:      0.00000000

  Overall HOMO-LUMO gap:      1.40753567 eV.

  Total energy components:
  | Sum of eigenvalues            :        -887.04421110 Ha      -24137.70109668 eV
  | XC energy correction          :        -145.89481992 Ha       -3970.00004137 eV
  | XC potential correction       :         190.00360939 Ha        5170.26127149 eV
  | Free-atom electrostatic energy:        -776.26928544 Ha      -21123.36200160 eV
  | Hartree energy correction     :          -4.78104007 Ha        -130.09871979 eV
  | Entropy correction            :           0.00000000 Ha           0.00000000 eV
  | ---------------------------
  | Total energy                  :       -1623.98574714 Ha      -44190.90058795 eV
  | Total energy, T -> 0          :       -1623.98574714 Ha      -44190.90058795 eV  <-- do not rely on this value for anything but (periodic) metals
  | Electronic free energy        :       -1623.98574714 Ha      -44190.90058795 eV

  Derived energy quantities:
  | Kinetic energy                :        1634.49827494 Ha       44476.96102408 eV
  | Electrostatic energy          :       -3112.58920216 Ha      -84697.86157066 eV
  | Energy correction for multipole
  | error in Hartree potential    :           0.05998245 Ha           1.63220546 eV
  | Sum of eigenvalues per atom                           :       -2011.47509139 eV
  | Total energy (T->0) per atom                          :       -3682.57504900 eV  <-- do not rely on this value for anything but (periodic) metals
  | Electronic free energy per atom                       :       -3682.57504900 eV
  Evaluating new KS density.
  Integration grid: deviation in total charge (<rho> - N_e) =   0.000000E+00

  Self-consistency convergence accuracy:
  | Change of charge density      :  0.1354E+00
  | Change of sum of eigenvalues  : -0.1246E+02 eV
  | Change of total energy        :  0.1198E+00 eV


------------------------------------------------------------
  End self-consistency iteration #     3       :  max(cpu_time)    wall_clock(cpu1)
  | Time for this iteration                     :        0.088 s           0.087 s
  | Charge density update                       :        0.029 s           0.029 s
  | Density mixing                              :        0.004 s           0.003 s
  | Hartree multipole update                    :        0.001 s           0.002 s
  | Hartree multipole summation                 :        0.017 s           0.016 s
  | Integration                                 :        0.032 s           0.032 s
  | Solution of K.-S. eqns.                     :        0.004 s           0.004 s
  | Total energy evaluation                     :        0.000 s           0.000 s

  Partial memory accounting:
  | Current value for overall tracked memory usage:
  |   Minimum:        0.274 MB (on task 23)
  |   Maximum:        0.293 MB (on task  0)
  |   Average:        0.288 MB
  | Peak value for overall tracked memory usage:
  |   Minimum:        1.363 MB (on task  7 after allocating wave)
  |   Maximum:        1.429 MB (on task  6 after allocating wave)
  |   Average:        1.393 MB
  | Largest tracked array allocation so far:
  |   Minimum:        0.747 MB (gradient_basis_wave on task  1)
  |   Maximum:        0.783 MB (gradient_basis_wave on task  6)
  |   Average:        0.763 MB
  Note:  These values currently only include a subset of arrays which are explicitly tracked.
  The "true" memory usage will be greater.
------------------------------------------------------------

------------------------------------------------------------
          Begin self-consistency iteration #    4

  Date     :  20220517, Time     :  120347.015
------------------------------------------------------------
  Pulay mixing of updated and previous charge densities.
  Renormalizing the density to the exact electron count on the 3D integration grid.
  | Formal number of electrons (from input files) :     120.0000000000
  | Integrated number of electrons on 3D grid     :     120.0000000000
  | Charge integration error                      :       0.0000000000
  | Normalization factor for density and gradient :       1.0000000000

  Evaluating partitioned Hartree potential by multipole expansion.
  | Original multipole sum: apparent total charge =  -0.693041E-13
  | Sum of charges compensated after spline to logarithmic grids =   0.166361E-03
  | Analytical far-field extrapolation by fixed multipoles:
  | Hartree multipole sum: apparent total charge =  -0.726617E-13
  Summing up the Hartree potential.
  Time summed over all CPUs for potential: real work        0.380 s, elapsed        0.395 s
  | RMS charge density error from multipole expansion :   0.245407E-01

  Integrating Hamiltonian matrix: batch-based integration.
  Time summed over all CPUs for integration: real work        0.718 s, elapsed        0.755 s

  Updating Kohn-Sham eigenvalues and eigenvectors using ELSI and the ELPA eigensolver.
  Starting ELPA eigensolver
  Finished transformation to standard eigenproblem
  | Time :     0.000 s
  Finished solving standard eigenproblem
  | Time :     0.003 s
  Finished back-transformation of eigenvectors
  | Time :     0.000 s

  Obtaining occupation numbers and chemical potential using ELSI.
  | Chemical potential (Fermi level):    -5.75605494 eV
  Highest occupied state (VBM) at     -7.13367404 eV
  | Occupation number:      2.00000000

  Lowest unoccupied state (CBM) at    -5.47445558 eV
  | Occupation number:      0.00000000

  Overall HOMO-LUMO gap:      1.65921846 eV.

  Total energy components:
  | Sum of eigenvalues            :        -887.18221516 Ha      -24141.45637824 eV
  | XC energy correction          :        -145.87732691 Ha       -3969.52403229 eV
  | XC potential correction       :         189.97960311 Ha        5169.60802750 eV
  | Free-atom electrostatic energy:        -776.26928544 Ha      -21123.36200160 eV
  | Hartree energy correction     :          -4.63331350 Ha        -126.07887520 eV
  | Entropy correction            :           0.00000000 Ha           0.00000000 eV
  | ---------------------------
  | Total energy                  :       -1623.98253789 Ha      -44190.81325984 eV
  | Total energy, T -> 0          :       -1623.98253789 Ha      -44190.81325984 eV  <-- do not rely on this value for anything but (periodic) metals
  | Electronic free energy        :       -1623.98253789 Ha      -44190.81325984 eV

  Derived energy quantities:
  | Kinetic energy                :        1633.85688039 Ha       44459.50779037 eV
  | Electrostatic energy          :       -3111.96209138 Ha      -84680.79701792 eV
  | Energy correction for multipole
  | error in Hartree potential    :           0.06680623 Ha           1.81789002 eV
  | Sum of eigenvalues per atom                           :       -2011.78803152 eV
  | Total energy (T->0) per atom                          :       -3682.56777165 eV  <-- do not rely on this value for anything but (periodic) metals
  | Electronic free energy per atom                       :       -3682.56777165 eV
  Evaluating new KS density.
  Integration grid: deviation in total charge (<rho> - N_e) =  -1.421085E-14

  Self-consistency convergence accuracy:
  | Change of charge density      :  0.1126E+00
  | Change of sum of eigenvalues  : -0.3755E+01 eV
  | Change of total energy        :  0.8733E-01 eV


------------------------------------------------------------
  End self-consistency iteration #     4       :  max(cpu_time)    wall_clock(cpu1)
  | Time for this iteration                     :        0.087 s           0.084 s
  | Charge density update                       :        0.029 s           0.028 s
  | Density mixing                              :        0.004 s           0.002 s
  | Hartree multipole update                    :        0.001 s           0.001 s
  | Hartree multipole summation                 :        0.017 s           0.017 s
  | Integration                                 :        0.032 s           0.031 s
  | Solution of K.-S. eqns.                     :        0.004 s           0.005 s
  | Total energy evaluation                     :        0.000 s           0.000 s

  Partial memory accounting:
  | Current value for overall tracked memory usage:
  |   Minimum:        0.274 MB (on task 23)
  |   Maximum:        0.293 MB (on task  0)
  |   Average:        0.288 MB
  | Peak value for overall tracked memory usage:
  |   Minimum:        1.363 MB (on task  7 after allocating wave)
  |   Maximum:        1.429 MB (on task  6 after allocating wave)
  |   Average:        1.393 MB
  | Largest tracked array allocation so far:
  |   Minimum:        0.747 MB (gradient_basis_wave on task  1)
  |   Maximum:        0.783 MB (gradient_basis_wave on task  6)
  |   Average:        0.763 MB
  Note:  These values currently only include a subset of arrays which are explicitly tracked.
  The "true" memory usage will be greater.
------------------------------------------------------------

------------------------------------------------------------
          Begin self-consistency iteration #    5

  Date     :  20220517, Time     :  120347.106
------------------------------------------------------------
  Pulay mixing of updated and previous charge densities.
  Renormalizing the density to the exact electron count on the 3D integration grid.
  | Formal number of electrons (from input files) :     120.0000000000
  | Integrated number of electrons on 3D grid     :     120.0000000000
  | Charge integration error                      :       0.0000000000
  | Normalization factor for density and gradient :       1.0000000000

  Evaluating partitioned Hartree potential by multipole expansion.
  | Original multipole sum: apparent total charge =  -0.481993E-13
  | Sum of charges compensated after spline to logarithmic grids =   0.170630E-03
  | Analytical far-field extrapolation by fixed multipoles:
  | Hartree multipole sum: apparent total charge =  -0.463790E-13
  Summing up the Hartree potential.
  Time summed over all CPUs for potential: real work        0.380 s, elapsed        0.395 s
  | RMS charge density error from multipole expansion :   0.250856E-01

  Integrating Hamiltonian matrix: batch-based integration.
  Time summed over all CPUs for integration: real work        0.717 s, elapsed        0.754 s

  Updating Kohn-Sham eigenvalues and eigenvectors using ELSI and the ELPA eigensolver.
  Starting ELPA eigensolver
  Finished transformation to standard eigenproblem
  | Time :     0.001 s
  Finished solving standard eigenproblem
  | Time :     0.004 s
  Finished back-transformation of eigenvectors
  | Time :     0.000 s

  Obtaining occupation numbers and chemical potential using ELSI.
  | Chemical potential (Fermi level):    -5.75116161 eV
  Highest occupied state (VBM) at     -7.08282691 eV
  | Occupation number:      2.00000000

  Lowest unoccupied state (CBM) at    -5.45507265 eV
  | Occupation number:      0.00000000

  Overall HOMO-LUMO gap:      1.62775426 eV.

  Total energy components:
  | Sum of eigenvalues            :        -887.20169473 Ha      -24141.98644430 eV
  | XC energy correction          :        -145.86425711 Ha       -3969.16838511 eV
  | XC potential correction       :         189.96223511 Ha        5169.13542009 eV
  | Free-atom electrostatic energy:        -776.26928544 Ha      -21123.36200160 eV
  | Hartree energy correction     :          -4.60927023 Ha        -125.42462446 eV
  | Entropy correction            :           0.00000000 Ha           0.00000000 eV
[...]
   Total forces(   7)            :  0.753489E+01 -0.122929E+01 -0.122808E+00
  atom #    8
   Hellmann-Feynman              :  0.191156E+01 -0.929993E+00  0.181035E+01
   Ionic forces                  :  0.000000E+00  0.000000E+00  0.000000E+00
   Multipole                     :  0.365270E+00 -0.239555E-01 -0.755781E-01
   Hartree pot. SCF incomplete   : -0.131364E-05 -0.116260E-05 -0.201045E-05
   Pulay + GGA                   : -0.367455E+01  0.821464E+00 -0.551747E+00
   ----------------------------------------------------------------
   Total forces(   8)            : -0.139772E+01 -0.132486E+00  0.118302E+01
  atom #    9
   Hellmann-Feynman              : -0.553147E+00  0.775207E+00 -0.372738E+01
   Ionic forces                  :  0.000000E+00  0.000000E+00  0.000000E+00
   Multipole                     :  0.393889E+00  0.394909E+00 -0.637452E+00
   Hartree pot. SCF incomplete   : -0.145684E-05 -0.906131E-06  0.324879E-05
   Pulay + GGA                   : -0.311528E+00 -0.240821E+01  0.741550E+01
   ----------------------------------------------------------------
   Total forces(   9)            : -0.470788E+00 -0.123809E+01  0.305066E+01
  atom #   10
   Hellmann-Feynman              :  0.770879E+00  0.989145E+00  0.280853E+01
   Ionic forces                  :  0.000000E+00  0.000000E+00  0.000000E+00
   Multipole                     :  0.236382E+00  0.459077E+00  0.741165E-01
   Hartree pot. SCF incomplete   :  0.113742E-06  0.533072E-07 -0.267575E-05
   Pulay + GGA                   : -0.111514E+01 -0.264153E+01 -0.250106E+01
   ----------------------------------------------------------------
   Total forces(  10)            : -0.107879E+00 -0.119331E+01  0.381587E+00
  atom #   11
   Hellmann-Feynman              :  0.240991E+01  0.736864E+00  0.848452E+00
   Ionic forces                  :  0.000000E+00  0.000000E+00  0.000000E+00
   Multipole                     :  0.734379E+00  0.467502E+00  0.203853E+00
   Hartree pot. SCF incomplete   : -0.242260E-05 -0.186417E-05 -0.184986E-07
   Pulay + GGA                   : -0.660257E+01 -0.267291E+01 -0.255303E+01
   ----------------------------------------------------------------
   Total forces(  11)            : -0.345829E+01 -0.146855E+01 -0.150073E+01
  atom #   12
   Hellmann-Feynman              :  0.403462E+02  0.548349E+02 -0.146355E+03
   Ionic forces                  :  0.000000E+00  0.000000E+00  0.000000E+00
   Multipole                     :  0.722036E+00  0.710416E+00 -0.134758E+01
   Hartree pot. SCF incomplete   :  0.448116E-05  0.511468E-06 -0.105875E-04
   Pulay + GGA                   : -0.115041E+02 -0.601435E+01  0.125353E+02
   ----------------------------------------------------------------
   Total forces(  12)            :  0.295641E+02  0.495310E+02 -0.135167E+03


  Self-consistency convergence accuracy:
  | Change of charge density      :  0.3254E-06
  | Change of sum of eigenvalues  : -0.9272E-05 eV
  | Change of total energy        :  0.3657E-08 eV
  | Change of forces              :  0.1405E-05 eV/A

  Writing Kohn-Sham eigenvalues.

  State    Occupation    Eigenvalue [Ha]    Eigenvalue [eV]
      1       2.00000         -55.671602        -1514.90138
      2       2.00000         -55.668192        -1514.80857
      3       2.00000         -55.462720        -1509.21740
      4       2.00000         -24.378620         -663.37600
      5       2.00000         -24.307952         -661.45303
      6       2.00000         -24.290626         -660.98158
      7       2.00000         -24.262688         -660.22135
      8       2.00000         -24.254537         -659.99954
      9       2.00000         -24.235837         -659.49068
     10       2.00000         -24.232345         -659.39567
     11       2.00000         -24.127718         -656.54862
     12       2.00000         -24.124311         -656.45591
     13       2.00000          -4.129232         -112.36212
     14       2.00000          -4.115975         -112.00139
     15       2.00000          -4.060492         -110.49161
     16       2.00000          -2.721679          -74.06065
     17       2.00000          -2.721018          -74.04266
     18       2.00000          -2.718771          -73.98153
     19       2.00000          -2.712362          -73.80712
     20       2.00000          -2.709854          -73.73888
     21       2.00000          -2.708057          -73.68998
     22       2.00000          -2.704896          -73.60397
     23       2.00000          -2.614370          -71.14063
     24       2.00000          -2.610166          -71.02623
     25       2.00000          -1.334365          -36.30991
     26       2.00000          -1.176829          -32.02314
     27       2.00000          -1.162842          -31.64253
     28       2.00000          -1.153348          -31.38420
     29       2.00000          -1.102582          -30.00279
     30       2.00000          -1.097218          -29.85682
     31       2.00000          -1.070831          -29.13880
     32       2.00000          -0.976535          -26.57286
     33       2.00000          -0.967795          -26.33504
     34       2.00000          -0.732762          -19.93947
     35       2.00000          -0.713431          -19.41344
     36       2.00000          -0.655630          -17.84059
     37       2.00000          -0.545005          -14.83035
     38       2.00000          -0.540920          -14.71918
     39       2.00000          -0.508648          -13.84103
     40       2.00000          -0.502558          -13.67529
     41       2.00000          -0.495609          -13.48620
     42       2.00000          -0.480150          -13.06556
     43       2.00000          -0.470216          -12.79524
     44       2.00000          -0.461453          -12.55676
     45       2.00000          -0.449679          -12.23638
     46       2.00000          -0.447087          -12.16586
     47       2.00000          -0.435952          -11.86286
     48       2.00000          -0.429185          -11.67873
     49       2.00000          -0.408291          -11.11016
     50       2.00000          -0.406184          -11.05282
     51       2.00000          -0.402772          -10.95997
     52       2.00000          -0.379476          -10.32606
     53       2.00000          -0.376599          -10.24779
     54       2.00000          -0.375010          -10.20453
     55       2.00000          -0.344031           -9.36157
     56       2.00000          -0.311540           -8.47744
     57       2.00000          -0.291213           -7.92431
     58       2.00000          -0.283755           -7.72136
     59       2.00000          -0.274585           -7.47183
     60       2.00000          -0.261226           -7.10833
     61       0.00000          -0.199532           -5.42954
     62       0.00000          -0.169575           -4.61437
     63       0.00000          -0.086187           -2.34527
     64       0.00000          -0.074668           -2.03182
     65       0.00000          -0.048670           -1.32439
     66       0.00000          -0.032660           -0.88873
     67       0.00000          -0.001055           -0.02870
     68       0.00000           0.012034            0.32745
     69       0.00000           0.063279            1.72190
     70       0.00000           0.095759            2.60572
     71       0.00000           0.104645            2.84753
     72       0.00000           0.128298            3.49116
     73       0.00000           0.134021            3.64689
     74       0.00000           0.140846            3.83262
     75       0.00000           0.145765            3.96647
     76       0.00000           0.157256            4.27914
     77       0.00000           0.166164            4.52155
     78       0.00000           0.180382            4.90844
     79       0.00000           0.199964            5.44131
     80       0.00000           0.211633            5.75882
     81       0.00000           0.218027            5.93281
     82       0.00000           0.225229            6.12878
     83       0.00000           0.234770            6.38841
     84       0.00000           0.237783            6.47041
     85       0.00000           0.250918            6.82781
     86       0.00000           0.256066            6.96791
     87       0.00000           0.268656            7.31050
     88       0.00000           0.295274            8.03481
     89       0.00000           0.314913            8.56923
     90       0.00000           0.328981            8.95203
     91       0.00000           0.341548            9.29399
     92       0.00000           0.349749            9.51716
     93       0.00000           0.358382            9.75207
     94       0.00000           0.375313           10.21279
     95       0.00000           0.377619           10.27553
     96       0.00000           0.391267           10.64693

  Highest occupied state (VBM) at     -7.10833271 eV
  | Occupation number:      2.00000000

  Lowest unoccupied state (CBM) at    -5.42954467 eV
  | Occupation number:      0.00000000

  Overall HOMO-LUMO gap:      1.67878804 eV.
  | Chemical Potential                          :    -5.74079965 eV

  Self-consistency cycle converged.


------------------------------------------------------------
  End self-consistency iteration #    15       :  max(cpu_time)    wall_clock(cpu1)
  | Time for this iteration                     :        0.276 s           0.274 s
  | Charge density & force component update     :        0.154 s           0.154 s
  | Density mixing                              :        0.004 s           0.002 s
  | Hartree multipole update                    :        0.001 s           0.001 s
  | Hartree multipole summation                 :        0.049 s           0.049 s
  | Hartree pot. SCF incomplete forces          :        0.031 s           0.031 s
  | Integration                                 :        0.032 s           0.032 s
  | Solution of K.-S. eqns.                     :        0.004 s           0.004 s
  | Total energy evaluation                     :        0.000 s           0.000 s

  Partial memory accounting:
  | Current value for overall tracked memory usage:
  |   Minimum:        0.274 MB (on task 23)
  |   Maximum:        0.293 MB (on task  0)
  |   Average:        0.289 MB
  | Peak value for overall tracked memory usage:
  |   Minimum:        3.047 MB (on task  7 after allocating hessian_basis_wave)
  |   Maximum:        3.178 MB (on task  6 after allocating hessian_basis_wave)
  |   Average:        3.105 MB
  | Largest tracked array allocation so far:
  |   Minimum:        1.494 MB (hessian_basis_wave on task  1)
  |   Maximum:        1.567 MB (hessian_basis_wave on task  6)
  |   Average:        1.526 MB
  Note:  These values currently only include a subset of arrays which are explicitly tracked.
  The "true" memory usage will be greater.
------------------------------------------------------------
  Removing unitary transformations (pure translations, rotations) from forces on atoms.
  Atomic forces before filtering:
  | Net force on center of mass :  -0.217545E-01 -0.800422E-02  0.365898E-01 eV/A
  | Net torque on center of mass:  -0.226848E-01  0.340535E-01 -0.380523E-02 eV
  Atomic forces after filtering:
  | Net force on center of mass :  -0.570900E-14 -0.570900E-14  0.456720E-13 eV/A
  | Net torque on center of mass:   0.906321E-14  0.241686E-13 -0.604214E-14 eV

  Energy and forces in a compact form:
  | Total energy uncorrected      :         -0.441908048295781E+05 eV
  | Total energy corrected        :         -0.441908048295781E+05 eV  <-- do not rely on this value for anything but (periodic) metals
  | Electronic free energy        :         -0.441908048295781E+05 eV
  Total atomic forces (unitary forces cleaned) [eV/Ang]:
  |    1         -0.382366315240168E+02         -0.488981256436788E+02          0.138864777923800E+03
  |    2          0.112615294347413E+01          0.132309321293458E+01          0.189175545598021E+01
  |    3          0.275754002866062E+01          0.300520092659570E+01         -0.427717777021943E+01
  |    4          0.179787068266340E+01          0.506481813696091E+00         -0.105091541207923E+01
  |    5          0.179025800152696E+01         -0.141707363724001E+01         -0.141009390458443E+01
  |    6         -0.912432202727865E+00          0.120482491512454E+01         -0.182802538488300E+01
  |    7          0.753638999302400E+01         -0.122899796379299E+01         -0.126363453342734E+00
  |    8         -0.139505583722625E+01         -0.130942998765903E+00          0.118079835671559E+01
  |    9         -0.467046042122500E+00         -0.123585339130752E+01          0.304793646947594E+01
  |   10         -0.105896121792846E+00         -0.119224086823726E+01          0.379570774356734E+00
  |   11         -0.345742728403419E+01         -0.146803398403659E+01         -0.150157757743138E+01
  |   12          0.295662773625713E+02          0.495316676187082E+02         -0.135170685477788E+03

  ------------------------------------ 
  Start decomposition of the XC Energy 
  ------------------------------------ 
  X and C from original XC functional choice 
  Hartree-Fock Energy :          0.000000000 Ha              0.000000000 eV
  X Energy            :       -140.866592210 Ha          -3833.175003830 eV
  C Energy            :         -5.000031126 Ha           -136.057769484 eV
  Total XC Energy     :       -145.866623336 Ha          -3969.232773314 eV
  ------------------------------------ 
  LDA X and C from self-consistent density 
  X Energy LDA        :       -133.494364870 Ha          -3632.566491049 eV
  C Energy LDA        :         -8.857052773 Ha           -241.012668544 eV
  ------------------------------------ 
  End decomposition of the XC Energy 
  ------------------------------------ 

------------------------------------------------------------

------------------------------------------------------------------------------
  Final output of selected total energy values:

  The following output summarizes some interesting total energy values
  at the end of a run (AFTER all relaxation, molecular dynamics, etc.).

  | Total energy of the DFT / Hartree-Fock s.c.f. calculation      :         -44190.804829578 eV
  | Final zero-broadening corrected energy (caution - metals only) :         -44190.804829578 eV
  | For reference only, the value of 1 Hartree used in FHI-aims is :             27.211384500 eV

  Before relying on these values, please be sure to understand exactly which
  total energy value is referred to by a given number. Different objects may
  all carry the same name 'total energy'. Definitions:

  Total energy of the DFT / Hartree-Fock s.c.f. calculation:
  | Note that this energy does not include ANY quantities calculated after the
  | s.c.f. cycle, in particular not ANY RPA, MP2, etc. many-body perturbation terms.

  Final zero-broadening corrected energy:
  | For metallic systems only, a broadening of the occupation numbers at the Fermi
  | level can be extrapolated back to zero broadening by an electron-gas inspired
  | formula. For all systems that are not real metals, this value can be
  | meaningless and should be avoided.

------------------------------------------------------------------------------
  Methods described in the following list of references were used in this FHI-aims run.
  If you publish the results, please make sure to cite these reference if they apply.
  FHI-aims is an academic code, and for our developers (often, Ph.D. students
  and postdocs), scientific credit in the community is essential.
  Thank you for helping us!

  For any use of FHI-aims, please cite:

    Volker Blum, Ralf Gehrke, Felix Hanke, Paula Havu, Ville Havu,
    Xinguo Ren, Karsten Reuter, and Matthias Scheffler
    'Ab initio molecular simulations with numeric atom-centered orbitals'
    Computer Physics Communications 180, 2175-2196 (2009)
    http://dx.doi.org/10.1016/j.cpc.2009.06.022


  The ELSI infrastructure was used in your run to solve the Kohn-Sham electronic structure.
  Please check out http://elsi-interchange.org to learn more.
  If scalability is important for your project, please acknowledge ELSI by citing:

    V. W-z. Yu, F. Corsetti, A. Garcia, W. P. Huhn, M. Jacquelin, W. Jia,
    B. Lange, L. Lin, J. Lu, W. Mi, A. Seifitokaldani, A. Vazquez-Mayagoitia,
    C. Yang, H. Yang, and V. Blum
    'ELSI: A unified software interface for Kohn-Sham electronic structure solvers'
    Computer Physics Communications 222, 267-285 (2018).
    http://dx.doi.org/10.1016/j.cpc.2017.09.007


  For the real-space grid partitioning and parallelization used in this calculation, please cite:

    Ville Havu, Volker Blum, Paula Havu, and Matthias Scheffler,
    'Efficient O(N) integration for all-electron electronic structure calculation'
    'using numerically tabulated basis functions'
    Journal of Computational Physics 228, 8367-8379 (2009).
    http://dx.doi.org/10.1016/j.jcp.2009.08.008

  Of course, there are many other important community references, e.g., those cited in the
  above references. Our list is limited to references that describe implementations in the
  FHI-aims code. The reason is purely practical (length of this list) - please credit others as well.

------------------------------------------------------------
          Leaving FHI-aims.
          Date     :  20220517, Time     :  120348.501

          Computational steps:
          | Number of self-consistency cycles          :           15
          | Number of SCF (re)initializations          :            1

          Detailed time accounting                     :  max(cpu_time)    wall_clock(cpu1)
          | Total time                                  :        2.065 s           2.138 s
          | Preparation time                            :        0.184 s           0.184 s
          | Boundary condition initalization            :        0.000 s           0.000 s
          | Grid partitioning                           :        0.035 s           0.036 s
          | Preloading free-atom quantities on grid     :        0.016 s           0.016 s
          | Free-atom superposition energy              :        0.005 s           0.005 s
          | Total time for integrations                 :        0.525 s           0.524 s
          | Total time for solution of K.-S. equations  :        0.076 s           0.077 s
          | Total time for density & force components   :        0.712 s           0.710 s
          | Total time for mixing                       :        0.063 s           0.032 s
          | Total time for Hartree multipole update     :        0.021 s           0.022 s
          | Total time for Hartree multipole sum        :        0.316 s           0.315 s
          | Total time for total energy evaluation      :        0.002 s           0.003 s
          | Total time NSC force correction             :        0.062 s           0.062 s
          | Total time for scaled ZORA corrections      :        0.000 s           0.000 s

          Partial memory accounting:
          | Residual value for overall tracked memory usage across tasks:     0.000000 MB (should be 0.000000 MB)
          | Peak values for overall tracked memory usage:
          |   Minimum:        3.047 MB (on task  7 after allocating hessian_basis_wave)
          |   Maximum:        3.178 MB (on task  6 after allocating hessian_basis_wave)
          |   Average:        3.105 MB
          | Largest tracked array allocation:
          |   Minimum:        1.494 MB (hessian_basis_wave on task  1)
          |   Maximum:        1.567 MB (hessian_basis_wave on task  6)
          |   Average:        1.526 MB
          Note:  These values currently only include a subset of arrays which are explicitly tracked.
          The "true" memory usage will be greater.

          Have a nice day.
------------------------------------------------------------
