********************************************************************************
*                       GENERAL UTILITY LATTICE PROGRAM                        *
*                                 Julian Gale                                  *
*                       Curtin Institute for Computation                       *
*                           Department of Chemistry                            *
*                    Curtin University, Western Australia                      *
********************************************************************************
* Version = 5.1.1 * Last modified =  24th November 2018                        *
********************************************************************************
*  optimise     - perform optimisation run                                     *
*  conp         - constant pressure calculation                                *
*  shell        - only shells and radii to be optimised                        *
*  phonon       - calculate phonons for final geometry                         *
*  eigenvectors - output phonon eigenvectors                                   *
********************************************************************************

  Job Started  at 14:40.00 25th May        2022                               

  Number of CPUs =     1

  Host name      = login03                                 


  Total number of configurations input =      1

********************************************************************************
*  Input for Configuration =   1                                               *
********************************************************************************

  Formula = Al3F9                                                       

  Number of irreducible atoms/shells =      21


  Total number atoms/shells =      21

  Dimensionality = 0               :  Cluster


  Charge on cluster =  -0.000000


  Initial cluster dipoles : x =      0.101447 e.Angs
                            y =     -0.683546 e.Angs
                            z =     -0.041003 e.Angs

  Temperature of configuration =  0.000     K 

  Symmetry number =      1

  Cartesian coordinates of cluster :

--------------------------------------------------------------------------------
   No.  Atomic       x           y          z         Charge      Occupancy
        Label      (Angs)      (Angs)     (Angs)        (e)         (Frac)  
--------------------------------------------------------------------------------
      1 Al    c     -1.7080      2.5580     -1.2243     3.00000    1.000000    
      2 Al    c     -0.6010      0.0039     -2.4175     3.00000    1.000000    
      3 Al    c     -2.1231     -0.3411     -0.4519     3.00000    1.000000    
      4 F     c     -0.7025      3.6981     -0.2251     0.59000    1.000000    
      5 F     c     -3.1002      3.1584     -2.2270     0.59000    1.000000    
      6 F     c     -1.3803     -1.6760     -1.7148     0.59000    1.000000    
      7 F     c     -2.4381      1.4484      0.1185     0.59000    1.000000    
      8 F     c     -3.1000     -1.3076      0.7298     0.59000    1.000000    
      9 F     c      0.4817     -0.5103     -3.7749     0.59000    1.000000    
     10 F     c     -0.4099      1.8998     -2.4322     0.59000    1.000000    
     11 F     c     -2.5145      0.4613     -2.2385     0.59000    1.000000    
     12 F     c     -0.2339      0.1738     -0.4760     0.59000    1.000000    
     13 F     s     -0.7025 *    3.6981 *   -0.2251 *  -1.59000    1.000000    
     14 F     s     -3.1002 *    3.1584 *   -2.2270 *  -1.59000    1.000000    
     15 F     s     -1.3803 *   -1.6760 *   -1.7148 *  -1.59000    1.000000    
     16 F     s     -2.4381 *    1.4484 *    0.1185 *  -1.59000    1.000000    
     17 F     s     -3.1000 *   -1.3076 *    0.7298 *  -1.59000    1.000000    
     18 F     s      0.4817 *   -0.5103 *   -3.7749 *  -1.59000    1.000000    
     19 F     s     -0.4099 *    1.8998 *   -2.4322 *  -1.59000    1.000000    
     20 F     s     -2.5145 *    0.4613 *   -2.2385 *  -1.59000    1.000000    
     21 F     s     -0.2339 *    0.1738 *   -0.4760 *  -1.59000    1.000000    
--------------------------------------------------------------------------------


  Brillouin zone sampling points :

--------------------------------------------------------------------------------
  Point number          x          y          z            Weight
--------------------------------------------------------------------------------
        1           0.000000   0.000000   0.000000     1.00000000
--------------------------------------------------------------------------------


********************************************************************************
*  General input information                                                   *
********************************************************************************

  Species output for all configurations : 

--------------------------------------------------------------------------------
  Species    Type    Atomic    Atomic    Charge       Radii (Angs)     Library
                     Number     Mass       (e)     Cova   Ionic  VDW   Symbol
--------------------------------------------------------------------------------
    Al       Core       13      26.98   3.000000   1.350  0.000  2.050          
    F        Core        9      19.00   0.590000   0.710  0.000  1.300          
    F        Shell       9       0.00  -1.590000   0.710  0.000  1.300          
--------------------------------------------------------------------------------


  Accuracy factor for short range sums = 12.000

  Time limit = Infinity

  Maximum range for interatomic potentials =    100000.000000 Angstroms

  General interatomic potentials :

--------------------------------------------------------------------------------
Atom  Types   Potential      Parameter       Value         Units   Cutoffs(Ang)
  1     2                                                            Min /  Max 
--------------------------------------------------------------------------------
Al   c F    s Buckingham    Buckingham A     3760.0008    eV        0.000 10.000
                            Buckingham rho  0.22200000    Ang       
                            Buckingham C     0.0000000    eV*Ang^6  
--------------------------------------------------------------------------------
F    s F    s Buck 4 range  Buck4 A          1127.7000    eV        0.000 12.000
                            Buck4 rho       0.27530000    Ang       
                            Buck4 C          15.830000    eV*Ang^6  
                            Buck4 minimum    2.7900000    Ang       
--------------------------------------------------------------------------------
F    c F    s Spring (c-s)  Spring k 2       20.770000    eV*Ang^-2 0.000  0.800
                            Spring k 4       0.0000000    eV*Ang^-4 
--------------------------------------------------------------------------------

********************************************************************************
*  Output for configuration   1                                                *
********************************************************************************


  Components of energy : 

--------------------------------------------------------------------------------
  Interatomic potentials     =          10.04931727 eV    
  Monopole - monopole (real) =        -177.67647807 eV    
--------------------------------------------------------------------------------
  Total lattice energy       =        -167.62716079 eV    
--------------------------------------------------------------------------------
  Total lattice energy       =          -16173.4586 kJ/mol
--------------------------------------------------------------------------------


  Number of variables =       27

  Maximum number of calculations  =          2000
  Maximum Hessian update interval =            10
  Maximum step size               =   1.000000000
  Maximum parameter tolerance     =   0.000001000
  Maximum function  tolerance     =   0.000010000
  Maximum gradient  tolerance     =   0.000000010
  Maximum gradient  component     =   0.010000000

  Symmetry not applied to optimisation

  Newton-Raphson optimiser to be used

  BFGS hessian update to be used

  Lower half triangular hessian to be used

  Minimiser to switch to RFO
  When gradient norm is less than     0.010000

  Shell only optimisation

  Start of cluster optimisation :

  Cycle:      0 Energy:      -167.627161  Gnorm:      1.516566  CPU:    0.005
  ** Hessian calculated **
  Cycle:      1 Energy:      -184.766898  Gnorm:      0.612868  CPU:    0.007
  ** Hessian calculated **
  Cycle:      2 Energy:      -186.337557  Gnorm:      0.039443  CPU:    0.009
  Cycle:      3 Energy:      -186.347013  Gnorm:      0.006688  CPU:    0.011
  ** Hessian has required structure
  Cycle:      4 Energy:      -186.347285  Gnorm:      0.001481  CPU:    0.013
  ** Hessian has required structure
  Cycle:      5 Energy:      -186.347299  Gnorm:      0.000524  CPU:    0.015
  ** Hessian has required structure
  Cycle:      6 Energy:      -186.347301  Gnorm:      0.000151  CPU:    0.017
  ** Hessian has required structure
  Cycle:      7 Energy:      -186.347301  Gnorm:      0.000125  CPU:    0.019
  ** Hessian has required structure
  Cycle:      8 Energy:      -186.347301  Gnorm:      0.000061  CPU:    0.020
  ** Hessian has required structure
  Cycle:      9 Energy:      -186.347301  Gnorm:      0.000048  CPU:    0.022
  ** Hessian has required structure
  Cycle:     10 Energy:      -186.347301  Gnorm:      0.000036  CPU:    0.024
  ** Hessian has required structure
  Cycle:     11 Energy:      -186.347301  Gnorm:      0.000032  CPU:    0.025
  ** Hessian has required structure
  Cycle:     12 Energy:      -186.347301  Gnorm:      0.000000  CPU:    0.027
  ** Hessian has required structure

  XYZ File written as 005/0/sp_mod_40/sp_mod_40_eig.xyz



  **** Optimisation achieved ****


  Final energy =    -186.34730099 eV
  Final Gnorm  =       0.00000000

  Components of energy : 

--------------------------------------------------------------------------------
  Interatomic potentials     =          37.38758944 eV    
  Monopole - monopole (real) =        -223.73489043 eV    
--------------------------------------------------------------------------------
  Total lattice energy       =        -186.34730099 eV    
--------------------------------------------------------------------------------
  Total lattice energy       =          -17979.6660 kJ/mol
--------------------------------------------------------------------------------

  Final cartesian coordinates of atoms :

--------------------------------------------------------------------------------
   No.  Atomic        x           y          z          Radius
        Label       (Angs)      (Angs)     (Angs)       (Angs) 
--------------------------------------------------------------------------------
     1  Al    c    -1.707997    2.558027   -1.224327    0.000000
     2  Al    c    -0.601019    0.003863   -2.417510    0.000000
     3  Al    c    -2.123099   -0.341076   -0.451907    0.000000
     4  F     c    -0.702517    3.698139   -0.225058    0.000000
     5  F     c    -3.100228    3.158411   -2.227006    0.000000
     6  F     c    -1.380287   -1.675983   -1.714823    0.000000
     7  F     c    -2.438095    1.448359    0.118526    0.000000
     8  F     c    -3.100021   -1.307554    0.729775    0.000000
     9  F     c     0.481694   -0.510261   -3.774876    0.000000
    10  F     c    -0.409946    1.899827   -2.432238    0.000000
    11  F     c    -2.514473    0.461273   -2.238478    0.000000
    12  F     c    -0.233922    0.173775   -0.476049    0.000000
    13  F     s    -0.850663    3.525920   -0.372912    0.000000
    14  F     s    -2.892838    3.066283   -2.077878    0.000000
    15  F     s    -1.377736   -1.411217   -1.666881    0.000000
    16  F     s    -2.320472    1.368294   -0.097315    0.000000
    17  F     s    -2.944466   -1.153673    0.543479    0.000000
    18  F     s     0.309768   -0.428118   -3.561167    0.000000
    19  F     s    -0.577899    1.756978   -2.296035    0.000000
    20  F     s    -2.295058    0.387053   -2.081125    0.000000
    21  F     s    -0.447215    0.124213   -0.650649    0.000000
--------------------------------------------------------------------------------


  Final Cartesian derivatives :

--------------------------------------------------------------------------------
   No.  Atomic          x             y             z           Radius
        Label       (eV/Angs)     (eV/Angs)    (eV/Angs)      (eV/Angs)
--------------------------------------------------------------------------------
      1 Al    c       0.000000      0.000000      0.000000      0.000000
      2 Al    c       0.000000      0.000000      0.000000      0.000000
      3 Al    c       0.000000      0.000000      0.000000      0.000000
      4 F     c       0.000000      0.000000      0.000000      0.000000
      5 F     c       0.000000      0.000000      0.000000      0.000000
      6 F     c       0.000000      0.000000      0.000000      0.000000
      7 F     c       0.000000      0.000000      0.000000      0.000000
      8 F     c       0.000000      0.000000      0.000000      0.000000
      9 F     c       0.000000      0.000000      0.000000      0.000000
     10 F     c       0.000000      0.000000      0.000000      0.000000
     11 F     c       0.000000      0.000000      0.000000      0.000000
     12 F     c       0.000000      0.000000      0.000000      0.000000
     13 F     s       0.000000      0.000000     -0.000000      0.000000
     14 F     s       0.000000      0.000000     -0.000000      0.000000
     15 F     s      -0.000000     -0.000000     -0.000000      0.000000
     16 F     s      -0.000000     -0.000000     -0.000000      0.000000
     17 F     s      -0.000000     -0.000000      0.000000      0.000000
     18 F     s      -0.000000      0.000000      0.000000      0.000000
     19 F     s       0.000000      0.000000      0.000000      0.000000
     20 F     s      -0.000000     -0.000000      0.000000      0.000000
     21 F     s      -0.000000     -0.000000      0.000000      0.000000
--------------------------------------------------------------------------------
  Maximum abs         0.000000      0.000000      0.000000      0.000000
--------------------------------------------------------------------------------


  Born effective charge tensors : 

-------------------------------------------------------------------------------
  Atom             x           y             z
-------------------------------------------------------------------------------
    1 Al    x       0.7310     -0.0755     -0.4520
            y      -0.0576      1.5558      0.0128
            z      -0.4434     -0.0051      0.9093
-------------------------------------------------------------------------------
    2 Al    x       1.0659      0.0994      0.1959
            y       0.0895      1.2655     -0.1411
            z       0.1796     -0.1420      0.9784
-------------------------------------------------------------------------------
    3 Al    x       1.0449     -0.2054      0.1316
            y      -0.2075      1.1564      0.1558
            z       0.1411      0.1701      1.1001
-------------------------------------------------------------------------------
    4 F     x      -0.3453      0.1779      0.1759
            y       0.2145     -0.3700      0.1969
            z       0.1815      0.1679     -0.3507
-------------------------------------------------------------------------------
    5 F     x      -0.1941     -0.0956      0.2494
            y      -0.1491     -0.5501     -0.1239
            z       0.2384     -0.0791     -0.3491
-------------------------------------------------------------------------------
    6 F     x      -0.3506     -0.0101      0.0704
            y       0.0209     -0.4301      0.0144
            z       0.0660     -0.0089     -0.3852
-------------------------------------------------------------------------------
    7 F     x      -0.2970      0.0192      0.0342
            y       0.0250     -0.4121     -0.0234
            z       0.0410     -0.0121     -0.3332
-------------------------------------------------------------------------------
    8 F     x      -0.3654      0.1764     -0.2131
            y       0.1818     -0.3771     -0.2128
            z      -0.2182     -0.2068     -0.2819
-------------------------------------------------------------------------------
    9 F     x      -0.3254     -0.0965     -0.2762
            y      -0.1036     -0.5008      0.1324
            z      -0.2752      0.1282     -0.1981
-------------------------------------------------------------------------------
   10 F     x      -0.3120      0.0079      0.0406
            y      -0.0091     -0.4259      0.0103
            z       0.0351      0.0072     -0.3117
-------------------------------------------------------------------------------
   11 F     x      -0.3271     -0.0396      0.0220
            y      -0.0257     -0.4956     -0.0234
            z       0.0289     -0.0418     -0.3938
-------------------------------------------------------------------------------
   12 F     x      -0.3249      0.0419      0.0213
            y       0.0209     -0.4160      0.0019
            z       0.0253      0.0224     -0.3843
-------------------------------------------------------------------------------




  Moment of inertia tensor (10^-46 x kgm^2): 

-------------------------------------------------------------------------------
                x           y           z           Principal axis system
-------------------------------------------------------------------------------
       x        175.30        4.31       27.19          113.590172
       y          4.31      114.20       -1.48          141.841175
       z         27.19       -1.48      163.05          197.122536
-------------------------------------------------------------------------------
  Centre of mass (Ang) =    -1.485023     0.791821    -1.361489
-------------------------------------------------------------------------------


  Vibrational Frequency Calculation : 

--------------------------------------------------------------------------------

  Frequencies (cm-1) and Eigenvectors : 

  Frequency      -0.0000    0.0000    0.0000   13.1790   17.2172   21.6755
  IR Intensity    0.0000    0.0000    0.0000    0.0003    0.0002    0.0000
     in X         0.0000    0.0000    0.0000    0.0003    0.0000    0.0000
     in Y         0.0000    0.0000    0.0000    0.0000    0.0000    0.0000
     in Z         0.0000    0.0000    0.0000    0.0000    0.0002    0.0000
  Raman Intsty    0.0000    0.0000    0.0000    0.0000    0.0026    0.0007

     1 x      -0.120226  0.192917 -0.235410 -0.297545  0.024619  0.007019
     1 y       0.254039  0.203007  0.036624 -0.035998 -0.018248  0.002561
     1 z      -0.167628  0.169293  0.224343 -0.028149  0.288789 -0.003566
     2 x      -0.120226  0.192917 -0.235410  0.150074 -0.029197  0.188517
     2 y       0.254039  0.203007  0.036624  0.133722  0.156020  0.006278
     2 z      -0.167628  0.169293  0.224343  0.025728 -0.143617  0.153768
     3 x      -0.120226  0.192917 -0.235410  0.173202  0.004356 -0.197945
     3 y       0.254039  0.203007  0.036624 -0.094534 -0.136156 -0.008430
     3 z      -0.167628  0.169293  0.224343  0.004012 -0.169422 -0.150460
     4 x      -0.100891  0.161892 -0.197552 -0.419766  0.049052 -0.137991
     4 y       0.213185  0.170360  0.030734  0.116289 -0.161721 -0.033645
     4 z      -0.140670  0.142068  0.188265 -0.019795  0.380849  0.182527
     5 x      -0.100891  0.161892 -0.197552 -0.317991  0.008918  0.177952
     5 y       0.213185  0.170360  0.030734 -0.230739  0.131259  0.042773
     5 z      -0.140670  0.142068  0.188265 -0.048978  0.346634 -0.217668
     6 x      -0.100891  0.161892 -0.197552  0.352277 -0.020337  0.019973
     6 y       0.213185  0.170360  0.030734  0.010692  0.044631  0.003966
     6 z      -0.140670  0.142068  0.188265  0.031248 -0.327171 -0.028689
     7 x      -0.100891  0.161892 -0.197552 -0.117821  0.026290 -0.232696
     7 y       0.213185  0.170360  0.030734 -0.117010 -0.188699 -0.012778
     7 z      -0.140670  0.142068  0.188265 -0.023616  0.102143 -0.145528
     8 x      -0.100891  0.161892 -0.197552  0.263108  0.013058 -0.380406
     8 y       0.213185  0.170360  0.030734 -0.200775 -0.265913 -0.012624
     8 z      -0.140670  0.142068  0.188265  0.001328 -0.258516 -0.307766
     9 x      -0.100891  0.161892 -0.197552  0.219916 -0.053072  0.384545
     9 y       0.213185  0.170360  0.030734  0.245659  0.308635  0.015092
     9 z      -0.140670  0.142068  0.188265  0.045923 -0.210676  0.305700
    10 x      -0.100891  0.161892 -0.197552 -0.142284 -0.010691  0.190032
    10 y       0.213185  0.170360  0.030734  0.138578  0.131969  0.002607
    10 z      -0.140670  0.142068  0.188265 -0.000534  0.129475  0.195284
    11 x      -0.100891  0.161892 -0.197552  0.059059 -0.019000  0.135429
    11 y       0.213185  0.170360  0.030734 -0.155337  0.119063  0.029831
    11 z      -0.140670  0.142068  0.188265 -0.012373 -0.030426 -0.176138
    12 x      -0.100891  0.161892 -0.197552  0.072838  0.006046 -0.153968
    12 y       0.213185  0.170360  0.030734  0.188840 -0.121150 -0.035711
    12 z      -0.140670  0.142068  0.188265  0.024900 -0.103414  0.192588


  Frequency      66.6179   94.6012   98.3962  136.0094  158.3350  175.2356
  IR Intensity    0.0012    0.0001    0.0237    0.0039    0.0159    0.0023
     in X         0.0007    0.0000    0.0139    0.0024    0.0073    0.0010
     in Y         0.0003    0.0000    0.0000    0.0002    0.0003    0.0001
     in Z         0.0003    0.0001    0.0097    0.0013    0.0083    0.0013
  Raman Intsty    0.1230    0.0001    0.3718    2.8812    0.0016    0.0129

     1 x       0.039965  0.008334 -0.088424  0.103672  0.008734  0.011904
     1 y      -0.025718 -0.001903 -0.051096  0.255841 -0.002733  0.028156
     1 z       0.021685 -0.014219 -0.080398  0.125323 -0.021090  0.035776
     2 x      -0.025686  0.000234 -0.062575 -0.136385 -0.050214 -0.236302
     2 y       0.019195  0.010461  0.034467 -0.132173 -0.126221 -0.022255
     2 z      -0.030815  0.014445 -0.064571 -0.052576  0.111401 -0.129498
     3 x      -0.038161 -0.006463 -0.072508 -0.069680 -0.127599  0.158736
     3 y       0.020970 -0.010566  0.015981 -0.110312  0.094267  0.013463
     3 z      -0.006957  0.011711 -0.041341 -0.151341  0.094437  0.170807
     4 x       0.307089 -0.246753  0.000172  0.025031  0.309306 -0.225058
     4 y      -0.395780 -0.051019 -0.164679  0.305874  0.054489  0.046089
     4 z       0.167222  0.299744 -0.003177  0.077498 -0.387247  0.245247
     5 x       0.092316  0.307376 -0.037980  0.077084  0.121610  0.353683
     5 y       0.256050  0.062699  0.148403  0.131034  0.024136  0.113886
     5 z       0.106019 -0.390633 -0.003776  0.069743 -0.161277 -0.391411
     6 x       0.269784 -0.013293 -0.364618  0.059341  0.023720  0.005490
     6 y      -0.009876  0.001791  0.083163 -0.220227  0.010181 -0.003981
     6 z       0.218390  0.021872 -0.264435  0.008217 -0.045280  0.017619
     7 x      -0.332534 -0.253965 -0.088874  0.095947 -0.135544  0.248870
     7 y       0.001588 -0.006900 -0.004214 -0.035843  0.136740  0.037540
     7 z      -0.152751 -0.155490 -0.015487 -0.217124  0.070390  0.183034
     8 x       0.069014  0.332255  0.455132  0.067613  0.156163 -0.086534
     8 y      -0.038386 -0.027223 -0.084024  0.243992 -0.422160 -0.176603
     8 z       0.033595  0.275239  0.312649  0.247569 -0.117598 -0.192956
     9 x       0.038230 -0.363507  0.401303  0.191807  0.029690  0.128266
     9 y      -0.058993  0.018046 -0.099243  0.282549  0.466045 -0.012502
     9 z       0.048776 -0.280001  0.356139  0.055081 -0.069918  0.151453
    10 x      -0.216669  0.219401 -0.023786 -0.177872 -0.013103 -0.234571
    10 y       0.021784 -0.006019  0.025833 -0.102719 -0.165326 -0.028221
    10 z      -0.284614  0.218576 -0.082290  0.130813  0.101111 -0.191134
    11 x      -0.072854  0.052900 -0.032468 -0.168886 -0.122534 -0.223694
    11 y      -0.196754  0.018055  0.231108 -0.403877 -0.018711 -0.054532
    11 z      -0.091975 -0.061539 -0.002034 -0.200299  0.169559  0.253676
    12 x      -0.125917 -0.036922 -0.042542 -0.048050 -0.167826  0.111792
    12 y       0.403152 -0.007037 -0.135574 -0.216698 -0.044058  0.055249
    12 z      -0.025491  0.058008 -0.075575 -0.077843  0.220107 -0.167385


  Frequency     175.4857  188.4504  220.9870  236.5135  245.7497  261.3965
  IR Intensity    0.0072    0.0064    0.0102    0.0008    0.1092    0.0031
     in X         0.0000    0.0023    0.0039    0.0002    0.0024    0.0027
     in Y         0.0072    0.0033    0.0003    0.0001    0.1065    0.0002
     in Z         0.0000    0.0009    0.0060    0.0005    0.0003    0.0002
  Raman Intsty    0.3452    0.0015    0.0000    0.0005    0.4542    0.0004

     1 x      -0.113193 -0.241819  0.228768 -0.009426  0.148027 -0.034504
     1 y      -0.151940  0.045360  0.052539  0.010563 -0.405628 -0.007219
     1 z      -0.114905 -0.187399 -0.280270  0.004650  0.034622  0.209744
     2 x       0.032763  0.153081  0.008602  0.290295  0.035567  0.194296
     2 y      -0.007477 -0.069369 -0.327738  0.070656 -0.105240 -0.221437
     2 z       0.000784  0.133471  0.038618  0.295622 -0.083587 -0.080690
     3 x       0.082245  0.175176 -0.096565 -0.331403 -0.064598  0.020088
     3 y      -0.005737 -0.057340  0.311278 -0.074997 -0.146334  0.262084
     3 z       0.105857  0.109825  0.067843 -0.230705  0.034018 -0.124912
     4 x       0.080288 -0.127904 -0.266083 -0.036401 -0.331923 -0.037685
     4 y      -0.459501 -0.081276 -0.056280 -0.016769  0.236441  0.104573
     4 z       0.084170 -0.115065  0.341318  0.063050 -0.221740  0.083885
     5 x      -0.044932 -0.091135 -0.200351  0.090131  0.268063  0.060469
     5 y      -0.168945  0.709866 -0.052501  0.017446  0.237549 -0.094844
     5 z      -0.201091  0.060517  0.252370 -0.129270  0.252927  0.023394
     6 x      -0.056536  0.032312 -0.152794  0.026730 -0.017803  0.193714
     6 y       0.008823 -0.053027 -0.035908 -0.001217 -0.044674  0.039103
     6 z      -0.036561  0.020730  0.199415 -0.038707 -0.007311 -0.287370
     7 x       0.013055 -0.008895  0.104234  0.424083 -0.119781 -0.343109
     7 y      -0.015908 -0.018264  0.262884 -0.049743 -0.161106  0.185319
     7 z       0.058383 -0.132880 -0.074086  0.174035  0.146212  0.224799
     8 x      -0.231928 -0.073210  0.115687  0.077808 -0.127144  0.104261
     8 y       0.427205 -0.036613 -0.148324 -0.050492  0.087748  0.261595
     8 z       0.200145 -0.080095 -0.132297  0.126012  0.186021 -0.088485
     9 x       0.128907 -0.081921  0.072397 -0.151346  0.121643  0.095644
     9 y       0.516242 -0.034376  0.180810  0.020607  0.164308 -0.216015
     9 z      -0.121949 -0.065263 -0.102551 -0.037914 -0.126370 -0.189973
    10 x      -0.033245 -0.121529  0.085167 -0.282370  0.140029 -0.352784
    10 y      -0.013403 -0.044435 -0.213321  0.106411 -0.083882 -0.229519
    10 z      -0.092448  0.014299 -0.177908 -0.363676 -0.210705 -0.025953
    11 x       0.037302  0.137356  0.071779  0.114217  0.078933  0.042337
    11 y       0.028103 -0.037803  0.018087  0.019527  0.110938  0.062609
    11 z       0.120223  0.100279 -0.091349 -0.127137  0.068847  0.150994
    12 x       0.104926  0.231923  0.002175 -0.202633 -0.153817  0.022801
    12 y      -0.125812 -0.307134  0.001559 -0.053186  0.235823 -0.152655
    12 z      -0.001024  0.130869 -0.007796  0.250709 -0.070067  0.103774


  Frequency     263.7096  311.6937  321.5856  346.7398  384.7860  396.3179
  IR Intensity    0.0132    0.0044    0.0276    0.0036    0.0032    0.0015
     in X         0.0049    0.0002    0.0181    0.0003    0.0000    0.0007
     in Y         0.0009    0.0001    0.0000    0.0028    0.0030    0.0006
     in Z         0.0073    0.0041    0.0095    0.0005    0.0001    0.0002
  Raman Intsty    0.0084    0.0014    0.1738    0.0212    0.6982    0.9247

     1 x      -0.218183  0.147483 -0.033184  0.043393 -0.035786 -0.047890
     1 y      -0.083977  0.027926 -0.056682 -0.186393  0.146065  0.122732
     1 z      -0.075055 -0.198867 -0.008845  0.000524 -0.030745  0.016473
     2 x       0.019934 -0.113234 -0.165942  0.026497  0.248726 -0.193015
     2 y      -0.109815  0.073991  0.046226  0.194157 -0.002695 -0.010888
     2 z      -0.090855 -0.013852 -0.151262 -0.016867  0.057931 -0.337882
     3 x      -0.065617 -0.005967 -0.193284 -0.025902 -0.248863  0.174361
     3 y       0.124745 -0.078481  0.043623  0.177292 -0.034008 -0.054871
     3 z      -0.118681  0.054281 -0.121224  0.083090 -0.069615  0.339871
     4 x      -0.064879 -0.089233 -0.027849 -0.096070  0.067066  0.071852
     4 y      -0.241065 -0.029374 -0.049210 -0.032241  0.027009  0.041263
     4 z      -0.051279  0.101087 -0.048694 -0.081002  0.060891  0.058368
     5 x      -0.100685 -0.094297 -0.002639  0.107491 -0.108099 -0.077513
     5 y       0.232776 -0.011783  0.028053  0.009601  0.052683  0.026927
     5 z      -0.046136  0.110285 -0.014607  0.087828 -0.066893 -0.069057
     6 x       0.148915  0.406603  0.485315 -0.044640 -0.029370  0.036677
     6 y       0.022637  0.078179 -0.047442  0.294182 -0.251483 -0.010437
     6 z      -0.079099 -0.413552  0.448048  0.011015 -0.013635 -0.060729
     7 x       0.356087  0.100908 -0.011379 -0.151058 -0.107696  0.041682
     7 y       0.066212  0.087138  0.010333  0.145621  0.209795  0.140636
     7 z       0.343019 -0.256190  0.115505  0.290817  0.127977  0.132484
     8 x       0.086139 -0.064989  0.046439  0.022596 -0.070338 -0.141710
     8 y       0.122822  0.044608 -0.014857 -0.003612 -0.104600 -0.139111
     8 z      -0.010154  0.103679  0.033639 -0.035215  0.098310  0.151411
     9 x       0.083326 -0.057990  0.046700 -0.027605  0.082257  0.143383
     9 y      -0.089474 -0.077881  0.005563 -0.015456 -0.058327 -0.083331
     9 z      -0.062687  0.084618  0.034851  0.028087 -0.116974 -0.157249
    10 x       0.168995  0.259292  0.064782  0.214095  0.191006 -0.044020
    10 y      -0.182092 -0.012609  0.051413  0.224254  0.274151  0.119953
    10 z       0.428272 -0.151622 -0.008522 -0.176028 -0.016985 -0.033107
    11 x      -0.172855 -0.276190 -0.075337 -0.201728  0.125228  0.468746
    11 y      -0.138613 -0.023088  0.421399 -0.514345 -0.242073 -0.060114
    11 z      -0.133458  0.342222 -0.054309 -0.263576  0.452806 -0.212617
    12 x      -0.190609 -0.217807 -0.058421  0.124501 -0.107247 -0.419800
    12 y       0.289077 -0.083117 -0.444775 -0.328523 -0.037476 -0.103677
    12 z      -0.049348  0.268275 -0.170666  0.058537 -0.474938  0.168494


  Frequency     417.9917  435.7211  479.5158  497.2771  548.3344  552.4271
  IR Intensity    0.0003    0.0234    0.0016    0.0125    0.0240    0.0861
     in X         0.0003    0.0047    0.0001    0.0012    0.0000    0.0617
     in Y         0.0000    0.0005    0.0014    0.0113    0.0004    0.0000
     in Z         0.0000    0.0181    0.0000    0.0000    0.0236    0.0244
  Raman Intsty    0.0495    0.0043    6.7407    1.9227    0.0001    0.0000

     1 x       0.018135 -0.072142  0.058787  0.028526  0.021750  0.016853
     1 y      -0.002086 -0.010516 -0.253209 -0.101518  0.006406  0.001410
     1 z       0.011559  0.084808  0.001095 -0.001933 -0.029769 -0.013227
     2 x       0.216334  0.063911 -0.059980  0.090487  0.016504 -0.370409
     2 y       0.043063  0.040608  0.104175 -0.038383 -0.439240 -0.126717
     2 z      -0.103268 -0.203277  0.008601 -0.032890  0.171997 -0.249471
     3 x      -0.197217  0.136474  0.022069 -0.036363 -0.021324 -0.402561
     3 y      -0.013005  0.012497  0.116236 -0.054883  0.381789  0.134762
     3 z       0.094550 -0.156543  0.000281  0.059873  0.284342 -0.221605
     4 x       0.011512 -0.001309 -0.192334 -0.070516  0.038702 -0.023166
     4 y       0.018752 -0.002446 -0.206370 -0.091926  0.022241 -0.041218
     4 z       0.014608  0.002977 -0.190099 -0.072225 -0.021314 -0.042507
     5 x       0.022944 -0.010398  0.272000  0.126956  0.023615 -0.002180
     5 y      -0.038450  0.006260 -0.107955 -0.067374  0.000116  0.020673
     5 z       0.014092 -0.001053  0.196455  0.088973 -0.029857 -0.012404
     6 x      -0.012814 -0.278598  0.003473 -0.008250  0.105597  0.056768
     6 y       0.638345 -0.088534  0.007408 -0.327525  0.019013  0.044519
     6 z       0.147677  0.356339  0.003713 -0.062570 -0.151868 -0.021915
     7 x       0.123603  0.066998  0.156123  0.047918  0.028122  0.039695
     7 y      -0.103074 -0.157629  0.240508  0.387465 -0.481601 -0.132789
     7 z      -0.269169 -0.109919 -0.293692 -0.109526 -0.072624  0.015021
     8 x      -0.170870  0.202930  0.136011 -0.166284  0.016330 -0.005801
     8 y      -0.184721  0.179906  0.109935 -0.178802  0.043124 -0.027858
     8 z       0.212336 -0.245466 -0.166672  0.197926 -0.033646  0.061000
     9 x       0.211985  0.222783 -0.143189  0.184389  0.009822  0.024852
     9 y      -0.108839 -0.083615  0.044662 -0.103642 -0.026232 -0.006489
     9 z      -0.273393 -0.267296  0.181491 -0.238098 -0.031532  0.020440
    10 x      -0.175078  0.097095 -0.290407 -0.156730 -0.029908  0.024060
    10 y      -0.159162  0.205385  0.156006  0.347766  0.463666  0.164505
    10 z       0.162290 -0.060869  0.259033  0.158981  0.043316  0.047040
    11 x      -0.068022 -0.199105  0.276435 -0.318220 -0.101389  0.347695
    11 y      -0.050262 -0.056030 -0.119528  0.176534  0.051524 -0.159390
    11 z       0.116069  0.288275  0.155070 -0.179770 -0.082752  0.210165
    12 x       0.012349 -0.253215 -0.242989  0.262249 -0.111065  0.439095
    12 y      -0.045921 -0.054048 -0.085583  0.089616 -0.031023  0.126780
    12 z      -0.127896  0.364726 -0.157188  0.186458 -0.128039  0.300274


  Frequency     597.4722  639.5342  685.8050  787.0254  795.2568  912.2516
  IR Intensity    0.0974    0.1583    0.0111    0.0224    0.0047    0.0001
     in X         0.0377    0.0008    0.0003    0.0084    0.0025    0.0000
     in Y         0.0013    0.1558    0.0108    0.0004    0.0007    0.0001
     in Z         0.0585    0.0018    0.0000    0.0136    0.0015    0.0000
  Raman Intsty    0.0000    0.0038    0.5240    0.0000    0.0565    2.6852

     1 x      -0.464511 -0.021880 -0.127091 -0.035116  0.562448 -0.000824
     1 y      -0.098329  0.136378  0.647955 -0.006263  0.093104  0.124738
     1 z       0.582542 -0.006009  0.005384  0.012500  0.465998  0.021337
     2 x      -0.030203  0.077677 -0.040146  0.321351  0.015141  0.389636
     2 y      -0.146596  0.520895 -0.169324 -0.163104  0.002732 -0.085368
     2 z       0.037827 -0.069917  0.068704 -0.392905  0.017683 -0.480305
     3 x      -0.059246 -0.131704  0.086643  0.297125  0.035748 -0.367386
     3 y       0.138775  0.469902 -0.143683  0.290964  0.019847 -0.248234
     3 z       0.070168  0.197728 -0.085435 -0.333667 -0.005229  0.438346
     4 x       0.014022 -0.082771 -0.255543  0.003473 -0.263704 -0.019974
     4 y      -0.000729 -0.086437 -0.325815  0.006721 -0.279323 -0.023935
     4 z      -0.026792 -0.080420 -0.260070  0.011795 -0.258453 -0.020135
     5 x       0.024798  0.108489  0.337620  0.008296 -0.375875  0.006639
     5 y       0.001046 -0.051677 -0.163293 -0.004668  0.151153 -0.007981
     5 z      -0.017755  0.077838  0.240203  0.010574 -0.272560  0.003975
     6 x       0.032595 -0.002955 -0.002722 -0.052964 -0.012506 -0.001628
     6 y       0.002615 -0.398419  0.120126 -0.011839  0.006366 -0.044750
     6 z      -0.043527 -0.068738  0.017886  0.065000 -0.006270 -0.008077
     7 x       0.183518  0.029137 -0.059848 -0.000427 -0.011703  0.005286
     7 y       0.197072 -0.298845 -0.037914 -0.038416  0.003117  0.005425
     7 z      -0.333041 -0.045321  0.116152 -0.004650 -0.020018 -0.001197
     8 x      -0.000775 -0.061995 -0.026249 -0.241824 -0.015420  0.163376
     8 y      -0.024419 -0.084278 -0.020985 -0.235376 -0.016525  0.161460
     8 z       0.001202  0.073398  0.029753  0.292405  0.015989 -0.196892
     9 x      -0.001019  0.069649  0.028140 -0.268833  0.001168 -0.181845
     9 y       0.020621 -0.054381 -0.010506  0.124378 -0.003604  0.086487
     9 z       0.001725 -0.088361 -0.037285  0.336491 -0.004120  0.227683
    10 x       0.305909  0.002938  0.099603 -0.001474 -0.022123 -0.002272
    10 y      -0.091787 -0.298059 -0.000173  0.038353  0.002639  0.004535
    10 z      -0.281929 -0.022224 -0.084040  0.007588 -0.006706  0.005874
    11 x       0.046996  0.009728 -0.002391 -0.065367 -0.015001 -0.072917
    11 y       0.009592 -0.042135  0.025587 -0.006897  0.003945  0.038681
    11 z      -0.059546 -0.000223  0.003050  0.061707 -0.008818 -0.038322
    12 x       0.054076  0.018234 -0.022573 -0.076034 -0.015712  0.077803
    12 y       0.012483 -0.028952  0.013837 -0.017155 -0.005620  0.028967
    12 z      -0.063207  0.008909 -0.012127  0.070006 -0.009185  0.051665




--------------------------------------------------------------------------------
  Vibrational properties (for cluster):  Temperature  =       0.000 K
--------------------------------------------------------------------------------
  Zero point energy            =        0.708650 eV
--------------------------------------------------------------------------------

  Phonon density of states : 

--------------------------------------------------------------------------------
 Frequency (cm-1) Density of States                                             
--------------------------------------------------------------------------------
    0.00000 |************************************************************  0.086
   14.25393 |****************************************                      0.057
   28.50787 |                                                              0.000
   42.76180 |                                                              0.000
   57.01573 |********************                                          0.029
   71.26966 |                                                              0.000
   85.52360 |****************************************                      0.057
   99.77753 |                                                              0.000
  114.03146 |                                                              0.000
  128.28539 |********************                                          0.029
  142.53933 |                                                              0.000
  156.79326 |********************                                          0.029
  171.04719 |****************************************                      0.057
  185.30113 |********************                                          0.029
  199.55506 |                                                              0.000
  213.80899 |********************                                          0.029
  228.06292 |********************                                          0.029
  242.31686 |********************                                          0.029
  256.57079 |****************************************                      0.057
  270.82472 |                                                              0.000
  285.07865 |                                                              0.000
  299.33259 |********************                                          0.029
  313.58652 |********************                                          0.029
  327.84045 |                                                              0.000
  342.09439 |********************                                          0.029
  356.34832 |                                                              0.000
  370.60225 |********************                                          0.029
  384.85618 |********************                                          0.029
  399.11012 |                                                              0.000
  413.36405 |********************                                          0.029
  427.61798 |********************                                          0.029
  441.87191 |                                                              0.000
  456.12585 |                                                              0.000
  470.37978 |********************                                          0.029
  484.63371 |********************                                          0.029
  498.88765 |                                                              0.000
  513.14158 |                                                              0.000
  527.39551 |                                                              0.000
  541.64944 |****************************************                      0.057
  555.90338 |                                                              0.000
  570.15731 |                                                              0.000
  584.41124 |********************                                          0.029
  598.66517 |                                                              0.000
  612.91911 |                                                              0.000
  627.17304 |********************                                          0.029
  641.42697 |                                                              0.000
  655.68091 |                                                              0.000
  669.93484 |                                                              0.000
  684.18877 |********************                                          0.029
  698.44270 |                                                              0.000
  712.69664 |                                                              0.000
  726.95057 |                                                              0.000
  741.20450 |                                                              0.000
  755.45843 |                                                              0.000
  769.71237 |                                                              0.000
  783.96630 |****************************************                      0.057
  798.22023 |                                                              0.000
  812.47417 |                                                              0.000
  826.72810 |                                                              0.000
  840.98203 |                                                              0.000
  855.23596 |                                                              0.000
  869.48990 |                                                              0.000
  883.74383 |                                                              0.000
  897.99776 |********************                                          0.029
--------------------------------------------------------------------------------



  Time to end of optimisation =       0.0377 seconds


  Peak dynamic memory used =       0.65 MB 


  Timing analysis for GULP :

--------------------------------------------------------------------------------
  Task / Subroutine                                          Time (Seconds)
--------------------------------------------------------------------------------
  Calculation of real space energy and derivatives                0.0022
  Calculation of phonons                                          0.0017
  Calculation and manipulation of Hessian matrix                  0.0013
--------------------------------------------------------------------------------
  Total CPU time                                                  0.0377
--------------------------------------------------------------------------------


  Job Finished at 14:40.00 25th May        2022                               

