12
Properties=species:S:1:pos:R:3:forces:R:3 energy=-186.56188050 pbc="F F F"
Al    -0.34036633800000005    0.9385794599999999    -1.821625136    -0.003393    0.026594    -0.00262
Al    -0.447919014    1.0592772529999999    1.285879936    -0.004452    0.018178    -0.005329
Al    -3.032563719    0.526136489    -1.8608791420000002    0.003232    -0.01542    0.004829
F    -3.598239261    0.649684608    -3.6138634080000003    -0.001568    -0.000876    -0.00542
F    -1.4358709570000001    -0.590620301    -2.024428745    -0.012684    -0.011773    0.000104
F    -1.877665387    2.079785603    -1.7127425829999998    0.01527    0.001181    -0.000748
F    -1.9633551249999999    0.333693439    0.46514112399999996    -0.006973    -0.00082    -0.003274
F    0.635185327    1.070477243    -0.289915411    0.000633    -0.000973    -0.000456
F    -0.5744854749999999    2.903641497    1.6748067469999999    0.002295    0.004344    0.004537
F    0.553137415    -0.10384315799999999    2.374320245    0.009173    -0.020709    0.007901
F    -4.265217592    0.12592037    -0.586054065    -0.002104    0.001721    0.00086
F    0.756713627    1.228155437    -3.234737729    0.00057    -0.001449    -0.000384
