------------------------------------------------------------
          Invoking FHI-aims ...

          When using FHI-aims, please cite the following reference:

            Volker Blum, Ralf Gehrke, Felix Hanke, Paula Havu,
            Ville Havu, Xinguo Ren, Karsten Reuter, and Matthias Scheffler,
            'Ab Initio Molecular Simulations with Numeric Atom-Centered Orbitals',
            Computer Physics Communications 180, 2175-2196 (2009)

          In addition, many other developments in FHI-aims are likely important for
          your particular application. A partial list of references is given at the end of
          this file. Thank you for giving credit to the authors of these developments.

          For any questions about FHI-aims, please visit our slack channel at

            https://fhi-aims.slack.com

          and our main development and support site at

            https://aims-git.rz-berlin.mpg.de .

          The latter site, in particular, has a wiki to collect information, as well
          as an issue tracker to log discussions, suggest improvements, and report issues
          or bugs. https://aims-git.rz-berlin.mpg.de is also the main development site
          of the project and all new and updated code versions can be obtained there.
          Please send an email to aims-coordinators@fhi-berlin.mpg.de and we will add
          you to these sites. They are for you and everyone is welcome there.

------------------------------------------------------------



  Date     :  20220517, Time     :  121643.083
  Time zero on CPU 1             :   0.398230000000000E-01  s.
  Internal wall clock time zero  :           422021803.083  s.

  FHI-aims created a unique identifier for this run for later identification
  aims_uuid : 100793FE-4546-46AD-AE9F-53F9E6CC1C4C

  Build configuration of the current instance of FHI-aims
  -------------------------------------------------------
  FHI-aims version      : 210914
  Commit number         : GITDIR-NOTFOUND
  CMake host system     : Linux-3.10.0-693.17.1.el7.x86_64
  CMake version         : 3.21.1
  Fortran compiler      : /shared/ucl/apps/intel/2018.Update3/impi/2018.3.222/intel64/bin/mpiifort (Intel) version 18.0.3.20180410
  Fortran compiler flags: -O3 -ip -fp-model precise
  C compiler            : /shared/ucl/apps/intel/2018.Update3/compilers_and_libraries_2018.3.222/linux/bin/intel64/icc (Intel) version 18.0.3.20180410
  C compiler flags      : -O3 -ip -fp-model precise -std=gnu99
  ELPA2 kernel          : AVX2
  Using MPI
  Using ScaLAPACK
  Using LibXC
  Using i-PI
  Using RLSY
  Linking against: /shared/ucl/apps/intel/2019.Update5/compilers_and_libraries_2019.5.281/linux/mkl/lib/intel64/libmkl_intel_lp64.so
                   /shared/ucl/apps/intel/2019.Update5/compilers_and_libraries_2019.5.281/linux/mkl/lib/intel64/libmkl_sequential.so
                   /shared/ucl/apps/intel/2019.Update5/compilers_and_libraries_2019.5.281/linux/mkl/lib/intel64/libmkl_core.so
                   /shared/ucl/apps/intel/2019.Update5/compilers_and_libraries_2019.5.281/linux/mkl/lib/intel64/libmkl_blacs_intelmpi_lp64.so
                   /shared/ucl/apps/intel/2019.Update5/compilers_and_libraries_2019.5.281/linux/mkl/lib/intel64/libmkl_scalapack_lp64.so

  Using       24 parallel tasks.
  Task        0 on host node-k98a-011 reporting.
  Task        1 on host node-k98a-011 reporting.
  Task        2 on host node-k98a-011 reporting.
  Task        3 on host node-k98a-011 reporting.
  Task        4 on host node-k98a-011 reporting.
  Task        5 on host node-k98a-011 reporting.
  Task        6 on host node-k98a-011 reporting.
  Task        7 on host node-k98a-011 reporting.
  Task        8 on host node-k98a-011 reporting.
  Task        9 on host node-k98a-011 reporting.
  Task       10 on host node-k98a-011 reporting.
  Task       11 on host node-k98a-011 reporting.
  Task       12 on host node-k98a-011 reporting.
  Task       13 on host node-k98a-011 reporting.
  Task       14 on host node-k98a-011 reporting.
  Task       15 on host node-k98a-011 reporting.
  Task       16 on host node-k98a-011 reporting.
  Task       17 on host node-k98a-011 reporting.
  Task       18 on host node-k98a-011 reporting.
  Task       19 on host node-k98a-011 reporting.
  Task       20 on host node-k98a-011 reporting.
  Task       21 on host node-k98a-011 reporting.
  Task       22 on host node-k98a-011 reporting.
  Task       23 on host node-k98a-011 reporting.

  Performing system and environment tests:
  | Environment variable OMP_NUM_THREADS correctly set to 1.
  | Checking for ScaLAPACK...
  | Testing pdtran()...
  | All pdtran() tests passed.

  Obtaining array dimensions for all initial allocations:
  
  -----------------------------------------------------------------------
  Parsing control.in (first pass over file, find array dimensions only).
  The contents of control.in will be repeated verbatim below
  unless switched off by setting 'verbatim_writeout .false.' .
  in the first line of control.in .
  -----------------------------------------------------------------------
  
  #########################################################################################  Physical model
  #########################################################################################
  xc                 pbesol
  spin               none
  relativistic       atomic_zora scalar
  charge             0.0
  #  SCF convergence
  occupation_type    gaussian 0.01
  mixer              pulay
  n_max_pulay        10
  charge_mix_param   0.5
  sc_accuracy_rho    1E-5
  sc_accuracy_eev    1E-3
  sc_accuracy_etot   1E-6
  sc_accuracy_forces 1E-4
  sc_iter_limit      1500
  #  Relaxation
  #relax_geometry   bfgs 1.e-3
  
  ################################################################################
  #
  #  FHI-aims code project
  #  VB, Fritz-Haber Institut, 2009
  #
  #  Suggested "light" defaults for Al atom (to be pasted into control.in file)
  #  Be sure to double-check any results obtained with these settings for post-processing,
  #  e.g., with the "tight" defaults and larger basis sets.
  #
  ################################################################################
    species        Al
  #     global species definitions
      nucleus             13
      mass                26.9815386
  #
      l_hartree           4
  #
      cut_pot             3.5          1.5  1.0
      basis_dep_cutoff    1e-4
  #
      radial_base         41 5.0
      radial_multiplier   1
      angular_grids       specified
        division   0.6594  110
        division   0.8170  194
        division   0.9059  302
  #      division   1.0363  434
  #      division   1.1443  590
  #      division   1.2621  770
  #      division   2.8177  974
  #      outer_grid   974
        outer_grid   302
  ################################################################################
  #
  #  Definition of "minimal" basis
  #
  ################################################################################
  #     valence basis states
      valence      3  s   2.
      valence      3  p   1.
  #     ion occupancy
      ion_occ      3  s   1.
      ion_occ      2  p   6.
  ################################################################################
  #
  #  Suggested additional basis functions. For production calculations,
  #  uncomment them one after another (the most important basis functions are
  #  listed first).
  #
  #  Constructed for dimers: 2.0 A, 2.5 A, 3.0 A, 3.75 A, 4.5 A
  #
  ################################################################################
  #  "First tier" - improvements: -199.47 meV to -10.63 meV
       ionic 3 d auto
       ionic 3 p auto
  #     hydro 4 f 4.7
       ionic 3 s auto
  #  "Second tier" - improvements: -5.35 meV to -1.57 meV
  #     hydro 5 g 7
  #     hydro 3 d 6
  #     hydro 2 s 11.6
  #     hydro 2 p 0.9
  #  "Third tier" - improvements: -0.63 meV to -0.20 meV
  #     hydro 5 f 7.6
  #     hydro 4 p 7.2
  #     hydro 4 s 3.7
  #     hydro 4 d 7.6
  #  "Fourth tier" - improvements: -0.17 meV to -0.08 meV
  #     hydro 4 d 13.6
  #     hydro 5 g 11.2
  #     hydro 4 d 0.9
  #     hydro 1 s 0.4
  #     hydro 4 p 0.1
  #     hydro 5 f 9.8
  #  Further basis functions that fell out of the optimization - noise level...
  #     hydro 4 p 5
  
  ################################################################################
  #
  #  FHI-aims code project
  #  VB, Fritz-Haber Institut, 2009
  #
  #  Suggested "light" defaults for F atom (to be pasted into control.in file)
  #  Be sure to double-check any results obtained with these settings for post-processing,
  #  e.g., with the "tight" defaults and larger basis sets.
  #
  ################################################################################
    species        F
  #     global species definitions
      nucleus             9
      mass                18.9984032
  #
      l_hartree           4
  #
      cut_pot             3.5  1.5  1.0
      basis_dep_cutoff    1e-4
  #
      radial_base         37 5.0
      radial_multiplier   1
      angular_grids specified
        division   0.4014  110
        division   0.5291  194
        division   0.6019  302
  #      division   0.6814  434
  #      division   0.7989  590
  #      division   0.8965  770
  #      division   1.3427  974
  #      outer_grid   974
        outer_grid   302
  ################################################################################
  #
  #  Definition of "minimal" basis
  #
  ################################################################################
  #     valence basis states
      valence      2  s   2.
      valence      2  p   5.
  #     ion occupancy
      ion_occ      2  s   1.
      ion_occ      2  p   4.
  ################################################################################
  #
  #  Suggested additional basis functions. For production calculations,
  #  uncomment them one after another (the most important basis functions are
  #  listed first).
  #
  #  Constructed for dimers: 1.2 A, 1.418 A, 1.75 A, 2.25 A, 3.25 A
  #
  ################################################################################
  #  "First tier" - improvements: -149.44 meV to -45.88 meV
       hydro 2 p 1.7
       hydro 3 d 7.4
       hydro 3 s 6.8
  #  "Second tier" - improvements: -12.96 meV to -1.56 meV
  #     hydro 4 f 11.2
  #     ionic 2 p auto
  #     hydro 1 s 0.75
  #     hydro 4 d 8.8
  #     hydro 5 g 16.8
  #  "Third tier" - improvements: -0.58 meV to -0.05 meV
  #     hydro 3 p 6.2
  #     hydro 3 s 3.2
  #     hydro 4 f 9.6
  #     hydro 3 s 19.6
  #     hydro 4 d 8.6
  #     hydro 5 g 14.4
  # Further basis functions: -0.05 meV and below
  #     hydro 3 p 4.2
  
  -----------------------------------------------------------------------
  Completed first pass over input file control.in .
  -----------------------------------------------------------------------
  
  
  -----------------------------------------------------------------------
  Parsing geometry.in (first pass over file, find array dimensions only).
  The contents of geometry.in will be repeated verbatim below
  unless switched off by setting 'verbatim_writeout .false.' .
  in the first line of geometry.in .
  -----------------------------------------------------------------------
  
  atom -1.680099189 2.543936685 -1.214358006 Al
  atom -0.543476370 0.013406004 -2.366373156 Al
  atom -2.223171986 -0.328353312 -0.523229049 Al
  atom -0.584531680 3.446278911 -0.048630973 F
  atom -2.968947170 3.331054266 -2.242962519 F
  atom -1.222605688 -1.683406237 -1.581276554 F
  atom -2.717383680 1.451254110 -0.049748615 F
  atom -3.207806530 -1.330440146 0.619781764 F
  atom 0.647597890 -0.546000060 -3.610786800 F
  atom -0.457253693 1.911111322 -2.529809122 F
  atom -2.495615357 0.355976551 -2.363249828 F
  atom -0.373814363 0.400413780 -0.421369588 F
  
  -----------------------------------------------------------------------
  Completed first pass over input file geometry.in .
  -----------------------------------------------------------------------
  

  Basic array size parameters:
  | Number of species                 :        2
  | Number of atoms                   :       12
  | Max. basis fn. angular momentum   :        2
  | Max. atomic/ionic basis occupied n:        3
  | Max. number of basis fn. types    :        3
  | Max. radial fns per species/type  :        5
  | Max. logarithmic grid size        :     1340
  | Max. radial integration grid size :       41
  | Max. angular integration grid size:      302
  | Max. angular grid division number :        8
  | Radial grid for Hartree potential :     1340
  | Number of spin channels           :        1

------------------------------------------------------------
          Reading file control.in.
------------------------------------------------------------
  XC: Using PBEsol gradient-corrected functionals.
  Spin treatment: No spin polarisation.
  Scalar relativistic treatment of kinetic energy: on-site free-atom approximation to ZORA.
  Charge =   0.000000E+00: Neutral system requested explicitly.
  Occupation type: Gaussian broadening, width =   0.100000E-01 eV.
  Using pulay charge density mixing.
  Pulay mixing - number of memorized iterations:   10
  Charge density mixing - mixing parameter:     0.5000
  Convergence accuracy of self-consistent charge density:  0.1000E-04
  Convergence accuracy of sum of eigenvalues:  0.1000E-02
  Convergence accuracy of total energy:  0.1000E-05
  Convergence accuracy of forces:  0.1000E-03
  Maximum number of s.-c. iterations  :  1500
 
  Reading configuration options for species Al                  .
  | Found nuclear charge :  13.0000
  | Found atomic mass :    26.9815386000000      amu
  | Found l_max for Hartree potential  :   4
  | Found cutoff potl. onset [A], width [A], scale factor :    3.50000    1.50000    1.00000
  | Threshold for basis-dependent cutoff potential is   0.100000E-03
  | Found data for basic radial integration grid :    41 points, outermost radius =    5.000 A
  | Found multiplier for basic radial grid :   1
  | Found angular grid specification: user-specified.
  | Specified grid contains     4 separate shells.
  | Check grid settings after all constraints further below.
  | Found free-atom valence shell :  3 s   2.000
  | Found free-atom valence shell :  3 p   1.000
  | Found free-ion valence shell :  3 s   1.000
  | Found free-ion valence shell :  2 p   6.000
  | Found ionic basis function :  3 d , default cutoff radius.
  | Found ionic basis function :  3 p , default cutoff radius.
  | Found ionic basis function :  3 s , default cutoff radius.
  Species Al                  : Missing cutoff potential type.
  Defaulting to exp(1/x)/(1-x)^2 type cutoff potential.
  Species Al: No 'logarithmic' tag. Using default grid for free atom:
  | Default logarithmic grid data [bohr] : 0.1000E-03 0.1000E+03 0.1012E+01
  | Will include ionic basis functions of  2.0-fold positive Al                   ion.
  Species Al: On-site basis accuracy parameter (for Gram-Schmidt orthonormalisation) not specified.
  Using default value basis_acc =  0.1000000E-03.
  Species Al                  : Using default innermost maximum threshold i_radial=  2 for radial functions.
  Species Al                  : Default cutoff onset for free atom density etc. : 0.35000000E+01 AA.
  Species Al                  : Basic radial grid will be enhanced according to radial_multiplier =   1, to contain    41 grid points.
 
  Reading configuration options for species F                   .
  | Found nuclear charge :   9.0000
  | Found atomic mass :    18.9984032000000      amu
  | Found l_max for Hartree potential  :   4
  | Found cutoff potl. onset [A], width [A], scale factor :    3.50000    1.50000    1.00000
  | Threshold for basis-dependent cutoff potential is   0.100000E-03
  | Found data for basic radial integration grid :    37 points, outermost radius =    5.000 A
  | Found multiplier for basic radial grid :   1
  | Found angular grid specification: user-specified.
  | Specified grid contains     4 separate shells.
  | Check grid settings after all constraints further below.
  | Found free-atom valence shell :  2 s   2.000
  | Found free-atom valence shell :  2 p   5.000
  | Found free-ion valence shell :  2 s   1.000
  | Found free-ion valence shell :  2 p   4.000
  | Found hydrogenic basis function :  2 p   1.700
  | Found hydrogenic basis function :  3 d   7.400
  | Found hydrogenic basis function :  3 s   6.800
  Species F                   : Missing cutoff potential type.
  Defaulting to exp(1/x)/(1-x)^2 type cutoff potential.
  Species F : No 'logarithmic' tag. Using default grid for free atom:
  | Default logarithmic grid data [bohr] : 0.1000E-03 0.1000E+03 0.1012E+01
  Species F : On-site basis accuracy parameter (for Gram-Schmidt orthonormalisation) not specified.
  Using default value basis_acc =  0.1000000E-03.
  Species F                   : Using default innermost maximum threshold i_radial=  2 for radial functions.
  Species F                   : Default cutoff onset for free atom density etc. : 0.35000000E+01 AA.
  Species F                   : Basic radial grid will be enhanced according to radial_multiplier =   1, to contain    37 grid points.
 
  Finished reading input file 'control.in'.
 
------------------------------------------------------------


------------------------------------------------------------
          Reading geometry description geometry.in.
------------------------------------------------------------
  | The smallest distance between any two atoms is         1.81112035 AA.
  | The first atom of this pair is atom number                      3 .
  | The second atom of this pair is atom number                     8 .
  Input structure read successfully.
  The structure contains       12 atoms,  and a total of        120.000 electrons.

  Input geometry:
  | No unit cell requested.
  | Atomic structure:
  |       Atom                x [A]            y [A]            z [A]
  |    1: Species Al           -1.68009919        2.54393668       -1.21435801
  |    2: Species Al           -0.54347637        0.01340600       -2.36637316
  |    3: Species Al           -2.22317199       -0.32835331       -0.52322905
  |    4: Species F            -0.58453168        3.44627891       -0.04863097
  |    5: Species F            -2.96894717        3.33105427       -2.24296252
  |    6: Species F            -1.22260569       -1.68340624       -1.58127655
  |    7: Species F            -2.71738368        1.45125411       -0.04974862
  |    8: Species F            -3.20780653       -1.33044015        0.61978176
  |    9: Species F             0.64759789       -0.54600006       -3.61078680
  |   10: Species F            -0.45725369        1.91111132       -2.52980912
  |   11: Species F            -2.49561536        0.35597655       -2.36324983
  |   12: Species F            -0.37381436        0.40041378       -0.42136959

 
  Finished reading input file 'control.in'.
 

------------------------------------------------------------
          Reading geometry description geometry.in.
------------------------------------------------------------
 
  Consistency checks for stacksize environment parameter are next.
 
  | Maximum stacksize for task 0: unlimited
  | Maximum stacksize for task 1: unlimited
  | Maximum stacksize for task 2: unlimited
  | Maximum stacksize for task 3: unlimited
  | Maximum stacksize for task 4: unlimited
  | Maximum stacksize for task 5: unlimited
  | Maximum stacksize for task 6: unlimited
  | Maximum stacksize for task 7: unlimited
  | Maximum stacksize for task 8: unlimited
  | Maximum stacksize for task 9: unlimited
  | Maximum stacksize for task 10: unlimited
  | Maximum stacksize for task 11: unlimited
  | Maximum stacksize for task 12: unlimited
  | Maximum stacksize for task 13: unlimited
  | Maximum stacksize for task 14: unlimited
  | Maximum stacksize for task 15: unlimited
  | Maximum stacksize for task 16: unlimited
  | Maximum stacksize for task 17: unlimited
  | Maximum stacksize for task 18: unlimited
  | Maximum stacksize for task 19: unlimited
  | Maximum stacksize for task 20: unlimited
  | Maximum stacksize for task 21: unlimited
  | Maximum stacksize for task 22: unlimited
  | Maximum stacksize for task 23: unlimited
  | Current stacksize for task 0: unlimited
  | Current stacksize for task 1: unlimited
  | Current stacksize for task 2: unlimited
  | Current stacksize for task 3: unlimited
  | Current stacksize for task 4: unlimited
  | Current stacksize for task 5: unlimited
  | Current stacksize for task 6: unlimited
  | Current stacksize for task 7: unlimited
  | Current stacksize for task 8: unlimited
  | Current stacksize for task 9: unlimited
  | Current stacksize for task 10: unlimited
  | Current stacksize for task 11: unlimited
  | Current stacksize for task 12: unlimited
  | Current stacksize for task 13: unlimited
  | Current stacksize for task 14: unlimited
  | Current stacksize for task 15: unlimited
  | Current stacksize for task 16: unlimited
  | Current stacksize for task 17: unlimited
  | Current stacksize for task 18: unlimited
  | Current stacksize for task 19: unlimited
  | Current stacksize for task 20: unlimited
  | Current stacksize for task 21: unlimited
  | Current stacksize for task 22: unlimited
  | Current stacksize for task 23: unlimited
 
  Consistency checks for the contents of control.in are next.
 
  MPI_IN_PLACE appears to work with this MPI implementation.
  | Keeping use_mpi_in_place .true. (see manual).
  Target number of points in a grid batch is not set. Defaulting to  100
  Method for grid partitioning is not set. Defaulting to parallel hash+maxmin partitioning.
  Batch size limit is not set. Defaulting to    200
  By default, will store active basis functions for each batch.
  If in need of memory, prune_basis_once .false. can be used to disable this option.
  communication_type for Hartree potential was not specified.
  Defaulting to calc_hartree .
  Pulay mixer: Number of initial linear mixing iterations not set.
  Defaulting to    0 iterations.
  Work space size for distributed Hartree potential not set.
  Defaulting to   0.200000E+03 MB.
  Algorithm-dependent basis array size parameters:
  | n_max_pulay                         :       10
  Presetting      1001 iterations before the initial mixing cycle
  is restarted anyway using the sc_init_iter criterion / keyword.
  Presetting a factor      1.000 between actual scf density residual
  and density convergence criterion sc_accuracy_rho below which sc_init_iter
  takes no effect.
  Geometry relaxation not requested: no relaxation will be performed.
  Forces evaluation will include force correction term due to incomplete self-consistency (default).
  Handling of forces: Unphysical translation and rotation will be removed from forces.
  No accuracy limit for integral partition fn. given. Defaulting to  0.1000E-14.
  No threshold value for u(r) in integrations given. Defaulting to  0.1000E-05.
  No accuracy for occupation numbers given. Defaulting to  0.1000E-12.
  No threshold value for occupation numbers given. Defaulting to  0.0000E+00.
  No accuracy for fermi level given. Defaulting to  0.1000E-19.
  Maximum # of iterations to find E_F not set. Defaulting to  200.
  Preferred method for the eigenvalue solver ('KS_method') not specified in 'control.in'.
  Calling BLACS routine to test compilation state
  Since ScaLAPACK support is enabled, defaulting to ELPA (via ELSI).
  Will not use alltoall communication since running on < 1024 CPUs.
  Threshold for basis singularities not set.
  Default threshold for basis singularities:  0.1000E-04
  partition_type (choice of integration weights) for integrals was not specified.
  | Using a version of the partition function of Stratmann and coworkers ('stratmann_sparse').
  | At each grid point, the set of atoms used to build the partition table is smoothly restricted to
  | only those atoms whose free-atom density would be non-zero at that grid point.
  Partitioning for Hartree potential was not defined. Using partition_type for integrals.
  | Adjusted default value of keyword multip_moments_threshold to:       0.10000000E-11
  | This value may affect high angular momentum components of the Hartree potential in periodic systems.
  No q(lm)/r^(l+1) cutoff set for long-range Hartree potential.
  | Using default value of  0.100000E-09 .
  | Verify using the multipole_threshold keyword.
  Defaulting to new monopole extrapolation.
  Density update method: automatic selection selected.
  Charge integration errors on the 3D integration grid will be compensated
  by explicit normalization and distribution of residual charges.
  Use the "compensate_multipole_errors" flag to change this behaviour.
  Set 'collect_eigenvectors' to be '.true.' for use_density_matrix .false.
 
  Consistency checks for the contents of geometry.in are next.
 
  Number of empty states per atom not set in control.in - providing a guess from actual geometry.
  | Total number of empty states used during s.c.f. cycle:       36
  If you use a very high smearing, use empty_states (per atom!) in control.in to increase this value.

  Structure-dependent array size parameters: 
  | Maximum number of distinct radial functions  :       14
  | Maximum number of basis functions            :      180
  | Number of Kohn-Sham states (occupied + empty):       96
------------------------------------------------------------

------------------------------------------------------------
          Preparing all fixed parts of the calculation.
------------------------------------------------------------
  Determining machine precision:
    2.225073858507201E-308
  Setting up grids for atomic and cluster calculations.

  Creating wave function, potential, and density for free atoms.

  Species: Al

  List of occupied orbitals and eigenvalues:
    n    l              occ      energy [Ha]    energy [eV]
    1    0           2.0000       -55.621123     -1513.5278
    2    0           2.0000        -3.957030      -107.6763
    3    0           2.0000        -0.272233        -7.4078
    2    1           6.0000        -2.540949       -69.1427
    3    1           1.0000        -0.083300        -2.2667


  Species: F

  List of occupied orbitals and eigenvalues:
    n    l              occ      energy [Ha]    energy [eV]
    1    0           2.0000       -24.399611      -663.9472
    2    0           2.0000        -1.098702       -29.8972
    2    1           5.0000        -0.408210       -11.1080


  Adding cutoff potential to free-atom effective potential.
  Creating fixed part of basis set: Ionic, confined, hydrogenic.
 
  Al                   ion:

  List of free ionic orbitals and eigenvalues:
    n    l      energy [Ha]    energy [eV]
    1    0       -56.418846     -1535.2349
    2    0        -4.732717      -128.7838
    3    0        -0.872690       -23.7471
    2    1        -3.317230       -90.2664


  List of ionic basis orbitals and eigenvalues:
    n    l      energy [Ha]    energy [eV]    outer radius [A]
    3    2        -0.346815        -9.4373       4.594041
    3    1        -0.631870       -17.1940       4.538221
    3    0        -0.872657       -23.7462       4.538221

 
  F                    hydrogenic:
 
  List of hydrogenic basis orbitals: 
    n    l      effective z      eigenvalue [eV]  inner max. [A]     outer max. [A]     outer radius [A]   
    2    1         1.700000        -9.7616           1.243167           1.243167           4.598524
    3    2         7.400000       -82.7828           0.642437           0.642437           3.305741
    3    0         6.800000       -69.9026           0.057798           1.022307           3.781556
 
  Creating atomic-like basis functions for current effective potential.

  Species Al                  :

  List of atomic basis orbitals and eigenvalues:
    n    l      energy [Ha]    energy [eV]    outer radius [A]
    1    0       -55.621123     -1513.5278       0.850197
    2    0        -3.957030      -107.6763       3.144911
    3    0        -0.272233        -7.4078       4.594041
    2    1        -2.540949       -69.1427       3.731966
    3    1        -0.083300        -2.2667       4.594041


  Species F                   :

  List of atomic basis orbitals and eigenvalues:
    n    l      energy [Ha]    energy [eV]    outer radius [A]
    1    0       -24.399611      -663.9472       1.258458
    2    0        -1.098702       -29.8972       4.325857
    2    1        -0.408210       -11.1080       4.487453

  Assembling full basis from fixed parts.
  | Species Al :   atomic orbital   1 s accepted.
  | Species Al :   atomic orbital   2 s accepted.
  | Species Al :    ionic orbital   3 s accepted.
  | Species Al :   atomic orbital   3 s accepted.
  | Species Al :   atomic orbital   2 p accepted.
  | Species Al :    ionic orbital   3 p accepted.
  | Species Al :   atomic orbital   3 p accepted.
  | Species Al :    ionic orbital   3 d accepted.
  | Species F :   atomic orbital   1 s accepted.
  | Species F :    hydro orbital   3 s accepted.
  | Species F :   atomic orbital   2 s accepted.
  | Species F :   atomic orbital   2 p accepted.
  | Species F :    hydro orbital   2 p accepted.
  | Species F :    hydro orbital   3 d accepted.
 
  Basis size parameters after reduction:
  | Total number of radial functions:       14
  | Total number of basis functions :      180
 
  Per-task memory consumption for arrays in subroutine allocate_ext:
  |           4.807768MB.
  Testing on-site integration grid accuracy.
  |  Species  Function  <phi|h_atom|phi> (log., in eV)  <phi|h_atom|phi> (rad., in eV)
           1        1              -1513.5277717935              -1513.5271881332
           1        2               -107.6762691836               -107.6762662489
           1        3                 -6.9467474784                 -6.9471269649
           1        4                  5.5771951849                  5.4862107220 ***
           1        5                -69.1427313144                -69.1427312731
           1        6                 -1.5197375330                 -1.5230432022
           1        7                  6.8210948310                  6.5529872240 ***
           1        8                  4.3216540965                  4.2851170187 ***
           2        9               -663.9471986398               -663.9470363334
           2       10                 16.8514011578                 16.8512525338
           2       11                -28.4490593856                -28.4490661472
           2       12                -11.1080115307                -11.1080620173
           2       13                  7.1940182175                  7.1685154137
           2       14                 44.8544281765                 44.8543763625
 * Note: Onsite integrals marked "***" above are less accurate than
 * onsite_accuracy_threshold =    0.03000 eV. Usually, this is harmless.
 * When in doubt, tighten the "radial" and/or "radial_multiplier" flags to check.

  Preparing densities etc. for the partition functions (integrals / Hartree potential).

  Preparations completed.
  max(cpu_time)          :      0.185 s.
  Wall clock time (cpu1) :      0.185 s.
------------------------------------------------------------

------------------------------------------------------------
          Begin self-consistency loop: Initialization.

          Date     :  20220517, Time     :  121649.275
------------------------------------------------------------

  Initializing index lists of integration centers etc. from given atomic structure:
  | Number of centers in hartree potential         :        12
  | Number of centers in hartree multipole         :        12
  | Number of centers in electron density summation:        12
  | Number of centers in basis integrals           :        12
  | Number of centers in integrals                 :        12
  | Number of centers in hamiltonian               :        12
  * Using 24 tasks for Scalapack Eigenvalue solver.
  Detailed listing of tasks and assigned k-points:
  (for non-periodic systems, the "k-point" denotes an internal label only)
   Task     0 k-point     1 on node-k98a-011
   Task     1 k-point     1 on node-k98a-011
   Task     2 k-point     1 on node-k98a-011
   Task     3 k-point     1 on node-k98a-011
   Task     4 k-point     1 on node-k98a-011
   Task     5 k-point     1 on node-k98a-011
   Task     6 k-point     1 on node-k98a-011
   Task     7 k-point     1 on node-k98a-011
   Task     8 k-point     1 on node-k98a-011
   Task     9 k-point     1 on node-k98a-011
   Task    10 k-point     1 on node-k98a-011
   Task    11 k-point     1 on node-k98a-011
   Task    12 k-point     1 on node-k98a-011
   Task    13 k-point     1 on node-k98a-011
   Task    14 k-point     1 on node-k98a-011
   Task    15 k-point     1 on node-k98a-011
   Task    16 k-point     1 on node-k98a-011
   Task    17 k-point     1 on node-k98a-011
   Task    18 k-point     1 on node-k98a-011
   Task    19 k-point     1 on node-k98a-011
   Task    20 k-point     1 on node-k98a-011
   Task    21 k-point     1 on node-k98a-011
   Task    22 k-point     1 on node-k98a-011
   Task    23 k-point     1 on node-k98a-011
  Tasks:    24 split into      6 X      4 BLACS grid
  Calculating block size based on n_basis =          180  max_nprow =            6  max_npcol =            4
  ScaLAPACK block size set to:           16
  Allocating        0.012 MB for ovlp
  Allocating        0.012 MB for ham
  Allocating        0.012 MB for eigenvec
  Required Scalapack workspace - INTEGER:            1  REAL:             1
  Partitioning the integration grid into batches with parallel hashing+maxmin method.
  | Number of batches:     1080
  | Maximal batch size:     196
  | Minimal batch size:      49
  | Average batch size:      85.111
  | Standard deviation of batch sizes:      20.836

  Integration load balanced across    24 MPI tasks.
  Work distribution over tasks is as follows:
  Task     0 has       3786 integration points.
  Task     1 has       3780 integration points.
  Task     2 has       3775 integration points.
  Task     3 has       3874 integration points.
  Task     4 has       3786 integration points.
  Task     5 has       3779 integration points.
  Task     6 has       3868 integration points.
  Task     7 has       3790 integration points.
  Task     8 has       3869 integration points.
  Task     9 has       3863 integration points.
  Task    10 has       3873 integration points.
  Task    11 has       3782 integration points.
  Task    12 has       3788 integration points.
  Task    13 has       3769 integration points.
  Task    14 has       3872 integration points.
  Task    15 has       3905 integration points.
  Task    16 has       3871 integration points.
  Task    17 has       3768 integration points.
  Task    18 has       3773 integration points.
  Task    19 has       3879 integration points.
  Task    20 has       3843 integration points.
  Task    21 has       3876 integration points.
  Task    22 has       3868 integration points.
  Task    23 has       3883 integration points.
  Initializing partition tables, free-atom densities, potentials, etc. across the integration grid (initialize_grid_storage).
  | initialize_grid_storage: Actual outermost partition radius vs. multipole_radius_free
  | (-- VB: in principle, multipole_radius_free should be larger, hence this output)
  | Species        1: Confinement radius =              4.999999999999999 AA, multipole_radius_free =              5.004487022111096 AA.
  | Species        1: outer_partition_radius set to              5.004487022111096 AA .
  | Species        2: Confinement radius =              4.999999999999999 AA, multipole_radius_free =              5.009370088163274 AA.
  | Species        2: outer_partition_radius set to              5.009370088163274 AA .
  | The sparse table of interatomic distances needs          1.64 kbyte instead of         1.15 kbyte of memory.
  | Using the partition_type stratmann_smoother will reduce your memory usage.
  | Net number of integration points:    91920
  | of which are non-zero points    :    84980
  Renormalizing the initial density to the exact electron count on the 3D integration grid.
  | Initial density: Formal number of electrons (from input files) :     120.0000000000
  | Integrated number of electrons on 3D grid     :     120.0000064564
  | Charge integration error                      :       0.0000064564
  | Normalization factor for density and gradient :       0.9999999462
  Renormalizing the free-atom superposition density to the exact electron count on the 3D integration grid.
  | Formal number of electrons (from input files) :     120.0000000000
  | Integrated number of electrons on 3D grid     :     120.0000064564
  | Charge integration error                      :       0.0000064564
  | Normalization factor for density and gradient :       0.9999999462
  Obtaining max. number of non-zero basis functions in each batch (get_n_compute_maxes).
  | Maximal number of non-zero basis functions:      166 in task     0
  | Maximal number of non-zero basis functions:      170 in task     1
  | Maximal number of non-zero basis functions:      166 in task     2
  | Maximal number of non-zero basis functions:      165 in task     3
  | Maximal number of non-zero basis functions:      170 in task     4
  | Maximal number of non-zero basis functions:      172 in task     5
  | Maximal number of non-zero basis functions:      171 in task     6
  | Maximal number of non-zero basis functions:      166 in task     7
  | Maximal number of non-zero basis functions:      172 in task     8
  | Maximal number of non-zero basis functions:      165 in task     9
  | Maximal number of non-zero basis functions:      171 in task    10
  | Maximal number of non-zero basis functions:      164 in task    11
  | Maximal number of non-zero basis functions:      169 in task    12
  | Maximal number of non-zero basis functions:      172 in task    13
  | Maximal number of non-zero basis functions:      165 in task    14
  | Maximal number of non-zero basis functions:      166 in task    15
  | Maximal number of non-zero basis functions:      172 in task    16
  | Maximal number of non-zero basis functions:      170 in task    17
  | Maximal number of non-zero basis functions:      172 in task    18
  | Maximal number of non-zero basis functions:      166 in task    19
  | Maximal number of non-zero basis functions:      166 in task    20
  | Maximal number of non-zero basis functions:      167 in task    21
  | Maximal number of non-zero basis functions:      171 in task    22
  | Maximal number of non-zero basis functions:      164 in task    23
  Selecting the method for density update.
  Loop over occupied states selected for charge density update.
  Allocating        0.132 MB for KS_eigenvector
  Integrating Hamiltonian matrix: batch-based integration.
  Time summed over all CPUs for integration: real work        0.766 s, elapsed        0.801 s
  Integrating overlap matrix.
  Time summed over all CPUs for integration: real work        0.295 s, elapsed        0.319 s
  Deallocating overlap matrix.

  Updating Kohn-Sham eigenvalues and eigenvectors using ELSI and the ELPA eigensolver.
  Overlap matrix is not singular
  | Lowest and highest eigenvalues :  0.2275E-02,  0.5785E+01
  Finished singularity check of overlap matrix
  | Time :     0.004 s
  Starting ELPA eigensolver
  Finished Cholesky decomposition
  | Time :     0.002 s
  Finished transformation to standard eigenproblem
  | Time :     0.001 s
  Finished solving standard eigenproblem
  | Time :     0.003 s
  Finished back-transformation of eigenvectors
  | Time :     0.000 s

  Obtaining occupation numbers and chemical potential using ELSI.
  | Chemical potential (Fermi level):    -7.59852966 eV
  Writing Kohn-Sham eigenvalues.

  State    Occupation    Eigenvalue [Ha]    Eigenvalue [eV]
      1       2.00000         -55.486756        -1509.87144
      2       2.00000         -55.486755        -1509.87144
      3       2.00000         -55.483507        -1509.78304
      4       2.00000         -24.361250         -662.90334
      5       2.00000         -24.361250         -662.90334
      6       2.00000         -24.351978         -662.65102
      7       2.00000         -24.350448         -662.60939
      8       2.00000         -24.347815         -662.53775
      9       2.00000         -24.341145         -662.35626
     10       2.00000         -24.341145         -662.35626
     11       2.00000         -24.339291         -662.30579
     12       2.00000         -24.338229         -662.27691
     13       2.00000          -3.952434         -107.55121
     14       2.00000          -3.952314         -107.54794
     15       2.00000          -3.948533         -107.44505
     16       2.00000          -2.546578          -69.29592
     17       2.00000          -2.545532          -69.26744
     18       2.00000          -2.544053          -69.22722
     19       2.00000          -2.543872          -69.22228
     20       2.00000          -2.542673          -69.18965
     21       2.00000          -2.542549          -69.18628
     22       2.00000          -2.540816          -69.13912
     23       2.00000          -2.540190          -69.12208
     24       2.00000          -2.540121          -69.12020
     25       2.00000          -1.191014          -32.40913
     26       2.00000          -1.181011          -32.13695
     27       2.00000          -1.172714          -31.91116
     28       2.00000          -1.167109          -31.75865
     29       2.00000          -1.157250          -31.49038
     30       2.00000          -1.149845          -31.28886
     31       2.00000          -1.149407          -31.27696
     32       2.00000          -1.147517          -31.22554
     33       2.00000          -1.145155          -31.16124
     34       2.00000          -0.565875          -15.39825
     35       2.00000          -0.548479          -14.92487
     36       2.00000          -0.545702          -14.84931
     37       2.00000          -0.525581          -14.30179
     38       2.00000          -0.516794          -14.06269
     39       2.00000          -0.509445          -13.86271
     40       2.00000          -0.505303          -13.74998
     41       2.00000          -0.503500          -13.70092
     42       2.00000          -0.495995          -13.49671
     43       2.00000          -0.495277          -13.47719
     44       2.00000          -0.485443          -13.20959
     45       2.00000          -0.480627          -13.07851
     46       2.00000          -0.477660          -12.99779
     47       2.00000          -0.472060          -12.84540
     48       2.00000          -0.471176          -12.82136
     49       2.00000          -0.466917          -12.70545
     50       2.00000          -0.463787          -12.62029
     51       2.00000          -0.458151          -12.46693
     52       2.00000          -0.452903          -12.32411
     53       2.00000          -0.451795          -12.29397
     54       2.00000          -0.451713          -12.29173
     55       2.00000          -0.450330          -12.25411
     56       2.00000          -0.448789          -12.21217
     57       2.00000          -0.447739          -12.18359
     58       2.00000          -0.447135          -12.16717
     59       2.00000          -0.445174          -12.11379
     60       2.00000          -0.441866          -12.02378
     61       0.00000          -0.142587           -3.87998
     62       0.00000          -0.084581           -2.30156
     63       0.00000          -0.079465           -2.16235
     64       0.00000          -0.030583           -0.83221
     65       0.00000          -0.019464           -0.52965
     66       0.00000           0.004523            0.12307
     67       0.00000           0.023387            0.63640
     68       0.00000           0.028308            0.77031
     69       0.00000           0.053894            1.46654
     70       0.00000           0.057692            1.56989
     71       0.00000           0.093460            2.54318
     72       0.00000           0.124177            3.37903
     73       0.00000           0.138331            3.76419
     74       0.00000           0.166354            4.52672
     75       0.00000           0.171086            4.65547
     76       0.00000           0.174426            4.74637
     77       0.00000           0.185297            5.04220
     78       0.00000           0.189942            5.16858
     79       0.00000           0.212104            5.77164
     80       0.00000           0.223829            6.09070
     81       0.00000           0.229166            6.23592
     82       0.00000           0.232169            6.31763
     83       0.00000           0.236672            6.44018
     84       0.00000           0.239967            6.52982
     85       0.00000           0.257526            7.00763
     86       0.00000           0.262823            7.15178
     87       0.00000           0.264199            7.18922
     88       0.00000           0.267813            7.28755
     89       0.00000           0.274320            7.46463
     90       0.00000           0.300698            8.18240
     91       0.00000           0.309564            8.42367
     92       0.00000           0.335493            9.12924
     93       0.00000           0.354053            9.63428
     94       0.00000           0.360070            9.79799
     95       0.00000           0.374533           10.19156
     96       0.00000           0.375394           10.21498

  Highest occupied state (VBM) at    -12.02377869 eV
  | Occupation number:      2.00000000

  Lowest unoccupied state (CBM) at    -3.87998049 eV
  | Occupation number:      0.00000000

  Overall HOMO-LUMO gap:      8.14379821 eV.
  Calculating total energy contributions from superposition of free atom densities.

  Total energy components:
  | Sum of eigenvalues            :        -887.63094297 Ha      -24153.66688338 eV
  | XC energy correction          :        -144.40521630 Ha       -3929.46586450 eV
  | XC potential correction       :         188.02735360 Ha        5116.48461530 eV
  | Free-atom electrostatic energy:        -781.32979301 Ha      -21261.06541895 eV
  | Hartree energy correction     :           0.00000000 Ha           0.00000000 eV
  | Entropy correction            :           0.00000000 Ha           0.00000000 eV
  | ---------------------------
  | Total energy                  :       -1625.33859869 Ha      -44227.71355154 eV
  | Total energy, T -> 0          :       -1625.33859869 Ha      -44227.71355154 eV  <-- do not rely on this value for anything but (periodic) metals
  | Electronic free energy        :       -1625.33859869 Ha      -44227.71355154 eV

  Derived energy quantities:
  | Kinetic energy                :        1627.77417503 Ha       44293.98895602 eV
  | Electrostatic energy          :       -3108.70755742 Ha      -84592.23664306 eV
  | Energy correction for multipole
  | error in Hartree potential    :           0.00000000 Ha           0.00000000 eV
  | Sum of eigenvalues per atom                           :       -2012.80557361 eV
  | Total energy (T->0) per atom                          :       -3685.64279596 eV  <-- do not rely on this value for anything but (periodic) metals
  | Electronic free energy per atom                       :       -3685.64279596 eV
  Initialize hartree_potential_storage
  Max. number of atoms included in rho_multipole:           12

  End scf initialization - timings             :  max(cpu_time)    wall_clock(cpu1)
  | Time for scf. initialization                :        0.119 s           0.120 s
  | Boundary condition initialization           :        0.000 s           0.000 s
  | Integration                                 :        0.048 s           0.048 s
  | Solution of K.-S. eqns.                     :        0.012 s           0.012 s
  | Grid partitioning                           :        0.036 s           0.036 s
  | Preloading free-atom quantities on grid     :        0.016 s           0.016 s
  | Free-atom superposition energy              :        0.005 s           0.004 s
  | Total energy evaluation                     :        0.000 s           0.000 s

  Partial memory accounting:
  | Current value for overall tracked memory usage:
  |   Minimum:        0.273 MB (on task 23)
  |   Maximum:        0.292 MB (on task  0)
  |   Average:        0.287 MB
  | Peak value for overall tracked memory usage:
  |   Minimum:        1.342 MB (on task 23 after allocating wave)
  |   Maximum:        1.417 MB (on task  5 after allocating wave)
  |   Average:        1.386 MB
  | Largest tracked array allocation so far:
  |   Minimum:        0.245 MB (H_times_psi on task 23)
  |   Maximum:        0.491 MB (all_coords on task 10)
  |   Average:        0.284 MB
  Note:  These values currently only include a subset of arrays which are explicitly tracked.
  The "true" memory usage will be greater.
------------------------------------------------------------
  Evaluating new KS density.
  Integration grid: deviation in total charge (<rho> - N_e) =   2.842171E-14

  Time for density update prior                :  max(cpu_time)    wall_clock(cpu1)
  | self-consistency iterative process          :        0.030 s           0.030 s

------------------------------------------------------------
          Begin self-consistency iteration #    1

  Date     :  20220517, Time     :  121649.425
------------------------------------------------------------
  Pulay mixing of updated and previous charge densities.
  Renormalizing the density to the exact electron count on the 3D integration grid.
  | Formal number of electrons (from input files) :     120.0000000000
  | Integrated number of electrons on 3D grid     :     120.0000000000
  | Charge integration error                      :       0.0000000000
  | Normalization factor for density and gradient :       1.0000000000

  Evaluating partitioned Hartree potential by multipole expansion.
  | Original multipole sum: apparent total charge =  -0.328011E-13
  | Sum of charges compensated after spline to logarithmic grids =   0.773170E-04
  | Analytical far-field extrapolation by fixed multipoles:
  | Hartree multipole sum: apparent total charge =  -0.330594E-13
  Summing up the Hartree potential.
  Time summed over all CPUs for potential: real work        0.382 s, elapsed        0.399 s
  | RMS charge density error from multipole expansion :   0.109289E-01

  Integrating Hamiltonian matrix: batch-based integration.
  Time summed over all CPUs for integration: real work        0.716 s, elapsed        0.738 s

  Updating Kohn-Sham eigenvalues and eigenvectors using ELSI and the ELPA eigensolver.
  Starting ELPA eigensolver
  Finished transformation to standard eigenproblem
  | Time :     0.000 s
  Finished solving standard eigenproblem
  | Time :     0.003 s
  Finished back-transformation of eigenvectors
  | Time :     0.000 s

  Obtaining occupation numbers and chemical potential using ELSI.
  | Chemical potential (Fermi level):    -7.49199760 eV
  Writing Kohn-Sham eigenvalues.

  State    Occupation    Eigenvalue [Ha]    Eigenvalue [eV]
      1       2.00000         -55.672013        -1514.91255
      2       2.00000         -55.672009        -1514.91245
      3       2.00000         -55.634629        -1513.89529
      4       2.00000         -24.242847         -659.68144
      5       2.00000         -24.238754         -659.57007
      6       2.00000         -24.220060         -659.06137
      7       2.00000         -24.220058         -659.06131
      8       2.00000         -24.185707         -658.12657
      9       2.00000         -24.075946         -655.13984
     10       2.00000         -24.075936         -655.13956
     11       2.00000         -24.054620         -654.55951
     12       2.00000         -24.053395         -654.52618
     13       2.00000          -4.109763         -111.83235
     14       2.00000          -4.109647         -111.82918
     15       2.00000          -4.072892         -110.82903
     16       2.00000          -2.703561          -73.56764
     17       2.00000          -2.702556          -73.54028
     18       2.00000          -2.702548          -73.54007
     19       2.00000          -2.702440          -73.53713
     20       2.00000          -2.701677          -73.51638
     21       2.00000          -2.701570          -73.51347
     22       2.00000          -2.667094          -72.57531
     23       2.00000          -2.665722          -72.53799
     24       2.00000          -2.663770          -72.48486
     25       2.00000          -1.169143          -31.81399
     26       2.00000          -1.148578          -31.25441
     27       2.00000          -1.141423          -31.05971
     28       2.00000          -1.136996          -30.93924
     29       2.00000          -1.107084          -30.12528
     30       2.00000          -1.022308          -27.81842
     31       2.00000          -1.022013          -27.81038
     32       2.00000          -1.003239          -27.29952
     33       2.00000          -0.999093          -27.18671
     34       2.00000          -0.569982          -15.50999
     35       2.00000          -0.535224          -14.56418
     36       2.00000          -0.527934          -14.36582
     37       2.00000          -0.502078          -13.66224
     38       2.00000          -0.496744          -13.51708
     39       2.00000          -0.488602          -13.29553
     40       2.00000          -0.481293          -13.09664
     41       2.00000          -0.467728          -12.72753
     42       2.00000          -0.458408          -12.47391
     43       2.00000          -0.437571          -11.90692
     44       2.00000          -0.435763          -11.85772
     45       2.00000          -0.426630          -11.60919
     46       2.00000          -0.425073          -11.56683
     47       2.00000          -0.416446          -11.33207
     48       2.00000          -0.394590          -10.73735
     49       2.00000          -0.389839          -10.60805
     50       2.00000          -0.379814          -10.33526
     51       2.00000          -0.375246          -10.21096
     52       2.00000          -0.350785           -9.54534
     53       2.00000          -0.333957           -9.08743
     54       2.00000          -0.333479           -9.07442
     55       2.00000          -0.329976           -8.97912
     56       2.00000          -0.326998           -8.89808
     57       2.00000          -0.317786           -8.64740
     58       2.00000          -0.312988           -8.51685
     59       2.00000          -0.306845           -8.34969
     60       2.00000          -0.304115           -8.27539
     61       0.00000          -0.159125           -4.33001
     62       0.00000          -0.094294           -2.56588
     63       0.00000          -0.087309           -2.37581
     64       0.00000          -0.056498           -1.53739
     65       0.00000          -0.043803           -1.19193
     66       0.00000          -0.020328           -0.55315
     67       0.00000           0.009934            0.27031
     68       0.00000           0.025152            0.68441
     69       0.00000           0.035472            0.96523
     70       0.00000           0.055488            1.50991
     71       0.00000           0.093572            2.54623
     72       0.00000           0.101641            2.76579
     73       0.00000           0.141842            3.85972
     74       0.00000           0.147047            4.00136
     75       0.00000           0.157796            4.29384
     76       0.00000           0.165853            4.51308
     77       0.00000           0.170592            4.64204
     78       0.00000           0.198568            5.40330
     79       0.00000           0.208917            5.68491
     80       0.00000           0.211294            5.74959
     81       0.00000           0.213273            5.80345
     82       0.00000           0.219433            5.97109
     83       0.00000           0.223436            6.08001
     84       0.00000           0.224645            6.11289
     85       0.00000           0.243841            6.63526
     86       0.00000           0.249503            6.78933
     87       0.00000           0.255171            6.94355
     88       0.00000           0.255679            6.95738
     89       0.00000           0.271601            7.39063
     90       0.00000           0.278040            7.56584
     91       0.00000           0.315572            8.58716
     92       0.00000           0.329915            8.97744
     93       0.00000           0.359509            9.78275
     94       0.00000           0.369068           10.04284
     95       0.00000           0.370457           10.08066
     96       0.00000           0.381552           10.38255

  Highest occupied state (VBM) at     -8.27538672 eV
  | Occupation number:      2.00000000

  Lowest unoccupied state (CBM) at    -4.33000900 eV
  | Occupation number:      0.00000000

  Overall HOMO-LUMO gap:      3.94537772 eV.

  Total energy components:
  | Sum of eigenvalues            :        -883.44997381 Ha      -24039.89692394 eV
  | XC energy correction          :        -145.66124912 Ha       -3963.64425648 eV
  | XC potential correction       :         189.67812871 Ha        5161.40449162 eV
  | Free-atom electrostatic energy:        -781.32979301 Ha      -21261.06541895 eV
  | Hartree energy correction     :          -4.37154003 Ha        -118.95565673 eV
  | Entropy correction            :           0.00000000 Ha           0.00000000 eV
  | ---------------------------
  | Total energy                  :       -1625.13442726 Ha      -44222.15776447 eV
  | Total energy, T -> 0          :       -1625.13442726 Ha      -44222.15776447 eV  <-- do not rely on this value for anything but (periodic) metals
  | Electronic free energy        :       -1625.13442726 Ha      -44222.15776447 eV

  Derived energy quantities:
  | Kinetic energy                :        1633.69313956 Ha       44455.05217560 eV
  | Electrostatic energy          :       -3113.16631771 Ha      -84713.56568359 eV
  | Energy correction for multipole
  | error in Hartree potential    :           0.02959890 Ha           0.80542692 eV
  | Sum of eigenvalues per atom                           :       -2003.32474366 eV
  | Total energy (T->0) per atom                          :       -3685.17981371 eV  <-- do not rely on this value for anything but (periodic) metals
  | Electronic free energy per atom                       :       -3685.17981371 eV
  Evaluating new KS density.
  Integration grid: deviation in total charge (<rho> - N_e) =   1.421085E-14

  Self-consistency convergence accuracy:
  | Change of charge density      :  0.5834E+00
  | Change of sum of eigenvalues  :  0.1138E+03 eV
  | Change of total energy        :  0.5556E+01 eV


------------------------------------------------------------
  End self-consistency iteration #     1       :  max(cpu_time)    wall_clock(cpu1)
  | Time for this iteration                     :        0.084 s           0.084 s
  | Charge density update                       :        0.029 s           0.029 s
  | Density mixing                              :        0.000 s           0.001 s
  | Hartree multipole update                    :        0.001 s           0.001 s
  | Hartree multipole summation                 :        0.017 s           0.017 s
  | Integration                                 :        0.031 s           0.031 s
  | Solution of K.-S. eqns.                     :        0.004 s           0.005 s
  | Total energy evaluation                     :        0.000 s           0.000 s

  Partial memory accounting:
  | Current value for overall tracked memory usage:
  |   Minimum:        0.273 MB (on task 23)
  |   Maximum:        0.292 MB (on task  0)
  |   Average:        0.287 MB
  | Peak value for overall tracked memory usage:
  |   Minimum:        1.342 MB (on task 23 after allocating wave)
  |   Maximum:        1.417 MB (on task  5 after allocating wave)
  |   Average:        1.386 MB
  | Largest tracked array allocation so far:
  |   Minimum:        0.736 MB (gradient_basis_wave on task 11)
  |   Maximum:        0.772 MB (gradient_basis_wave on task  5)
  |   Average:        0.755 MB
  Note:  These values currently only include a subset of arrays which are explicitly tracked.
  The "true" memory usage will be greater.
------------------------------------------------------------

------------------------------------------------------------
          Begin self-consistency iteration #    2

  Date     :  20220517, Time     :  121649.515
------------------------------------------------------------
  Pulay mixing of updated and previous charge densities.
  Renormalizing the density to the exact electron count on the 3D integration grid.
  | Formal number of electrons (from input files) :     120.0000000000
  | Integrated number of electrons on 3D grid     :     120.0000000000
  | Charge integration error                      :       0.0000000000
  | Normalization factor for density and gradient :       1.0000000000

  Evaluating partitioned Hartree potential by multipole expansion.
  | Original multipole sum: apparent total charge =   0.307964E-13
  | Sum of charges compensated after spline to logarithmic grids =   0.386938E-04
  | Analytical far-field extrapolation by fixed multipoles:
  | Hartree multipole sum: apparent total charge =   0.309686E-13
  Summing up the Hartree potential.
  Time summed over all CPUs for potential: real work        0.380 s, elapsed        0.398 s
  | RMS charge density error from multipole expansion :   0.125957E-01

  Integrating Hamiltonian matrix: batch-based integration.
  Time summed over all CPUs for integration: real work        0.715 s, elapsed        0.742 s

  Updating Kohn-Sham eigenvalues and eigenvectors using ELSI and the ELPA eigensolver.
  Starting ELPA eigensolver
  Finished transformation to standard eigenproblem
  | Time :     0.001 s
  Finished solving standard eigenproblem
  | Time :     0.003 s
  Finished back-transformation of eigenvectors
  | Time :     0.000 s

  Obtaining occupation numbers and chemical potential using ELSI.
  | Chemical potential (Fermi level):    -7.67975673 eV
  Highest occupied state (VBM) at     -9.36427313 eV
  | Occupation number:      2.00000000

  Lowest unoccupied state (CBM) at    -4.51253133 eV
  | Occupation number:      0.00000000

  Overall HOMO-LUMO gap:      4.85174180 eV.

  Checking to see if s.c.f. parameters should be adjusted.

  Total energy components:
  | Sum of eigenvalues            :        -886.20819233 Ha      -24114.95186855 eV
  | XC energy correction          :        -145.19685287 Ha       -3951.00739165 eV
  | XC potential correction       :         189.06718609 Ha        5144.77989704 eV
  | Free-atom electrostatic energy:        -781.32979301 Ha      -21261.06541895 eV
  | Hartree energy correction     :          -1.40808590 Ha         -38.31596671 eV
  | Entropy correction            :           0.00000000 Ha           0.00000000 eV
  | ---------------------------
  | Total energy                  :       -1625.07573802 Ha      -44220.56074881 eV
  | Total energy, T -> 0          :       -1625.07573802 Ha      -44220.56074881 eV  <-- do not rely on this value for anything but (periodic) metals
  | Electronic free energy        :       -1625.07573802 Ha      -44220.56074881 eV

  Derived energy quantities:
  | Kinetic energy                :        1629.98969646 Ha       44354.27636153 eV
  | Electrostatic energy          :       -3109.86858161 Ha      -84623.82971869 eV
  | Energy correction for multipole
  | error in Hartree potential    :           0.03332341 Ha           0.90677618 eV
  | Sum of eigenvalues per atom                           :       -2009.57932238 eV
  | Total energy (T->0) per atom                          :       -3685.04672907 eV  <-- do not rely on this value for anything but (periodic) metals
  | Electronic free energy per atom                       :       -3685.04672907 eV
  Evaluating new KS density.
  Integration grid: deviation in total charge (<rho> - N_e) =   4.263256E-14

  Self-consistency convergence accuracy:
  | Change of charge density      :  0.4552E+00
  | Change of sum of eigenvalues  : -0.7505E+02 eV
  | Change of total energy        :  0.1597E+01 eV


------------------------------------------------------------
  End self-consistency iteration #     2       :  max(cpu_time)    wall_clock(cpu1)
  | Time for this iteration                     :        0.087 s           0.084 s
  | Charge density update                       :        0.028 s           0.028 s
  | Density mixing                              :        0.004 s           0.001 s
  | Hartree multipole update                    :        0.001 s           0.002 s
  | Hartree multipole summation                 :        0.017 s           0.017 s
  | Integration                                 :        0.031 s           0.031 s
  | Solution of K.-S. eqns.                     :        0.004 s           0.004 s
  | Total energy evaluation                     :        0.000 s           0.001 s

  Partial memory accounting:
  | Current value for overall tracked memory usage:
  |   Minimum:        0.274 MB (on task 23)
  |   Maximum:        0.293 MB (on task  0)
  |   Average:        0.288 MB
  | Peak value for overall tracked memory usage:
  |   Minimum:        1.342 MB (on task 23 after allocating wave)
  |   Maximum:        1.417 MB (on task  5 after allocating wave)
  |   Average:        1.386 MB
  | Largest tracked array allocation so far:
  |   Minimum:        0.736 MB (gradient_basis_wave on task 11)
  |   Maximum:        0.772 MB (gradient_basis_wave on task  5)
  |   Average:        0.755 MB
  Note:  These values currently only include a subset of arrays which are explicitly tracked.
  The "true" memory usage will be greater.
------------------------------------------------------------

------------------------------------------------------------
          Begin self-consistency iteration #    3

  Date     :  20220517, Time     :  121649.605
------------------------------------------------------------
  Pulay mixing of updated and previous charge densities.
  Renormalizing the density to the exact electron count on the 3D integration grid.
  | Formal number of electrons (from input files) :     120.0000000000
  | Integrated number of electrons on 3D grid     :     120.0000000000
  | Charge integration error                      :       0.0000000000
  | Normalization factor for density and gradient :       1.0000000000

  Evaluating partitioned Hartree potential by multipole expansion.
  | Original multipole sum: apparent total charge =  -0.393502E-13
  | Sum of charges compensated after spline to logarithmic grids =   0.458772E-04
  | Analytical far-field extrapolation by fixed multipoles:
  | Hartree multipole sum: apparent total charge =  -0.370811E-13
  Summing up the Hartree potential.
  Time summed over all CPUs for potential: real work        0.380 s, elapsed        0.398 s
  | RMS charge density error from multipole expansion :   0.169353E-01

  Integrating Hamiltonian matrix: batch-based integration.
  Time summed over all CPUs for integration: real work        0.716 s, elapsed        0.742 s

  Updating Kohn-Sham eigenvalues and eigenvectors using ELSI and the ELPA eigensolver.
  Starting ELPA eigensolver
  Finished transformation to standard eigenproblem
  | Time :     0.000 s
  Finished solving standard eigenproblem
  | Time :     0.003 s
  Finished back-transformation of eigenvectors
  | Time :     0.000 s

  Obtaining occupation numbers and chemical potential using ELSI.
  | Chemical potential (Fermi level):    -7.69422716 eV
  Highest occupied state (VBM) at     -9.04305499 eV
  | Occupation number:      2.00000000

  Lowest unoccupied state (CBM) at    -4.72178605 eV
  | Occupation number:      0.00000000

  Overall HOMO-LUMO gap:      4.32126895 eV.

  Total energy components:
  | Sum of eigenvalues            :        -887.17495119 Ha      -24141.25871555 eV
  | XC energy correction          :        -145.15981644 Ha       -3949.99957914 eV
  | XC potential correction       :         189.01733892 Ha        5143.42348649 eV
  | Free-atom electrostatic energy:        -781.32979301 Ha      -21261.06541895 eV
  | Hartree energy correction     :          -0.42784234 Ha         -11.64218253 eV
  | Entropy correction            :           0.00000000 Ha           0.00000000 eV
  | ---------------------------
  | Total energy                  :       -1625.07506407 Ha      -44220.54240967 eV
  | Total energy, T -> 0          :       -1625.07506407 Ha      -44220.54240967 eV  <-- do not rely on this value for anything but (periodic) metals
  | Electronic free energy        :       -1625.07506407 Ha      -44220.54240967 eV

  Derived energy quantities:
  | Kinetic energy                :        1628.34926522 Ha       44309.63795618 eV
  | Electrostatic energy          :       -3108.26451284 Ha      -84580.18078672 eV
  | Energy correction for multipole
  | error in Hartree potential    :           0.04507898 Ha           1.22666158 eV
  | Sum of eigenvalues per atom                           :       -2011.77155963 eV
  | Total energy (T->0) per atom                          :       -3685.04520081 eV  <-- do not rely on this value for anything but (periodic) metals
  | Electronic free energy per atom                       :       -3685.04520081 eV
  Evaluating new KS density.
  Integration grid: deviation in total charge (<rho> - N_e) =   4.263256E-14

  Self-consistency convergence accuracy:
  | Change of charge density      :  0.1219E+00
  | Change of sum of eigenvalues  : -0.2631E+02 eV
  | Change of total energy        :  0.1834E-01 eV


------------------------------------------------------------
  End self-consistency iteration #     3       :  max(cpu_time)    wall_clock(cpu1)
  | Time for this iteration                     :        0.086 s           0.084 s
  | Charge density update                       :        0.028 s           0.028 s
  | Density mixing                              :        0.004 s           0.002 s
  | Hartree multipole update                    :        0.001 s           0.001 s
  | Hartree multipole summation                 :        0.017 s           0.017 s
  | Integration                                 :        0.031 s           0.032 s
  | Solution of K.-S. eqns.                     :        0.004 s           0.004 s
  | Total energy evaluation                     :        0.000 s           0.000 s

  Partial memory accounting:
  | Current value for overall tracked memory usage:
  |   Minimum:        0.274 MB (on task 23)
  |   Maximum:        0.293 MB (on task  0)
  |   Average:        0.288 MB
  | Peak value for overall tracked memory usage:
  |   Minimum:        1.342 MB (on task 23 after allocating wave)
  |   Maximum:        1.417 MB (on task  5 after allocating wave)
  |   Average:        1.386 MB
  | Largest tracked array allocation so far:
  |   Minimum:        0.736 MB (gradient_basis_wave on task 11)
  |   Maximum:        0.772 MB (gradient_basis_wave on task  5)
  |   Average:        0.755 MB
  Note:  These values currently only include a subset of arrays which are explicitly tracked.
  The "true" memory usage will be greater.
------------------------------------------------------------

------------------------------------------------------------
          Begin self-consistency iteration #    4

  Date     :  20220517, Time     :  121649.695
------------------------------------------------------------
  Pulay mixing of updated and previous charge densities.
  Renormalizing the density to the exact electron count on the 3D integration grid.
  | Formal number of electrons (from input files) :     120.0000000000
  | Integrated number of electrons on 3D grid     :     120.0000000000
  | Charge integration error                      :      -0.0000000000
  | Normalization factor for density and gradient :       1.0000000000

  Evaluating partitioned Hartree potential by multipole expansion.
  | Original multipole sum: apparent total charge =  -0.987107E-13
  | Sum of charges compensated after spline to logarithmic grids =   0.487884E-04
  | Analytical far-field extrapolation by fixed multipoles:
  | Hartree multipole sum: apparent total charge =  -0.978375E-13
  Summing up the Hartree potential.
  Time summed over all CPUs for potential: real work        0.380 s, elapsed        0.398 s
  | RMS charge density error from multipole expansion :   0.189907E-01

  Integrating Hamiltonian matrix: batch-based integration.
  Time summed over all CPUs for integration: real work        0.716 s, elapsed        0.743 s

  Updating Kohn-Sham eigenvalues and eigenvectors using ELSI and the ELPA eigensolver.
  Starting ELPA eigensolver
  Finished transformation to standard eigenproblem
  | Time :     0.000 s
  Finished solving standard eigenproblem
  | Time :     0.003 s
  Finished back-transformation of eigenvectors
  | Time :     0.000 s

  Obtaining occupation numbers and chemical potential using ELSI.
  | Chemical potential (Fermi level):    -7.68293293 eV
  Highest occupied state (VBM) at     -9.08528113 eV
  | Occupation number:      2.00000000

  Lowest unoccupied state (CBM) at    -4.68347864 eV
  | Occupation number:      0.00000000

  Overall HOMO-LUMO gap:      4.40180248 eV.

  Total energy components:
  | Sum of eigenvalues            :        -887.29564955 Ha      -24144.54308496 eV
  | XC energy correction          :        -145.14481139 Ha       -3949.59127100 eV
  | XC potential correction       :         188.99696269 Ha        5142.86902105 eV
  | Free-atom electrostatic energy:        -781.32979301 Ha      -21261.06541895 eV
  | Hartree energy correction     :          -0.29965879 Ha          -8.15413045 eV
  | Entropy correction            :           0.00000000 Ha           0.00000000 eV
  | ---------------------------
  | Total energy                  :       -1625.07295005 Ha      -44220.48488431 eV
  | Total energy, T -> 0          :       -1625.07295005 Ha      -44220.48488431 eV  <-- do not rely on this value for anything but (periodic) metals
  | Electronic free energy        :       -1625.07295005 Ha      -44220.48488431 eV

  Derived energy quantities:
  | Kinetic energy                :        1627.68793510 Ha       44291.64224807 eV
  | Electrostatic energy          :       -3107.61607376 Ha      -84562.53586138 eV
  | Energy correction for multipole
  | error in Hartree potential    :           0.05004122 Ha           1.36169080 eV
  | Sum of eigenvalues per atom                           :       -2012.04525708 eV
  | Total energy (T->0) per atom                          :       -3685.04040703 eV  <-- do not rely on this value for anything but (periodic) metals
  | Electronic free energy per atom                       :       -3685.04040703 eV
  Evaluating new KS density.
  Integration grid: deviation in total charge (<rho> - N_e) =   2.842171E-14

  Self-consistency convergence accuracy:
  | Change of charge density      :  0.8246E-01
  | Change of sum of eigenvalues  : -0.3284E+01 eV
  | Change of total energy        :  0.5753E-01 eV


------------------------------------------------------------
  End self-consistency iteration #     4       :  max(cpu_time)    wall_clock(cpu1)
  | Time for this iteration                     :        0.086 s           0.084 s
  | Charge density update                       :        0.028 s           0.028 s
  | Density mixing                              :        0.004 s           0.002 s
  | Hartree multipole update                    :        0.001 s           0.001 s
  | Hartree multipole summation                 :        0.017 s           0.017 s
  | Integration                                 :        0.031 s           0.032 s
  | Solution of K.-S. eqns.                     :        0.004 s           0.004 s
  | Total energy evaluation                     :        0.000 s           0.000 s

  Partial memory accounting:
  | Current value for overall tracked memory usage:
  |   Minimum:        0.274 MB (on task 23)
  |   Maximum:        0.293 MB (on task  0)
  |   Average:        0.288 MB
  | Peak value for overall tracked memory usage:
  |   Minimum:        1.342 MB (on task 23 after allocating wave)
  |   Maximum:        1.417 MB (on task  5 after allocating wave)
  |   Average:        1.386 MB
  | Largest tracked array allocation so far:
  |   Minimum:        0.736 MB (gradient_basis_wave on task 11)
  |   Maximum:        0.772 MB (gradient_basis_wave on task  5)
  |   Average:        0.755 MB
  Note:  These values currently only include a subset of arrays which are explicitly tracked.
  The "true" memory usage will be greater.
------------------------------------------------------------

------------------------------------------------------------
          Begin self-consistency iteration #    5

  Date     :  20220517, Time     :  121649.786
------------------------------------------------------------
  Pulay mixing of updated and previous charge densities.
  Renormalizing the density to the exact electron count on the 3D integration grid.
  | Formal number of electrons (from input files) :     120.0000000000
  | Integrated number of electrons on 3D grid     :     120.0000000000
  | Charge integration error                      :       0.0000000000
  | Normalization factor for density and gradient :       1.0000000000

  Evaluating partitioned Hartree potential by multipole expansion.
  | Original multipole sum: apparent total charge =  -0.538813E-13
  | Sum of charges compensated after spline to logarithmic grids =   0.496610E-04
  | Analytical far-field extrapolation by fixed multipoles:
  | Hartree multipole sum: apparent total charge =  -0.517536E-13
  Summing up the Hartree potential.
  Time summed over all CPUs for potential: real work        0.380 s, elapsed        0.398 s
  | RMS charge density error from multipole expansion :   0.188211E-01

  Integrating Hamiltonian matrix: batch-based integration.
  Time summed over all CPUs for integration: real work        0.716 s, elapsed        0.743 s

  Updating Kohn-Sham eigenvalues and eigenvectors using ELSI and the ELPA eigensolver.
  Starting ELPA eigensolver
  Finished transformation to standard eigenproblem
  | Time :     0.000 s
  Finished solving standard eigenproblem
  | Time :     0.003 s
  Finished back-transformation of eigenvectors
  | Time :     0.000 s

  Obtaining occupation numbers and chemical potential using ELSI.
  | Chemical potential (Fermi level):    -7.67236387 eV
  Highest occupied state (VBM) at     -9.15154011 eV
  | Occupation number:      2.00000000

  Lowest unoccupied state (CBM) at    -4.62698897 eV
  | Occupation number:      0.00000000

  Overall HOMO-LUMO gap:      4.52455114 eV.

  Total energy components:
  | Sum of eigenvalues            :        -887.10193396 Ha      -24139.27181560 eV
  | XC energy correction          :        -145.14284451 Ha       -3949.53774926 eV
  | XC potential correction       :         188.99453478 Ha        5142.80295437 eV
  | Free-atom electrostatic energy:        -781.32979301 Ha      -21261.06541895 eV
  | Hartree energy correction     :          -0.49278832 Ha         -13.40945258 eV
  | Entropy correction            :           0.00000000 Ha           0.00000000 eV
[...]
   Total forces(   7)            :  0.103307E+01 -0.784391E+00 -0.103217E+01
  atom #    8
   Hellmann-Feynman              : -0.192019E+01 -0.189338E+01  0.219836E+01
   Ionic forces                  :  0.000000E+00  0.000000E+00  0.000000E+00
   Multipole                     : -0.444468E+00 -0.479730E+00  0.545191E+00
   Hartree pot. SCF incomplete   : -0.560336E-06 -0.291273E-06  0.848362E-06
   Pulay + GGA                   :  0.420948E+01  0.423332E+01 -0.490618E+01
   ----------------------------------------------------------------
   Total forces(   8)            :  0.184482E+01  0.186021E+01 -0.216262E+01
  atom #    9
   Hellmann-Feynman              :  0.228393E+01 -0.103827E+01 -0.241091E+01
   Ionic forces                  :  0.000000E+00  0.000000E+00  0.000000E+00
   Multipole                     :  0.571255E+00 -0.273019E+00 -0.568984E+00
   Hartree pot. SCF incomplete   :  0.826360E-06 -0.108096E-07 -0.663314E-06
   Pulay + GGA                   : -0.510379E+01  0.233747E+01  0.531037E+01
   ----------------------------------------------------------------
   Total forces(   9)            : -0.224860E+01  0.102619E+01  0.233048E+01
  atom #   10
   Hellmann-Feynman              :  0.679431E+00  0.474242E+00 -0.781666E+00
   Ionic forces                  :  0.000000E+00  0.000000E+00  0.000000E+00
   Multipole                     :  0.419177E-01  0.179344E+00 -0.476487E-01
   Hartree pot. SCF incomplete   :  0.258546E-05  0.446440E-05 -0.228971E-05
   Pulay + GGA                   : -0.147630E+01 -0.180042E+01  0.175671E+01
   ----------------------------------------------------------------
   Total forces(  10)            : -0.754953E+00 -0.114683E+01  0.927396E+00
  atom #   11
   Hellmann-Feynman              :  0.495647E+00  0.114939E+01  0.663877E+00
   Ionic forces                  :  0.000000E+00  0.000000E+00  0.000000E+00
   Multipole                     : -0.411807E+00  0.148424E+00 -0.348017E+00
   Hartree pot. SCF incomplete   : -0.287241E-05  0.640132E-06 -0.249650E-05
   Pulay + GGA                   :  0.170620E+01 -0.198147E+01  0.118854E+01
   ----------------------------------------------------------------
   Total forces(  11)            :  0.179003E+01 -0.683657E+00  0.150439E+01
  atom #   12
   Hellmann-Feynman              : -0.720053E+00  0.112311E+01 -0.448701E+00
   Ionic forces                  :  0.000000E+00  0.000000E+00  0.000000E+00
   Multipole                     :  0.389372E+00  0.138326E+00  0.380621E+00
   Hartree pot. SCF incomplete   :  0.335825E-05  0.913093E-06  0.322731E-05
   Pulay + GGA                   : -0.140864E+01 -0.196490E+01 -0.164750E+01
   ----------------------------------------------------------------
   Total forces(  12)            : -0.173932E+01 -0.703454E+00 -0.171558E+01


  Self-consistency convergence accuracy:
  | Change of charge density      :  0.1276E-06
  | Change of sum of eigenvalues  : -0.3467E-05 eV
  | Change of total energy        :  0.2790E-08 eV
  | Change of forces              :  0.5541E-06 eV/A

  Writing Kohn-Sham eigenvalues.

  State    Occupation    Eigenvalue [Ha]    Eigenvalue [eV]
      1       2.00000         -55.656819        -1514.49909
      2       2.00000         -55.656809        -1514.49882
      3       2.00000         -55.609836        -1513.22063
      4       2.00000         -24.314733         -661.63756
      5       2.00000         -24.312215         -661.56903
      6       2.00000         -24.293051         -661.04755
      7       2.00000         -24.293045         -661.04740
      8       2.00000         -24.280319         -660.70109
      9       2.00000         -24.222349         -659.12366
     10       2.00000         -24.222339         -659.12339
     11       2.00000         -24.188279         -658.19655
     12       2.00000         -24.188229         -658.19519
     13       2.00000          -4.107486         -111.77039
     14       2.00000          -4.107371         -111.76724
     15       2.00000          -4.061537         -110.52005
     16       2.00000          -2.701088          -73.50034
     17       2.00000          -2.700980          -73.49740
     18       2.00000          -2.698992          -73.44332
     19       2.00000          -2.698288          -73.42415
     20       2.00000          -2.697689          -73.40786
     21       2.00000          -2.697270          -73.39645
     22       2.00000          -2.655246          -72.25291
     23       2.00000          -2.654154          -72.22320
     24       2.00000          -2.649706          -72.10217
     25       2.00000          -1.187394          -32.31063
     26       2.00000          -1.168403          -31.79387
     27       2.00000          -1.160691          -31.58401
     28       2.00000          -1.156916          -31.48129
     29       2.00000          -1.134844          -30.88067
     30       2.00000          -1.068960          -29.08789
     31       2.00000          -1.068693          -29.08060
     32       2.00000          -1.035868          -28.18741
     33       2.00000          -1.032487          -28.09540
     34       2.00000          -0.584293          -15.89942
     35       2.00000          -0.551860          -15.01688
     36       2.00000          -0.542609          -14.76515
     37       2.00000          -0.520299          -14.15807
     38       2.00000          -0.515320          -14.02258
     39       2.00000          -0.507665          -13.81428
     40       2.00000          -0.499903          -13.60305
     41       2.00000          -0.486528          -13.23910
     42       2.00000          -0.483104          -13.14593
     43       2.00000          -0.460645          -12.53480
     44       2.00000          -0.459156          -12.49427
     45       2.00000          -0.446414          -12.14755
     46       2.00000          -0.444210          -12.08756
     47       2.00000          -0.441110          -12.00322
     48       2.00000          -0.429830          -11.69627
     49       2.00000          -0.422695          -11.50213
     50       2.00000          -0.420543          -11.44356
     51       2.00000          -0.403881          -10.99017
     52       2.00000          -0.382707          -10.41400
     53       2.00000          -0.377060          -10.26033
     54       2.00000          -0.376449          -10.24371
     55       2.00000          -0.372252          -10.12949
     56       2.00000          -0.369747          -10.06132
     57       2.00000          -0.346474           -9.42803
     58       2.00000          -0.342469           -9.31906
     59       2.00000          -0.337675           -9.18861
     60       2.00000          -0.335475           -9.12874
     61       0.00000          -0.170103           -4.62875
     62       0.00000          -0.106406           -2.89545
     63       0.00000          -0.095230           -2.59135
     64       0.00000          -0.060995           -1.65975
     65       0.00000          -0.046896           -1.27609
     66       0.00000          -0.024801           -0.67487
     67       0.00000           0.010022            0.27272
     68       0.00000           0.023010            0.62612
     69       0.00000           0.030414            0.82759
     70       0.00000           0.054023            1.47003
     71       0.00000           0.089675            2.44017
     72       0.00000           0.098271            2.67408
     73       0.00000           0.135012            3.67388
     74       0.00000           0.143189            3.89638
     75       0.00000           0.157181            4.27711
     76       0.00000           0.158486            4.31263
     77       0.00000           0.168297            4.57960
     78       0.00000           0.195699            5.32524
     79       0.00000           0.205957            5.60438
     80       0.00000           0.209354            5.69680
     81       0.00000           0.210315            5.72297
     82       0.00000           0.216974            5.90417
     83       0.00000           0.218031            5.93293
     84       0.00000           0.219411            5.97048
     85       0.00000           0.239973            6.53000
     86       0.00000           0.244246            6.64628
     87       0.00000           0.246258            6.70102
     88       0.00000           0.249892            6.79990
     89       0.00000           0.266553            7.25328
     90       0.00000           0.278160            7.56912
     91       0.00000           0.303458            8.25752
     92       0.00000           0.327335            8.90723
     93       0.00000           0.355316            9.66863
     94       0.00000           0.363554            9.89281
     95       0.00000           0.365290            9.94003
     96       0.00000           0.374765           10.19787

  Highest occupied state (VBM) at     -9.12874274 eV
  | Occupation number:      2.00000000

  Lowest unoccupied state (CBM) at    -4.62874561 eV
  | Occupation number:      0.00000000

  Overall HOMO-LUMO gap:      4.49999713 eV.
  | Chemical Potential                          :    -7.66967638 eV

  Self-consistency cycle converged.


------------------------------------------------------------
  End self-consistency iteration #    14       :  max(cpu_time)    wall_clock(cpu1)
  | Time for this iteration                     :        0.292 s           0.295 s
  | Charge density & force component update     :        0.151 s           0.151 s
  | Density mixing                              :        0.008 s           0.009 s
  | Hartree multipole update                    :        0.001 s           0.001 s
  | Hartree multipole summation                 :        0.051 s           0.050 s
  | Hartree pot. SCF incomplete forces          :        0.031 s           0.031 s
  | Integration                                 :        0.033 s           0.033 s
  | Solution of K.-S. eqns.                     :        0.016 s           0.016 s
  | Total energy evaluation                     :        0.000 s           0.001 s

  Partial memory accounting:
  | Current value for overall tracked memory usage:
  |   Minimum:        0.274 MB (on task 23)
  |   Maximum:        0.293 MB (on task  0)
  |   Average:        0.289 MB
  | Peak value for overall tracked memory usage:
  |   Minimum:        2.996 MB (on task 23 after allocating hessian_basis_wave)
  |   Maximum:        3.134 MB (on task  5 after allocating hessian_basis_wave)
  |   Average:        3.074 MB
  | Largest tracked array allocation so far:
  |   Minimum:        1.471 MB (hessian_basis_wave on task 11)
  |   Maximum:        1.543 MB (hessian_basis_wave on task  5)
  |   Average:        1.510 MB
  Note:  These values currently only include a subset of arrays which are explicitly tracked.
  The "true" memory usage will be greater.
------------------------------------------------------------
  Removing unitary transformations (pure translations, rotations) from forces on atoms.
  Atomic forces before filtering:
  | Net force on center of mass :  -0.263854E-02  0.494320E-02  0.256748E-02 eV/A
  | Net torque on center of mass:  -0.182038E-02 -0.997085E-04 -0.902695E-02 eV
  Atomic forces after filtering:
  | Net force on center of mass :   0.713624E-15 -0.178406E-15  0.142725E-14 eV/A
  | Net torque on center of mass:  -0.198258E-14 -0.226580E-14  0.944085E-16 eV

  Energy and forces in a compact form:
  | Total energy uncorrected      :         -0.442204812220306E+05 eV
  | Total energy corrected        :         -0.442204812220306E+05 eV  <-- do not rely on this value for anything but (periodic) metals
  | Electronic free energy        :         -0.442204812220306E+05 eV
  Total atomic forces (unitary forces cleaned) [eV/Ang]:
  |    1         -0.361489093848034E+00          0.336713733100904E+01          0.295187350017578E+00
  |    2          0.227807788181396E+01         -0.838923186823685E+00         -0.229650030429198E+01
  |    3         -0.184473953750414E+01         -0.167631404613343E+01          0.222544736246462E+01
  |    4         -0.195889429721014E+01         -0.165682551020501E+01         -0.209262583777370E+01
  |    5          0.224989841157598E+01         -0.138051777309420E+01          0.179507112853497E+01
  |    6         -0.289679014498277E+00          0.261979366771291E+01          0.222818346248259E+00
  |    7          0.103317701888677E+01         -0.785033885706402E+00         -0.103236964965634E+01
  |    8          0.184543168393353E+01          0.185947760384205E+01         -0.216284143337605E+01
  |    9         -0.224814563075061E+01          0.102617530135351E+01          0.233024921640171E+01
  |   10         -0.754938967084394E+00         -0.114705291265825E+01          0.927184912487746E+00
  |   11          0.179032828707151E+01         -0.684244323627518E+00          0.150418042708277E+01
  |   12         -0.173902674238616E+01         -0.703672265669025E+00         -0.171580151813957E+01

  ------------------------------------ 
  Start decomposition of the XC Energy 
  ------------------------------------ 
  X and C from original XC functional choice 
  Hartree-Fock Energy :          0.000000000 Ha              0.000000000 eV
  X Energy            :       -140.188566612 Ha          -3814.724988593 eV
  C Energy            :         -4.957722861 Ha           -134.906503008 eV
  Total XC Energy     :       -145.146289473 Ha          -3949.631491601 eV
  ------------------------------------ 
  LDA X and C from self-consistent density 
  X Energy LDA        :       -132.778515293 Ha          -3613.087232984 eV
  C Energy LDA        :         -8.827260841 Ha           -240.201988826 eV
  ------------------------------------ 
  End decomposition of the XC Energy 
  ------------------------------------ 

------------------------------------------------------------

------------------------------------------------------------------------------
  Final output of selected total energy values:

  The following output summarizes some interesting total energy values
  at the end of a run (AFTER all relaxation, molecular dynamics, etc.).

  | Total energy of the DFT / Hartree-Fock s.c.f. calculation      :         -44220.481222031 eV
  | Final zero-broadening corrected energy (caution - metals only) :         -44220.481222031 eV
  | For reference only, the value of 1 Hartree used in FHI-aims is :             27.211384500 eV

  Before relying on these values, please be sure to understand exactly which
  total energy value is referred to by a given number. Different objects may
  all carry the same name 'total energy'. Definitions:

  Total energy of the DFT / Hartree-Fock s.c.f. calculation:
  | Note that this energy does not include ANY quantities calculated after the
  | s.c.f. cycle, in particular not ANY RPA, MP2, etc. many-body perturbation terms.

  Final zero-broadening corrected energy:
  | For metallic systems only, a broadening of the occupation numbers at the Fermi
  | level can be extrapolated back to zero broadening by an electron-gas inspired
  | formula. For all systems that are not real metals, this value can be
  | meaningless and should be avoided.

------------------------------------------------------------------------------
  Methods described in the following list of references were used in this FHI-aims run.
  If you publish the results, please make sure to cite these reference if they apply.
  FHI-aims is an academic code, and for our developers (often, Ph.D. students
  and postdocs), scientific credit in the community is essential.
  Thank you for helping us!

  For any use of FHI-aims, please cite:

    Volker Blum, Ralf Gehrke, Felix Hanke, Paula Havu, Ville Havu,
    Xinguo Ren, Karsten Reuter, and Matthias Scheffler
    'Ab initio molecular simulations with numeric atom-centered orbitals'
    Computer Physics Communications 180, 2175-2196 (2009)
    http://dx.doi.org/10.1016/j.cpc.2009.06.022


  The ELSI infrastructure was used in your run to solve the Kohn-Sham electronic structure.
  Please check out http://elsi-interchange.org to learn more.
  If scalability is important for your project, please acknowledge ELSI by citing:

    V. W-z. Yu, F. Corsetti, A. Garcia, W. P. Huhn, M. Jacquelin, W. Jia,
    B. Lange, L. Lin, J. Lu, W. Mi, A. Seifitokaldani, A. Vazquez-Mayagoitia,
    C. Yang, H. Yang, and V. Blum
    'ELSI: A unified software interface for Kohn-Sham electronic structure solvers'
    Computer Physics Communications 222, 267-285 (2018).
    http://dx.doi.org/10.1016/j.cpc.2017.09.007


  For the real-space grid partitioning and parallelization used in this calculation, please cite:

    Ville Havu, Volker Blum, Paula Havu, and Matthias Scheffler,
    'Efficient O(N) integration for all-electron electronic structure calculation'
    'using numerically tabulated basis functions'
    Journal of Computational Physics 228, 8367-8379 (2009).
    http://dx.doi.org/10.1016/j.jcp.2009.08.008

  Of course, there are many other important community references, e.g., those cited in the
  above references. Our list is limited to references that describe implementations in the
  FHI-aims code. The reason is purely practical (length of this list) - please credit others as well.

------------------------------------------------------------
          Leaving FHI-aims.
          Date     :  20220517, Time     :  121651.114

          Computational steps:
          | Number of self-consistency cycles          :           14
          | Number of SCF (re)initializations          :            1

          Detailed time accounting                     :  max(cpu_time)    wall_clock(cpu1)
          | Total time                                  :        2.003 s           8.031 s
          | Preparation time                            :        0.185 s           0.185 s
          | Boundary condition initalization            :        0.000 s           0.000 s
          | Grid partitioning                           :        0.036 s           0.036 s
          | Preloading free-atom quantities on grid     :        0.016 s           0.016 s
          | Free-atom superposition energy              :        0.005 s           0.004 s
          | Total time for integrations                 :        0.488 s           0.488 s
          | Total time for solution of K.-S. equations  :        0.081 s           0.082 s
          | Total time for density & force components   :        0.678 s           0.674 s
          | Total time for mixing                       :        0.061 s           0.040 s
          | Total time for Hartree multipole update     :        0.019 s           0.015 s
          | Total time for Hartree multipole sum        :        0.309 s           0.310 s
          | Total time for total energy evaluation      :        0.002 s           0.002 s
          | Total time NSC force correction             :        0.062 s           0.062 s
          | Total time for scaled ZORA corrections      :        0.000 s           0.000 s

          Partial memory accounting:
          | Residual value for overall tracked memory usage across tasks:     0.000000 MB (should be 0.000000 MB)
          | Peak values for overall tracked memory usage:
          |   Minimum:        2.996 MB (on task 23 after allocating hessian_basis_wave)
          |   Maximum:        3.134 MB (on task  5 after allocating hessian_basis_wave)
          |   Average:        3.074 MB
          | Largest tracked array allocation:
          |   Minimum:        1.471 MB (hessian_basis_wave on task 11)
          |   Maximum:        1.543 MB (hessian_basis_wave on task  5)
          |   Average:        1.510 MB
          Note:  These values currently only include a subset of arrays which are explicitly tracked.
          The "true" memory usage will be greater.

          Have a nice day.
------------------------------------------------------------
