12
Properties=species:S:1:pos:R:3:forces:R:3 energy=-187.38419571 pbc="F F F"
Al    1.41043718    -0.04903798299999999    2.390152873    0.146268    0.115161    0.021561
Al    1.3489198    1.1031876999999999    -0.1312133    -0.009006    0.007095    -0.021339
Al    -0.526433762    1.02853025    -2.2155718729999996    -0.116479    -0.132246    0.065057
F    -2.032567972    0.012272047000000008    -2.009230106    0.075728    0.070092    -0.010482
F    1.9928595530000002    -0.528305353    0.653540552    -0.005972    -0.011881    0.011155
F    -0.083788761    1.90987479    -3.746590533    0.021053    0.047291    -0.063766
F    -0.23760141    2.113635853    -0.686902849    0.01267    0.009302    0.008772
F    2.803983657    2.163675712    -0.464392343    0.002346    0.000962    0.001873
F    1.0202290390000002    -0.041599994999999994    -1.653057554    0.013195    0.006409    0.005455
F    0.673817017    1.567732529    1.6340146389999999    -0.006657    -0.010068    0.009168
F    2.8100085690000003    0.349196976    3.4858322370000003    -0.0576    -0.02848    -0.046487
F    0.0014937750000000027    -1.129507852    2.8569303710000002    -0.075546    -0.073638    0.019033
12
Properties=species:S:1:pos:R:3:forces:R:3 energy=-187.27329192 pbc="F F F"
Al    1.59226768    0.19321631700000003    2.415732073    1.48678    1.096264    0.379577
Al    1.315666    1.12793    -0.203227    -0.025098    0.134425    -0.231976
Al    -0.634888562    0.71710025    -2.1820377730000002    -1.260812    -1.351999    0.527189
F    -2.265157172    -0.07911345299999994    -1.716196606    0.600264    0.605526    -0.159133
F    2.183595253    -0.348076953    0.7046904519999999    0.007717    -0.178459    0.080172
F    -0.21866386100000001    1.47202829    -3.849562333    0.173773    0.513759    -0.768247
F    -0.28917280999999995    2.061951753    -0.831043049    0.069986    0.168113    0.105525
F    2.696898557    2.244004512    -0.673776443    0.149422    0.141917    -0.024865
F    0.9576592389999998    -0.231520595    -1.536374254    0.222894    0.006619    0.039635
F    0.617833117    1.601003429    1.546628039    -0.129852    -0.005447    0.087919
F    2.887589969    0.824190076    3.461546437    -0.489888    -0.276675    -0.34391
F    0.330041675    -1.0745423520000001    2.9796070709999998    -0.805184    -0.854045    0.308114
12
Properties=species:S:1:pos:R:3:forces:R:3 energy=-187.38120264 pbc="F F F"
Al    1.42879368    -0.019696282999999995    2.3942256729999998    0.292815    0.228839    0.046818
Al    1.3468966    1.1036523999999999    -0.1400836    -0.016452    0.015695    -0.042992
Al    -0.541720962    0.99758925    -2.210371973    -0.235192    -0.264943    0.126932
F    -2.067380772    0.012887547    -1.972756606    0.148069    0.138329    -0.022446
F    2.016224853    -0.508459753    0.6638006519999999    -0.010402    -0.02517    0.021693
F    -0.088631661    1.8496952899999999    -3.763250733    0.041485    0.095666    -0.130499
F    -0.23458601    2.119711953    -0.707204649    0.024124    0.020349    0.018048
F    2.798465757    2.1649529120000004    -0.491079243    0.007673    0.004816    0.003081
F    1.0019808389999998    -0.072445395    -1.634543854    0.028492    0.011406    0.010701
F    0.6651499169999999    1.571703629    1.6200172389999998    -0.014635    -0.017916    0.018301
F    2.816098169    0.40582887599999995    3.484664037    -0.11345    -0.056986    -0.090212
F    0.039866875    -1.125548352    2.870017671    -0.152527    -0.150084    0.040575
12
Properties=species:S:1:pos:R:3:forces:R:3 energy=-187.37616231 pbc="F F F"
Al    1.26687018    0.213557417    2.491539473    0.439751    0.341107    0.075799
Al    1.1880624    1.2869561    -0.0655239    -0.022366    0.025783    -0.065005
Al    -0.208453162    0.56709625    -2.3879340730000003    -0.356144    -0.398182    0.185756
F    -1.308843572    -0.901158953    -2.353479106    0.216976    0.204607    -0.035797
F    2.149962153    -0.151399153    0.821247752    -0.013296    -0.039842    0.031581
F    -0.002349561    1.68703779    -3.827216933    0.06122    0.14506    -0.20018
F    -0.55260661    1.682617053    -0.806326449    0.034341    0.033122    0.02779
F    2.321755857    2.712794112    -0.26725714300000003    0.01592    0.01159    0.003508
F    1.485323639    0.136375205    -1.631177154    0.045881    0.015037    0.015696
F    0.27230081700000003    1.553415729    1.6026078389999998    -0.023977    -0.023569    0.027373
F    2.426476769    0.913122776    3.691752837    -0.167485    -0.085443    -0.131195
F    0.140257975    -1.197871852    2.846292971    -0.230819    -0.22927    0.064675
12
Properties=species:S:1:pos:R:3:forces:R:3 energy=-187.36899706 pbc="F F F"
Al    1.29733568    0.226865117    2.488667273    0.587179    0.452052    0.108506
Al    1.1841591999999999    1.2894358    -0.0732432    -0.026784    0.037333    -0.087421
Al    -0.237598362    0.55453325    -2.375037173    -0.47932    -0.532047    0.241683
F    -1.302272372    -0.945011453    -2.338465606    0.282406    0.268827    -0.050434
F    2.148285453    -0.15046155300000003    0.807413852    -0.014667    -0.05587    0.040789
F    -0.05740546099999999    1.68659929    -3.817021133    0.080182    0.195406    -0.272789
F    -0.57307821    1.663797153    -0.7866162489999999    0.043302    0.047599    0.037956
F    2.310507957    2.719618312    -0.290534043    0.027024    0.021303    0.003038
F    1.4786024389999999    0.146228805    -1.645947454    0.06534    0.01735    0.020395
F    0.295810717    1.5665478290000001    1.6087034390000001    -0.03472    -0.027057    0.03636
F    2.4732903690000003    0.919173676    3.668913637    -0.219642    -0.113772    -0.169462
F    0.161615075    -1.1754023519999999    2.8672502709999996    -0.310299    -0.311125    0.09138
12
Properties=species:S:1:pos:R:3:forces:R:3 energy=-187.35959878 pbc="F F F"
Al    1.32734018    0.24080981699999998    2.486122073    0.735197    0.561775    0.144913
Al    1.18065    1.2913465    -0.0811745    -0.029752    0.050309    -0.110276
Al    -0.267556562    0.54287825    -2.3617822729999998    -0.604675    -0.666616    0.294882
F    -1.2978841719999998    -0.986251953    -2.3225421059999998    0.344322    0.330888    -0.066252
F    2.147135753    -0.14956395299999997    0.794751952    -0.014533    -0.073221    0.049285
F    -0.109955361    1.6833337899999998    -3.808105333    0.098298    0.24664    -0.3483
F    -0.59139181    1.647904253    -0.767958049    0.05099    0.06375    0.048506
F    2.300812057    2.724558512    -0.314659943    0.040914    0.033973    0.001556
F    1.469052239    0.153653405    -1.659342754    0.086837    0.018399    0.024752
F    0.318688617    1.579771929    1.6137200390000002    -0.046896    -0.028423    0.045247
F    2.5195279690000003    0.926186576    3.6464334369999998    -0.269859    -0.141895    -0.20504
F    0.18349917500000001    -1.1535058519999999    2.888090571    -0.390841    -0.395578    0.120727
12
Properties=species:S:1:pos:R:3:forces:R:3 energy=-187.34782955 pbc="F F F"
Al    1.3568816799999999    0.255430517    2.483912873    0.883891    0.670387    0.184965
Al    1.1774558    1.2927842    -0.0892768    -0.031328    0.06466    -0.133602
Al    -0.298114762    0.53183825    -2.348282373    -0.732142    -0.801958    0.345545
F    -1.2952989719999999    -1.025379453    -2.305904606    0.402691    0.390693    -0.083143
F    2.1465970530000003    -0.14853735299999998    0.783246052    -0.012916    -0.091861    0.057042
F    -0.160292261    1.67753829    -3.800333533    0.115498    0.298693    -0.426684
F    -0.60784841    1.634527353    -0.750423849    0.057393    0.081538    0.059398
F    2.292380157    2.7279577120000003    -0.339498843    0.057516    0.049613    -0.001048
F    1.457140039    0.158838005    -1.671377054    0.110326    0.018238    0.028717
F    0.340788517    1.593020029    1.617712639    -0.060528    -0.027716    0.05402
F    2.5650925690000004    0.934316476    3.624351237    -0.318078    -0.169734    -0.237962
F    0.205942275    -1.1321733520000001    2.9088148709999997    -0.472324    -0.482552    0.152751
12
Properties=species:S:1:pos:R:3:forces:R:3 energy=-187.33352242 pbc="F F F"
Al    1.5274671800000001    0.118462217    2.4100816729999996    1.033341    0.778009    0.228581
Al    1.3293446    1.1159989    -0.18059509999999998    -0.031574    0.080325    -0.157422
Al    -0.602777962    0.82473125    -2.191585473    -0.861625    -0.938129    0.393879
F    -2.2022127719999998    -0.031707952999999955    -1.8078141060000001    0.457488    0.44815    -0.100994
F    2.126421353    -0.405850753    0.697691152    -0.009846    -0.111749    0.064033
F    -0.154918161    1.59607079    -3.825102733    0.131712    0.351498    -0.507908
F    -0.25668001    2.0997904530000002    -0.793837649    0.0625    0.10092    0.070589
F    2.742569257    2.205244912    -0.609578743    0.076752    0.068228    -0.004886
F    0.9600038390000001    -0.187373395    -1.562903354    0.135752    0.016922    0.03224
F    0.628577417    1.589278129    1.5668552390000001    -0.075634    -0.024995    0.062673
F    2.8540261690000004    0.677425376    3.474008037    -0.364243    -0.197211    -0.268267
F    0.22548937500000002    -1.0979138519999998    2.937340171    -0.554622    -0.571968    0.187481
12
Properties=species:S:1:pos:R:3:forces:R:3 energy=-187.31648250 pbc="F F F"
Al    1.41455668    0.286773917    2.4804924730000004    1.183608    0.88477    0.275651
Al    1.1718043999999999    1.2945555999999998    -0.1058784    -0.030564    0.097232    -0.181753
Al    -0.360293162    0.51061925    -2.320898573    -0.993003    -1.075174    0.440105
F    -1.2944315720000001    -1.098735453    -2.270944606    0.508691    0.503165    -0.11969
F    2.147737653    -0.145491153    0.763602252    -0.005357    -0.132842    0.070234
F    -0.255134061    1.65910429    -3.7878679330000002    0.146872    0.40499    -0.591937
F    -0.63608361    1.614068553    -0.719058449    0.066304    0.121848    0.082037
F    2.278419357    2.731240112    -0.390857643    0.09854    0.08982    -0.010065
F    1.427765639    0.163062205    -1.691339654    0.163045    0.014509    0.03527
F    0.38213731700000003    1.6192552290000002    1.622793839    -0.092224    -0.020326    0.071203
F    2.653625769    0.954606276    3.581647837    -0.408299    -0.224246    -0.295994
F    0.252565475    -1.091178352    2.949838471    -0.637613    -0.663745    0.22494
12
Properties=species:S:1:pos:R:3:forces:R:3 energy=-187.29648806 pbc="F F F"
Al    1.4426891800000001    0.303484617    2.4792532730000003    1.334744    0.990808    0.326037
Al    1.1692732000000001    1.2950343    -0.11433170000000001    -0.028377    0.115297    -0.206605
Al    -0.39158536199999994    0.50002425    -2.307164673    -1.126125    -1.213125    0.48446
F    -1.295703372    -1.133525953    -2.252758106    0.556285    0.555653    -0.139111
F    2.149625953    -0.143192553    0.755391352    0.000512    -0.155096    0.075621
F    -0.29994196100000003    1.64672179    -3.783049133    0.160913    0.459099    -0.678731
F    -0.64823521    1.606463653    -0.705382249    0.068799    0.144266    0.093697
F    2.272522457    2.731601312    -0.41717454299999995    0.122794    0.114386    -0.01669
F    1.410975439    0.16236180500000003    -1.6992579540000001    0.192124    0.011055    0.037753
F    0.4011562169999999    1.632049329    1.623959439    -0.110299    -0.013783    0.079615
F    2.696222369    0.9671281759999999    3.561201637    -0.450196    -0.25076    -0.321192
F    0.276761575    -1.071535852    2.970067771    -0.721174    -0.7578    0.265146
12
Properties=species:S:1:pos:R:3:forces:R:3 energy=-187.38518821 pbc="F F F"
Al    1.03577868    -0.15752768299999997    2.440703073    0.0    0.0    0.0
Al    1.3191069999999998    1.158758    -0.007469000000000003    0.0    0.0    -0.0
Al    -0.11864656200000001    1.07568125    -2.4020147730000003    0.0    0.0    -0.0
F    -1.582249172    -0.09303045300000001    -2.448946606    -0.0    -0.0    0.0
F    1.9479222530000002    -0.47409195299999995    0.783613452    0.0    -0.0    0.0
F    0.37875613900000005    2.08574829    -3.781902333    -0.0    -0.0    0.0
F    -0.23151481000000002    2.045721753    -0.774108049    -0.0    0.0    -0.0
F    2.714073557    2.330047512    -0.09489444300000002    0.0    0.0    -0.0
F    1.3351062390000001    0.106273405    -1.630145254    -0.0    -0.0    -0.0
F    0.381299117    1.465354429    1.6396510389999999    -0.0    -0.0    0.0
F    2.288534969    0.277093076    3.740351437    -0.0    -0.0    0.0
F    -0.28745232499999995    -1.3192673519999998    2.6510010709999996    -0.0    -0.0    -0.0
12
Properties=species:S:1:pos:R:3:forces:R:3 energy=-187.38419566 pbc="F F F"
Al    1.44002418    -0.191374383    2.345361273    -0.1461    -0.116701    -0.017922
Al    1.2049851999999999    1.2751302999999998    -0.033976700000000006    0.010581    -0.005587    0.021073
Al    -0.397427362    0.98142725    -2.277802673    0.114274    0.13189    -0.068347
F    -1.608752372    -0.398851953    -2.2725221060000003    -0.079062    -0.071842    0.008908
F    2.2297949530000003    -0.262810553    0.6220703519999999    0.007516    0.010452    -0.011736
F    -0.15075896099999997    2.1293667899999997    -3.669837133    -0.021596    -0.046144    0.060786
F    -0.51459821    1.896716653    -0.624487249    -0.013862    -0.007548    -0.008231
F    2.3732264570000003    2.678185312    -0.17358654300000004    0.00069    0.001899    -0.002419
F    1.2977364390000001    0.264465805    -1.694886954    -0.011095    -0.007864    -0.005625
F    0.35402421700000003    1.311522329    1.700708439    0.005382    0.012298    -0.009171
F    2.613291369    0.44433117600000005    3.5853716369999997    0.059283    0.028377    0.049265
F    0.337000575    -1.625098852    2.608976771    0.073988    0.070768    -0.016579
12
Properties=species:S:1:pos:R:3:forces:R:3 energy=-187.38120224 pbc="F F F"
Al    1.4086036800000001    -0.20527008300000002    2.348342473    -0.292147    -0.234983    -0.032289
Al    1.2070534    1.2747126    -0.025133399999999993    0.022741    -0.009674    0.04193
Al    -0.369208162    0.99678225    -2.289990573    0.226395    0.263523    -0.14007
F    -1.606113572    -0.363523453    -2.2926286059999996    -0.1614    -0.145329    0.016153
F    2.239926653    -0.256768153    0.639571252    0.01657    0.019459    -0.024015
F    -0.09553306099999999    2.13163529    -3.679433933    -0.043656    -0.091075    0.118581
F    -0.49618761    1.9163275530000001    -0.641827449    -0.028887    -0.013336    -0.015885
F    2.379245357    2.677438112    -0.14715064300000003    0.004467    0.006624    -0.005267
F    1.303520639    0.25835120500000003    -1.680570654    -0.020099    -0.017221    -0.011384
F    0.319934317    1.292595229    1.6919278389999999    0.009541    0.026829    -0.018311
F    2.557915769    0.44661727599999995    3.6126408370000003    0.12018    0.056576    0.10132
F    0.32960547500000004    -1.666087352    2.579710471    0.146295    0.138606    -0.030764
12
Properties=species:S:1:pos:R:3:forces:R:3 energy=-187.37616094 pbc="F F F"
Al    1.3756331800000001    -0.217554783    2.352035673    -0.438253    -0.354867    -0.043212
Al    1.2098846    1.2735299    -0.016626099999999998    0.036473    -0.012278    0.062625
Al    -0.341359962    1.01268125    -2.301929473    0.336433    0.394995    -0.215228
F    -1.603063772    -0.328484953    -2.312867106    -0.246954    -0.220352    0.021653
F    2.2457553530000003    -0.253538753    0.657538152    0.027153    0.027007    -0.0368
F    -0.040682160999999994    2.13430879    -3.688809733    -0.066099    -0.134733    0.17338
F    -0.47700201    1.9358584529999998    -0.658108649    -0.045046    -0.017368    -0.022927
F    2.387813257    2.6738319120000003    -0.121950743    0.011375    0.014134    -0.008422
F    1.308844839    0.25219260499999996    -1.6673963539999999    -0.027036    -0.028103    -0.017243
F    0.289197417    1.2777181290000001    1.683234239    0.012531    0.043584    -0.027379
F    2.505656169    0.444986376    3.638305037    0.182623    0.084522    0.156174
F    0.31852337500000005    -1.703186852    2.551982171    0.216799    0.203458    -0.042622
12
Properties=species:S:1:pos:R:3:forces:R:3 energy=-187.36899384 pbc="F F F"
Al    1.34154368    -0.228620483    2.356237873    -0.584528    -0.476355    -0.050825
Al    1.2133338    1.2717611999999998    -0.0083938    0.051757    -0.013428    0.083207
Al    -0.313989762    1.02914125    -2.313561373    0.444479    0.526404    -0.293857
F    -1.599507972    -0.29394745299999997    -2.333227606    -0.335658    -0.296804    0.025329
F    2.2479150530000003    -0.252717353    0.675652052    0.039248    0.033088    -0.050051
F    0.013475739000000014    2.13758529    -3.6978545329999997    -0.088841    -0.177056    0.225182
F    -0.45735641000000005    1.955173353    -0.673212849    -0.062305    -0.019653    -0.029324
F    2.398405157    2.6679677120000003    -0.09776684299999999    0.021455    0.024384    -0.011765
F    1.313836039    0.24629400499999998    -1.655389054    -0.031937    -0.040538    -0.023173
F    0.261502517    1.266219029    1.674795639    0.014412    0.062543    -0.036331
F    2.456137569    0.43996747599999997    3.6625542369999997    0.246538    0.112143    0.21383
F    0.304532275    -1.737176352    2.5254188710000003    0.285381    0.265273    -0.052222
12
Properties=species:S:1:pos:R:3:forces:R:3 energy=-187.35959255 pbc="F F F"
Al    1.30666518    -0.238766183    2.360800073    -0.731078    -0.599431    -0.055289
Al    1.217291    1.2695295    -0.0003855000000000039    0.06856    -0.01316    0.103728
Al    -0.287162562    1.04616625    -2.324857273    0.550639    0.657844    -0.375967
F    -1.595435172    -0.259993953    -2.353696106    -0.427443    -0.374577    0.027107
F    2.2469197530000002    -0.25397495299999995    0.693680952    0.052833    0.037694    -0.063725
F    0.06676563899999999    2.14156679    -3.7065163329999997    -0.111801    -0.217984    0.273988
F    -0.43746781    1.9741882530000001    -0.6870940489999999    -0.080628    -0.020204    -0.035044
F    2.4106240569999997    2.660287512    -0.074426943    0.034742    0.037325    -0.015177
F    1.318574239    0.24084040499999998    -1.644533754    -0.034842    -0.054547    -0.02915
F    0.236570617    1.257544929    1.666730039    0.015243    0.083674    -0.045121
F    2.4090309690000002    0.432025576    3.6855534370000003    0.311855    0.139365    0.274291
F    0.28823517499999995    -1.768658852    2.499753571    0.351921    0.324002    -0.059642
12
Properties=species:S:1:pos:R:3:forces:R:3 energy=-187.34781888 pbc="F F F"
Al    1.27126368    -0.24823488300000002    2.365608273    -0.878002    -0.724053    -0.05679
Al    1.2216652000000001    1.2669198000000002    0.007435799999999999    0.086838    -0.011524    0.124235
Al    -0.260915362    1.06376125    -2.335804173    0.655037    0.789404    -0.461539
F    -1.590862372    -0.226655453    -2.374275606    -0.522235    -0.453559    0.026917
F    2.243168453    -0.257066553    0.7114288520000001    0.06788    0.040825    -0.077779
F    0.11905353899999999    2.14636529    -3.7147461330000002    -0.134893    -0.25746    0.319807
F    -0.41751320999999997    1.992831153    -0.6997272489999999    -0.099977    -0.019044    -0.040058
F    2.4241639569999998    2.651122312    -0.05179704299999999    0.051266    0.052904    -0.018536
F    1.323136439    0.235970805    -1.6348134539999999    -0.035802    -0.070147    -0.035151
F    0.21418571700000003    1.2512468289999998    1.659143439    0.015086    0.106933    -0.053696
F    2.364096369    0.421518676    3.707422637    0.378499    0.166118    0.337552
F    0.27008607500000004    -1.798080352    2.4748092710000003    0.416303    0.379603    -0.064963
12
Properties=species:S:1:pos:R:3:forces:R:3 energy=-187.33350568 pbc="F F F"
Al    1.23556518    -0.25724458299999997    2.370568473    -1.025391    -0.850159    -0.055534
Al    1.2263784000000002    1.2639941    0.015103100000000001    0.106534    -0.008574    0.144775
Al    -0.23527116199999998    1.08193225    -2.346404073    0.757812    0.921167    -0.550528
F    -1.585803572    -0.193944953    -2.3949861059999997    -0.619958    -0.533642    0.024694
F    2.2369711530000003    -0.261803153    0.728713752    0.084356    0.042482    -0.09217
F    0.17020443899999999    2.1521387900000004    -3.722481933    -0.158032    -0.295426    0.362649
F    -0.39765361    2.011012053    -0.711091449    -0.120309    -0.0162    -0.044336
F    2.438772857    2.640736112    -0.029757142999999986    0.07105    0.071062    -0.021723
F    1.327606639    0.231812205    -1.626225154    -0.034874    -0.087344    -0.041162
F    0.19417681699999997    1.246943729    1.652138839    0.014005    0.132267    -0.062001
F    2.321172769    0.408704776    3.728242837    0.446396    0.192332    0.403607
F    0.25043297500000006    -1.825775852    2.450476971    0.478411    0.432036    -0.068271
12
Properties=species:S:1:pos:R:3:forces:R:3 energy=-187.31645785 pbc="F F F"
Al    0.9675996800000001    0.030942716999999995    2.506989673    -1.173324    -0.977664    -0.05175
Al    1.3790126    1.0818684    -0.0608686    0.127577    -0.004377    0.165387
Al    -0.092338962    0.94309825    -2.423008973    0.859113    1.053206    -0.642862
F    -1.583333772    -0.17256945299999998    -2.411323606    -0.72053    -0.614716    0.020378
F    1.729950853    -0.608943753    0.8136926520000001    0.102223    0.042671    -0.106852
F    0.407904339    1.91176429    -3.839322733    -0.181132    -0.331828    0.402533
F    -0.15575700999999997    1.998902953    -0.825637649    -0.141581    -0.011704    -0.047851
F    2.890897757    2.105733912    -0.251024243    0.094114    0.091738    -0.024619
F    1.3332648390000001    -0.023391394999999995    -1.6399668539999999    -0.032127    -0.106141    -0.047172
F    0.582979917    1.701164629    1.625180239    0.012064    0.159607    -0.069978
F    2.377911169    0.30490987599999997    3.697195037    0.515471    0.217938    0.472445
F    -0.660829125    -0.7686963520000001    2.925488671    0.538132    0.48127    -0.069659
12
Properties=species:S:1:pos:R:3:forces:R:3 energy=-187.29645351 pbc="F F F"
Al    1.16404518    -0.27465298299999996    2.380626873    -1.321872    -1.106456    -0.045688
Al    1.2365398    1.2573747    0.030081699999999996    0.149883    0.000996    0.186109
Al    -0.185799762    1.12000725    -2.3666248729999997    0.959103    1.185587    -0.73844
F    -1.5742299720000001    -0.13045795300000002    -2.436955106    -0.823869    -0.696669    0.013914
F    2.218241553    -0.27561835300000004    0.761247552    0.121435    0.041399    -0.121779
F    0.268518239    2.1674317899999997    -3.736147533    -0.204104    -0.366613    0.439478
F    -0.35883341    2.045595853    -0.7299698490000001    -0.163743    -0.005595    -0.050578
F    2.470334657    2.617183712    0.012975657000000002    0.120469    0.114864    -0.027105
F    1.336678039    0.226077005    -1.6124545540000002    -0.027633    -0.12653    -0.053174
F    0.160710017    1.243015529    1.6402456390000002    0.009325    0.188873    -0.077565
F    2.240929569    0.37689797599999997    3.766940237    0.585649    0.242869    0.544051
F    0.20769577499999997    -1.877041852    2.403408371    0.595356    0.527274    -0.069224
12
Properties=species:S:1:pos:R:3:forces:R:3 energy=-187.38491426 pbc="F F F"
Al    1.34590868    -0.0025469829999999957    2.4342913729999998    -0.015959    0.016264    0.003114
Al    1.2527059999999999    1.166622    -0.078726    0.000897    0.000843    -0.000162
Al    -0.36500946199999995    0.90359265    -2.315846073    0.014661    -0.017485    -0.002877
F    -1.919975872    -0.08090545300000002    -2.147812706    -0.00521    -0.004838    0.000863
F    2.293393753    -0.251134553    0.800647652    0.008006    -0.008149    -0.011346
F    0.281296139    1.63398269    -3.899765433    0.00026    0.009073    -0.007769
F    -0.25825721    2.142579553    -0.872991549    -0.005496    0.010507    0.010891
F    2.567772557    2.402056512    -0.31671744300000004    -0.000165    -0.000155    3e-05
F    1.0708442390000001    -0.126813695    -1.490528354    -0.006181    0.003382    -0.004784
F    0.242618917    1.340285229    1.5487874389999998    0.003949    -0.005479    0.005188
F    2.3903090689999997    0.8553918760000001    3.7122374369999998    0.010378    0.000922    0.005841
F    0.279620375    -1.480577352    2.7406341710000004    -0.005139    -0.004884    0.00101
12
Properties=species:S:1:pos:R:3:forces:R:3 energy=-187.24277852 pbc="F F F"
Al    1.1089296800000001    0.064196317    2.3466920730000003    -0.388269    0.251669    -0.287204
Al    1.4513209999999999    1.353213    -0.11466900000000001    0.091641    0.086093    -0.016583
Al    -0.293459562    0.68143525    -2.198308773    0.283997    -0.349643    0.306096
F    -1.244632172    -0.903592453    -2.010526606    -0.414848    -0.558814    0.034494
F    1.753694253    -0.443735953    0.596389452    0.246274    -0.442345    -0.245794
F    -0.491376861    1.95931329    -3.610122333    0.06318    0.797337    -0.74719
F    -0.43246481000000003    1.664502753    -0.539534049    -0.376597    0.319913    0.269378
F    2.735666557    2.559795512    -0.34710444300000004    -0.019978    -0.018768    0.003616
F    1.6066722390000001    0.43062740499999996    -1.862597254    0.286875    -0.184105    -0.225091
F    0.883463117    1.8882664290000002    1.707912039    -0.125383    0.335819    0.195862
F    2.6205549689999996    0.02047707600000004    3.520761437    0.926149    0.132103    0.568129
F    -0.5235033250000001    -0.777939352    2.6264690710000003    -0.573042    -0.369259    0.144286
12
Properties=species:S:1:pos:R:3:forces:R:3 energy=-187.38394716 pbc="F F F"
Al    1.34396568    0.023247717    2.460233673    -0.03652    0.033234    -0.001935
Al    1.227641    1.1430740000000001    -0.07419    0.003589    0.003372    -0.000649
Al    -0.344693362    0.89505905    -2.345114373    0.031354    -0.038089    0.002875
F    -1.890266572    -0.11629145299999999    -2.227461806    -0.020265    -0.019959    0.003153
F    2.245930253    -0.283713153    0.809355852    0.021564    -0.023625    -0.025793
F    0.30728713900000004    1.68969309    -3.892009533    0.004717    0.031919    -0.032953
F    -0.29395961000000004    2.097029353    -0.866649049    -0.017348    0.027585    0.02503
F    2.546829557    2.382379512    -0.312927443    -0.000665    -0.000625    0.00012
F    1.091496239    -0.131185795    -1.5070304540000001    -0.005697    0.000379    -0.013106
F    0.242362717    1.3638180290000002    1.561598839    0.002597    -0.003291    0.013666
F    2.444643169    0.875143676    3.689944437    0.037744    0.007973    0.025265
F    0.261271075    -1.434515352    2.8182292710000003    -0.02107    -0.018873    0.004327
12
Properties=species:S:1:pos:R:3:forces:R:3 energy=-187.38185309 pbc="F F F"
Al    1.1882316800000001    0.088088417    2.418775973    -0.062004    0.051416    -0.014824
Al    1.352028    1.259934    -0.09670000000000001    0.008086    0.007597    -0.001463
Al    -0.28013626199999997    0.74455845    -2.287155673    0.0505    -0.062228    0.016913
F    -1.3259172719999999    -0.770608453    -2.2082519059999997    -0.044557    -0.045888    0.006566
F    1.773979753    -0.46437475300000003    0.668567052    0.039997    -0.046789    -0.043311
F    -0.35354786099999996    2.03360849    -3.649408633    0.012303    0.069532    -0.074802
F    -0.46545601000000003    1.673207153    -0.609413549    -0.035946    0.050594    0.042578
F    2.650761557    2.480031512    -0.331735443    -0.001512    -0.001421    0.000274
F    1.5320462389999998    0.313442105    -1.816395554    0.001944    -0.008474    -0.02517
F    0.756470517    1.8160438289999998    1.6981972390000002    -0.00347    0.00704    0.025445
F    2.7069552690000003    0.15683747599999998    3.519466437    0.082884    0.019895    0.057569
F    -0.359272225    -0.8330093519999999    2.809185371    -0.048224    -0.041275    0.010224
12
Properties=species:S:1:pos:R:3:forces:R:3 energy=-187.37791525 pbc="F F F"
Al    1.17737968    0.07543711700000001    2.398669273    -0.092658    0.071314    -0.035171
Al    1.377406    1.283775    -0.10129300000000001    0.014404    0.013532    -0.002606
Al    -0.28922716200000004    0.73847385    -2.263439973    0.072509    -0.090248    0.038827
F    -1.314010972    -0.788327453    -2.147379006    -0.077438    -0.083084    0.010787
F    1.782271253    -0.452320353    0.653481252    0.062608    -0.077948    -0.063851
F    -0.402937861    2.00910589    -3.6453907329999997    0.021934    0.122764    -0.132432
F    -0.45041441    1.683072953    -0.598550049    -0.061632    0.078866    0.063674
F    2.672042557    2.500024512    -0.33558744300000004    -0.002727    -0.002562    0.000494
F    1.544471239    0.341331005    -1.823793654    0.017187    -0.022609    -0.041152
F    0.7857763170000001    1.827359629    1.698043639    -0.013642    0.025939    0.040509
F    2.679975369    0.10959527600000002    3.529269437    0.146418    0.035399    0.101957
F    -0.38763152500000003    -0.8307473519999999    2.751290471    -0.086964    -0.071363    0.018965
12
Properties=species:S:1:pos:R:3:forces:R:3 energy=-187.37114305 pbc="F F F"
Al    1.16570068    0.06624381700000001    2.382021573    -0.128648    0.093413    -0.062543
Al    1.399179    1.30423    -0.10523300000000001    0.02256    0.021195    -0.004082
Al    -0.295617062    0.7306932500000001    -2.243522273    0.09777    -0.122428    0.068142
F    -1.3056466720000002    -0.803627453    -2.0939281060000003    -0.11822    -0.131932    0.015489
F    1.791995753    -0.440866953    0.6413924520000001    0.088687    -0.11735    -0.087346
F    -0.436714861    1.98252929    -3.644981833    0.032521    0.192312    -0.204842