------------------------------------------------------------
          Invoking FHI-aims ...

          When using FHI-aims, please cite the following reference:

            Volker Blum, Ralf Gehrke, Felix Hanke, Paula Havu,
            Ville Havu, Xinguo Ren, Karsten Reuter, and Matthias Scheffler,
            'Ab Initio Molecular Simulations with Numeric Atom-Centered Orbitals',
            Computer Physics Communications 180, 2175-2196 (2009)

          In addition, many other developments in FHI-aims are likely important for
          your particular application. A partial list of references is given at the end of
          this file. Thank you for giving credit to the authors of these developments.

          For any questions about FHI-aims, please visit our slack channel at

            https://fhi-aims.slack.com

          and our main development and support site at

            https://aims-git.rz-berlin.mpg.de .

          The latter site, in particular, has a wiki to collect information, as well
          as an issue tracker to log discussions, suggest improvements, and report issues
          or bugs. https://aims-git.rz-berlin.mpg.de is also the main development site
          of the project and all new and updated code versions can be obtained there.
          Please send an email to aims-coordinators@fhi-berlin.mpg.de and we will add
          you to these sites. They are for you and everyone is welcome there.

------------------------------------------------------------



  Date     :  20220517, Time     :  115632.934
  Time zero on CPU 1             :   0.435250000000000E-01  s.
  Internal wall clock time zero  :           422020592.934  s.

  FHI-aims created a unique identifier for this run for later identification
  aims_uuid : C3219516-0774-4CFC-A406-A0CE5E0CBB96

  Build configuration of the current instance of FHI-aims
  -------------------------------------------------------
  FHI-aims version      : 210914
  Commit number         : GITDIR-NOTFOUND
  CMake host system     : Linux-3.10.0-693.17.1.el7.x86_64
  CMake version         : 3.21.1
  Fortran compiler      : /shared/ucl/apps/intel/2018.Update3/impi/2018.3.222/intel64/bin/mpiifort (Intel) version 18.0.3.20180410
  Fortran compiler flags: -O3 -ip -fp-model precise
  C compiler            : /shared/ucl/apps/intel/2018.Update3/compilers_and_libraries_2018.3.222/linux/bin/intel64/icc (Intel) version 18.0.3.20180410
  C compiler flags      : -O3 -ip -fp-model precise -std=gnu99
  ELPA2 kernel          : AVX2
  Using MPI
  Using ScaLAPACK
  Using LibXC
  Using i-PI
  Using RLSY
  Linking against: /shared/ucl/apps/intel/2019.Update5/compilers_and_libraries_2019.5.281/linux/mkl/lib/intel64/libmkl_intel_lp64.so
                   /shared/ucl/apps/intel/2019.Update5/compilers_and_libraries_2019.5.281/linux/mkl/lib/intel64/libmkl_sequential.so
                   /shared/ucl/apps/intel/2019.Update5/compilers_and_libraries_2019.5.281/linux/mkl/lib/intel64/libmkl_core.so
                   /shared/ucl/apps/intel/2019.Update5/compilers_and_libraries_2019.5.281/linux/mkl/lib/intel64/libmkl_blacs_intelmpi_lp64.so
                   /shared/ucl/apps/intel/2019.Update5/compilers_and_libraries_2019.5.281/linux/mkl/lib/intel64/libmkl_scalapack_lp64.so

  Using       24 parallel tasks.
  Task        0 on host node-k98a-014 reporting.
  Task        1 on host node-k98a-014 reporting.
  Task        2 on host node-k98a-014 reporting.
  Task        3 on host node-k98a-014 reporting.
  Task        4 on host node-k98a-014 reporting.
  Task        5 on host node-k98a-014 reporting.
  Task        6 on host node-k98a-014 reporting.
  Task        7 on host node-k98a-014 reporting.
  Task        8 on host node-k98a-014 reporting.
  Task        9 on host node-k98a-014 reporting.
  Task       10 on host node-k98a-014 reporting.
  Task       11 on host node-k98a-014 reporting.
  Task       12 on host node-k98a-014 reporting.
  Task       13 on host node-k98a-014 reporting.
  Task       14 on host node-k98a-014 reporting.
  Task       15 on host node-k98a-014 reporting.
  Task       16 on host node-k98a-014 reporting.
  Task       17 on host node-k98a-014 reporting.
  Task       18 on host node-k98a-014 reporting.
  Task       19 on host node-k98a-014 reporting.
  Task       20 on host node-k98a-014 reporting.
  Task       21 on host node-k98a-014 reporting.
  Task       22 on host node-k98a-014 reporting.
  Task       23 on host node-k98a-014 reporting.

  Performing system and environment tests:
  | Environment variable OMP_NUM_THREADS correctly set to 1.
  | Checking for ScaLAPACK...
  | Testing pdtran()...
  | All pdtran() tests passed.

  Obtaining array dimensions for all initial allocations:
  
  -----------------------------------------------------------------------
  Parsing control.in (first pass over file, find array dimensions only).
  The contents of control.in will be repeated verbatim below
  unless switched off by setting 'verbatim_writeout .false.' .
  in the first line of control.in .
  -----------------------------------------------------------------------
  
  #########################################################################################  Physical model
  #########################################################################################
  xc                 pbesol
  spin               none
  relativistic       atomic_zora scalar
  charge             0.0
  #  SCF convergence
  occupation_type    gaussian 0.01
  mixer              pulay
  n_max_pulay        10
  charge_mix_param   0.5
  sc_accuracy_rho    1E-5
  sc_accuracy_eev    1E-3
  sc_accuracy_etot   1E-6
  sc_accuracy_forces 1E-4
  sc_iter_limit      1500
  #  Relaxation
  #relax_geometry   bfgs 1.e-3
  
  ################################################################################
  #
  #  FHI-aims code project
  #  VB, Fritz-Haber Institut, 2009
  #
  #  Suggested "light" defaults for Al atom (to be pasted into control.in file)
  #  Be sure to double-check any results obtained with these settings for post-processing,
  #  e.g., with the "tight" defaults and larger basis sets.
  #
  ################################################################################
    species        Al
  #     global species definitions
      nucleus             13
      mass                26.9815386
  #
      l_hartree           4
  #
      cut_pot             3.5          1.5  1.0
      basis_dep_cutoff    1e-4
  #
      radial_base         41 5.0
      radial_multiplier   1
      angular_grids       specified
        division   0.6594  110
        division   0.8170  194
        division   0.9059  302
  #      division   1.0363  434
  #      division   1.1443  590
  #      division   1.2621  770
  #      division   2.8177  974
  #      outer_grid   974
        outer_grid   302
  ################################################################################
  #
  #  Definition of "minimal" basis
  #
  ################################################################################
  #     valence basis states
      valence      3  s   2.
      valence      3  p   1.
  #     ion occupancy
      ion_occ      3  s   1.
      ion_occ      2  p   6.
  ################################################################################
  #
  #  Suggested additional basis functions. For production calculations,
  #  uncomment them one after another (the most important basis functions are
  #  listed first).
  #
  #  Constructed for dimers: 2.0 A, 2.5 A, 3.0 A, 3.75 A, 4.5 A
  #
  ################################################################################
  #  "First tier" - improvements: -199.47 meV to -10.63 meV
       ionic 3 d auto
       ionic 3 p auto
  #     hydro 4 f 4.7
       ionic 3 s auto
  #  "Second tier" - improvements: -5.35 meV to -1.57 meV
  #     hydro 5 g 7
  #     hydro 3 d 6
  #     hydro 2 s 11.6
  #     hydro 2 p 0.9
  #  "Third tier" - improvements: -0.63 meV to -0.20 meV
  #     hydro 5 f 7.6
  #     hydro 4 p 7.2
  #     hydro 4 s 3.7
  #     hydro 4 d 7.6
  #  "Fourth tier" - improvements: -0.17 meV to -0.08 meV
  #     hydro 4 d 13.6
  #     hydro 5 g 11.2
  #     hydro 4 d 0.9
  #     hydro 1 s 0.4
  #     hydro 4 p 0.1
  #     hydro 5 f 9.8
  #  Further basis functions that fell out of the optimization - noise level...
  #     hydro 4 p 5
  
  ################################################################################
  #
  #  FHI-aims code project
  #  VB, Fritz-Haber Institut, 2009
  #
  #  Suggested "light" defaults for F atom (to be pasted into control.in file)
  #  Be sure to double-check any results obtained with these settings for post-processing,
  #  e.g., with the "tight" defaults and larger basis sets.
  #
  ################################################################################
    species        F
  #     global species definitions
      nucleus             9
      mass                18.9984032
  #
      l_hartree           4
  #
      cut_pot             3.5  1.5  1.0
      basis_dep_cutoff    1e-4
  #
      radial_base         37 5.0
      radial_multiplier   1
      angular_grids specified
        division   0.4014  110
        division   0.5291  194
        division   0.6019  302
  #      division   0.6814  434
  #      division   0.7989  590
  #      division   0.8965  770
  #      division   1.3427  974
  #      outer_grid   974
        outer_grid   302
  ################################################################################
  #
  #  Definition of "minimal" basis
  #
  ################################################################################
  #     valence basis states
      valence      2  s   2.
      valence      2  p   5.
  #     ion occupancy
      ion_occ      2  s   1.
      ion_occ      2  p   4.
  ################################################################################
  #
  #  Suggested additional basis functions. For production calculations,
  #  uncomment them one after another (the most important basis functions are
  #  listed first).
  #
  #  Constructed for dimers: 1.2 A, 1.418 A, 1.75 A, 2.25 A, 3.25 A
  #
  ################################################################################
  #  "First tier" - improvements: -149.44 meV to -45.88 meV
       hydro 2 p 1.7
       hydro 3 d 7.4
       hydro 3 s 6.8
  #  "Second tier" - improvements: -12.96 meV to -1.56 meV
  #     hydro 4 f 11.2
  #     ionic 2 p auto
  #     hydro 1 s 0.75
  #     hydro 4 d 8.8
  #     hydro 5 g 16.8
  #  "Third tier" - improvements: -0.58 meV to -0.05 meV
  #     hydro 3 p 6.2
  #     hydro 3 s 3.2
  #     hydro 4 f 9.6
  #     hydro 3 s 19.6
  #     hydro 4 d 8.6
  #     hydro 5 g 14.4
  # Further basis functions: -0.05 meV and below
  #     hydro 3 p 4.2
  
  -----------------------------------------------------------------------
  Completed first pass over input file control.in .
  -----------------------------------------------------------------------
  
  
  -----------------------------------------------------------------------
  Parsing geometry.in (first pass over file, find array dimensions only).
  The contents of geometry.in will be repeated verbatim below
  unless switched off by setting 'verbatim_writeout .false.' .
  in the first line of geometry.in .
  -----------------------------------------------------------------------
  
  atom -0.333649638 0.892740560 -1.816792336 Al
  atom -0.450389181 1.085938891 1.281442601 Al
  atom -3.087836703 0.772800878 -1.864806609 Al
  atom -3.468786855 0.023608336 -3.594175361 F
  atom -1.588007158 -0.509335504 -1.916710138 F
  atom -1.775616693 2.203989589 -1.821621761 F
  atom -2.019432177 0.647117455 0.457033309 F
  atom 0.583249416 1.330865897 -0.295933375 F
  atom -0.282142381 2.745285204 1.996809371 F
  atom 0.346396208 -0.357416271 2.043825358 F
  atom -4.240729967 0.044667726 -0.577623513 F
  atom 0.736077019 1.297030303 -3.234870844 F
  
  -----------------------------------------------------------------------
  Completed first pass over input file geometry.in .
  -----------------------------------------------------------------------
  

  Basic array size parameters:
  | Number of species                 :        2
  | Number of atoms                   :       12
  | Max. basis fn. angular momentum   :        2
  | Max. atomic/ionic basis occupied n:        3
  | Max. number of basis fn. types    :        3
  | Max. radial fns per species/type  :        5
  | Max. logarithmic grid size        :     1340
  | Max. radial integration grid size :       41
  | Max. angular integration grid size:      302
  | Max. angular grid division number :        8
  | Radial grid for Hartree potential :     1340
  | Number of spin channels           :        1

------------------------------------------------------------
          Reading file control.in.
------------------------------------------------------------
  XC: Using PBEsol gradient-corrected functionals.
  Spin treatment: No spin polarisation.
  Scalar relativistic treatment of kinetic energy: on-site free-atom approximation to ZORA.
  Charge =   0.000000E+00: Neutral system requested explicitly.
  Occupation type: Gaussian broadening, width =   0.100000E-01 eV.
  Using pulay charge density mixing.
  Pulay mixing - number of memorized iterations:   10
  Charge density mixing - mixing parameter:     0.5000
  Convergence accuracy of self-consistent charge density:  0.1000E-04
  Convergence accuracy of sum of eigenvalues:  0.1000E-02
  Convergence accuracy of total energy:  0.1000E-05
  Convergence accuracy of forces:  0.1000E-03
  Maximum number of s.-c. iterations  :  1500
 
  Reading configuration options for species Al                  .
  | Found nuclear charge :  13.0000
  | Found atomic mass :    26.9815386000000      amu
  | Found l_max for Hartree potential  :   4
  | Found cutoff potl. onset [A], width [A], scale factor :    3.50000    1.50000    1.00000
  | Threshold for basis-dependent cutoff potential is   0.100000E-03
  | Found data for basic radial integration grid :    41 points, outermost radius =    5.000 A
  | Found multiplier for basic radial grid :   1
  | Found angular grid specification: user-specified.
  | Specified grid contains     4 separate shells.
  | Check grid settings after all constraints further below.
  | Found free-atom valence shell :  3 s   2.000
  | Found free-atom valence shell :  3 p   1.000
  | Found free-ion valence shell :  3 s   1.000
  | Found free-ion valence shell :  2 p   6.000
  | Found ionic basis function :  3 d , default cutoff radius.
  | Found ionic basis function :  3 p , default cutoff radius.
  | Found ionic basis function :  3 s , default cutoff radius.
  Species Al                  : Missing cutoff potential type.
  Defaulting to exp(1/x)/(1-x)^2 type cutoff potential.
  Species Al: No 'logarithmic' tag. Using default grid for free atom:
  | Default logarithmic grid data [bohr] : 0.1000E-03 0.1000E+03 0.1012E+01
  | Will include ionic basis functions of  2.0-fold positive Al                   ion.
  Species Al: On-site basis accuracy parameter (for Gram-Schmidt orthonormalisation) not specified.
  Using default value basis_acc =  0.1000000E-03.
  Species Al                  : Using default innermost maximum threshold i_radial=  2 for radial functions.
  Species Al                  : Default cutoff onset for free atom density etc. : 0.35000000E+01 AA.
  Species Al                  : Basic radial grid will be enhanced according to radial_multiplier =   1, to contain    41 grid points.
 
  Reading configuration options for species F                   .
  | Found nuclear charge :   9.0000
  | Found atomic mass :    18.9984032000000      amu
  | Found l_max for Hartree potential  :   4
  | Found cutoff potl. onset [A], width [A], scale factor :    3.50000    1.50000    1.00000
  | Threshold for basis-dependent cutoff potential is   0.100000E-03
  | Found data for basic radial integration grid :    37 points, outermost radius =    5.000 A
  | Found multiplier for basic radial grid :   1
  | Found angular grid specification: user-specified.
  | Specified grid contains     4 separate shells.
  | Check grid settings after all constraints further below.
  | Found free-atom valence shell :  2 s   2.000
  | Found free-atom valence shell :  2 p   5.000
  | Found free-ion valence shell :  2 s   1.000
  | Found free-ion valence shell :  2 p   4.000
  | Found hydrogenic basis function :  2 p   1.700
  | Found hydrogenic basis function :  3 d   7.400
  | Found hydrogenic basis function :  3 s   6.800
  Species F                   : Missing cutoff potential type.
  Defaulting to exp(1/x)/(1-x)^2 type cutoff potential.
  Species F : No 'logarithmic' tag. Using default grid for free atom:
  | Default logarithmic grid data [bohr] : 0.1000E-03 0.1000E+03 0.1012E+01
  Species F : On-site basis accuracy parameter (for Gram-Schmidt orthonormalisation) not specified.
  Using default value basis_acc =  0.1000000E-03.
  Species F                   : Using default innermost maximum threshold i_radial=  2 for radial functions.
  Species F                   : Default cutoff onset for free atom density etc. : 0.35000000E+01 AA.
  Species F                   : Basic radial grid will be enhanced according to radial_multiplier =   1, to contain    37 grid points.
 
  Finished reading input file 'control.in'.
 
------------------------------------------------------------


------------------------------------------------------------
          Reading geometry description geometry.in.
------------------------------------------------------------
  | The smallest distance between any two atoms is         1.81479662 AA.
  | The first atom of this pair is atom number                      2 .
  | The second atom of this pair is atom number                     9 .
  Input structure read successfully.
  The structure contains       12 atoms,  and a total of        120.000 electrons.

  Input geometry:
  | No unit cell requested.
  | Atomic structure:
  |       Atom                x [A]            y [A]            z [A]
  |    1: Species Al           -0.33364964        0.89274056       -1.81679234
  |    2: Species Al           -0.45038918        1.08593889        1.28144260
  |    3: Species Al           -3.08783670        0.77280088       -1.86480661
  |    4: Species F            -3.46878685        0.02360834       -3.59417536
  |    5: Species F            -1.58800716       -0.50933550       -1.91671014
  |    6: Species F            -1.77561669        2.20398959       -1.82162176
  |    7: Species F            -2.01943218        0.64711745        0.45703331
  |    8: Species F             0.58324942        1.33086590       -0.29593337
  |    9: Species F            -0.28214238        2.74528520        1.99680937
  |   10: Species F             0.34639621       -0.35741627        2.04382536
  |   11: Species F            -4.24072997        0.04466773       -0.57762351
  |   12: Species F             0.73607702        1.29703030       -3.23487084

 
  Finished reading input file 'control.in'.
 

------------------------------------------------------------
          Reading geometry description geometry.in.
------------------------------------------------------------
 
  Consistency checks for stacksize environment parameter are next.
 
  | Maximum stacksize for task 0: unlimited
  | Maximum stacksize for task 1: unlimited
  | Maximum stacksize for task 2: unlimited
  | Maximum stacksize for task 3: unlimited
  | Maximum stacksize for task 4: unlimited
  | Maximum stacksize for task 5: unlimited
  | Maximum stacksize for task 6: unlimited
  | Maximum stacksize for task 7: unlimited
  | Maximum stacksize for task 8: unlimited
  | Maximum stacksize for task 9: unlimited
  | Maximum stacksize for task 10: unlimited
  | Maximum stacksize for task 11: unlimited
  | Maximum stacksize for task 12: unlimited
  | Maximum stacksize for task 13: unlimited
  | Maximum stacksize for task 14: unlimited
  | Maximum stacksize for task 15: unlimited
  | Maximum stacksize for task 16: unlimited
  | Maximum stacksize for task 17: unlimited
  | Maximum stacksize for task 18: unlimited
  | Maximum stacksize for task 19: unlimited
  | Maximum stacksize for task 20: unlimited
  | Maximum stacksize for task 21: unlimited
  | Maximum stacksize for task 22: unlimited
  | Maximum stacksize for task 23: unlimited
  | Current stacksize for task 0: unlimited
  | Current stacksize for task 1: unlimited
  | Current stacksize for task 2: unlimited
  | Current stacksize for task 3: unlimited
  | Current stacksize for task 4: unlimited
  | Current stacksize for task 5: unlimited
  | Current stacksize for task 6: unlimited
  | Current stacksize for task 7: unlimited
  | Current stacksize for task 8: unlimited
  | Current stacksize for task 9: unlimited
  | Current stacksize for task 10: unlimited
  | Current stacksize for task 11: unlimited
  | Current stacksize for task 12: unlimited
  | Current stacksize for task 13: unlimited
  | Current stacksize for task 14: unlimited
  | Current stacksize for task 15: unlimited
  | Current stacksize for task 16: unlimited
  | Current stacksize for task 17: unlimited
  | Current stacksize for task 18: unlimited
  | Current stacksize for task 19: unlimited
  | Current stacksize for task 20: unlimited
  | Current stacksize for task 21: unlimited
  | Current stacksize for task 22: unlimited
  | Current stacksize for task 23: unlimited
 
  Consistency checks for the contents of control.in are next.
 
  MPI_IN_PLACE appears to work with this MPI implementation.
  | Keeping use_mpi_in_place .true. (see manual).
  Target number of points in a grid batch is not set. Defaulting to  100
  Method for grid partitioning is not set. Defaulting to parallel hash+maxmin partitioning.
  Batch size limit is not set. Defaulting to    200
  By default, will store active basis functions for each batch.
  If in need of memory, prune_basis_once .false. can be used to disable this option.
  communication_type for Hartree potential was not specified.
  Defaulting to calc_hartree .
  Pulay mixer: Number of initial linear mixing iterations not set.
  Defaulting to    0 iterations.
  Work space size for distributed Hartree potential not set.
  Defaulting to   0.200000E+03 MB.
  Algorithm-dependent basis array size parameters:
  | n_max_pulay                         :       10
  Presetting      1001 iterations before the initial mixing cycle
  is restarted anyway using the sc_init_iter criterion / keyword.
  Presetting a factor      1.000 between actual scf density residual
  and density convergence criterion sc_accuracy_rho below which sc_init_iter
  takes no effect.
  Geometry relaxation not requested: no relaxation will be performed.
  Forces evaluation will include force correction term due to incomplete self-consistency (default).
  Handling of forces: Unphysical translation and rotation will be removed from forces.
  No accuracy limit for integral partition fn. given. Defaulting to  0.1000E-14.
  No threshold value for u(r) in integrations given. Defaulting to  0.1000E-05.
  No accuracy for occupation numbers given. Defaulting to  0.1000E-12.
  No threshold value for occupation numbers given. Defaulting to  0.0000E+00.
  No accuracy for fermi level given. Defaulting to  0.1000E-19.
  Maximum # of iterations to find E_F not set. Defaulting to  200.
  Preferred method for the eigenvalue solver ('KS_method') not specified in 'control.in'.
  Calling BLACS routine to test compilation state
  Since ScaLAPACK support is enabled, defaulting to ELPA (via ELSI).
  Will not use alltoall communication since running on < 1024 CPUs.
  Threshold for basis singularities not set.
  Default threshold for basis singularities:  0.1000E-04
  partition_type (choice of integration weights) for integrals was not specified.
  | Using a version of the partition function of Stratmann and coworkers ('stratmann_sparse').
  | At each grid point, the set of atoms used to build the partition table is smoothly restricted to
  | only those atoms whose free-atom density would be non-zero at that grid point.
  Partitioning for Hartree potential was not defined. Using partition_type for integrals.
  | Adjusted default value of keyword multip_moments_threshold to:       0.10000000E-11
  | This value may affect high angular momentum components of the Hartree potential in periodic systems.
  No q(lm)/r^(l+1) cutoff set for long-range Hartree potential.
  | Using default value of  0.100000E-09 .
  | Verify using the multipole_threshold keyword.
  Defaulting to new monopole extrapolation.
  Density update method: automatic selection selected.
  Charge integration errors on the 3D integration grid will be compensated
  by explicit normalization and distribution of residual charges.
  Use the "compensate_multipole_errors" flag to change this behaviour.
  Set 'collect_eigenvectors' to be '.true.' for use_density_matrix .false.
 
  Consistency checks for the contents of geometry.in are next.
 
  Number of empty states per atom not set in control.in - providing a guess from actual geometry.
  | Total number of empty states used during s.c.f. cycle:       36
  If you use a very high smearing, use empty_states (per atom!) in control.in to increase this value.

  Structure-dependent array size parameters: 
  | Maximum number of distinct radial functions  :       14
  | Maximum number of basis functions            :      180
  | Number of Kohn-Sham states (occupied + empty):       96
------------------------------------------------------------

------------------------------------------------------------
          Preparing all fixed parts of the calculation.
------------------------------------------------------------
  Determining machine precision:
    2.225073858507201E-308
  Setting up grids for atomic and cluster calculations.

  Creating wave function, potential, and density for free atoms.

  Species: Al

  List of occupied orbitals and eigenvalues:
    n    l              occ      energy [Ha]    energy [eV]
    1    0           2.0000       -55.621123     -1513.5278
    2    0           2.0000        -3.957030      -107.6763
    3    0           2.0000        -0.272233        -7.4078
    2    1           6.0000        -2.540949       -69.1427
    3    1           1.0000        -0.083300        -2.2667


  Species: F

  List of occupied orbitals and eigenvalues:
    n    l              occ      energy [Ha]    energy [eV]
    1    0           2.0000       -24.399611      -663.9472
    2    0           2.0000        -1.098702       -29.8972
    2    1           5.0000        -0.408210       -11.1080


  Adding cutoff potential to free-atom effective potential.
  Creating fixed part of basis set: Ionic, confined, hydrogenic.
 
  Al                   ion:

  List of free ionic orbitals and eigenvalues:
    n    l      energy [Ha]    energy [eV]
    1    0       -56.418846     -1535.2349
    2    0        -4.732717      -128.7838
    3    0        -0.872690       -23.7471
    2    1        -3.317230       -90.2664


  List of ionic basis orbitals and eigenvalues:
    n    l      energy [Ha]    energy [eV]    outer radius [A]
    3    2        -0.346815        -9.4373       4.594041
    3    1        -0.631870       -17.1940       4.538221
    3    0        -0.872657       -23.7462       4.538221

 
  F                    hydrogenic:
 
  List of hydrogenic basis orbitals: 
    n    l      effective z      eigenvalue [eV]  inner max. [A]     outer max. [A]     outer radius [A]   
    2    1         1.700000        -9.7616           1.243167           1.243167           4.598524
    3    2         7.400000       -82.7828           0.642437           0.642437           3.305741
    3    0         6.800000       -69.9026           0.057798           1.022307           3.781556
 
  Creating atomic-like basis functions for current effective potential.

  Species Al                  :

  List of atomic basis orbitals and eigenvalues:
    n    l      energy [Ha]    energy [eV]    outer radius [A]
    1    0       -55.621123     -1513.5278       0.850197
    2    0        -3.957030      -107.6763       3.144911
    3    0        -0.272233        -7.4078       4.594041
    2    1        -2.540949       -69.1427       3.731966
    3    1        -0.083300        -2.2667       4.594041


  Species F                   :

  List of atomic basis orbitals and eigenvalues:
    n    l      energy [Ha]    energy [eV]    outer radius [A]
    1    0       -24.399611      -663.9472       1.258458
    2    0        -1.098702       -29.8972       4.325857
    2    1        -0.408210       -11.1080       4.487453

  Assembling full basis from fixed parts.
  | Species Al :   atomic orbital   1 s accepted.
  | Species Al :   atomic orbital   2 s accepted.
  | Species Al :    ionic orbital   3 s accepted.
  | Species Al :   atomic orbital   3 s accepted.
  | Species Al :   atomic orbital   2 p accepted.
  | Species Al :    ionic orbital   3 p accepted.
  | Species Al :   atomic orbital   3 p accepted.
  | Species Al :    ionic orbital   3 d accepted.
  | Species F :   atomic orbital   1 s accepted.
  | Species F :    hydro orbital   3 s accepted.
  | Species F :   atomic orbital   2 s accepted.
  | Species F :   atomic orbital   2 p accepted.
  | Species F :    hydro orbital   2 p accepted.
  | Species F :    hydro orbital   3 d accepted.
 
  Basis size parameters after reduction:
  | Total number of radial functions:       14
  | Total number of basis functions :      180
 
  Per-task memory consumption for arrays in subroutine allocate_ext:
  |           4.807768MB.
  Testing on-site integration grid accuracy.
  |  Species  Function  <phi|h_atom|phi> (log., in eV)  <phi|h_atom|phi> (rad., in eV)
           1        1              -1513.5277717935              -1513.5271881332
           1        2               -107.6762691836               -107.6762662489
           1        3                 -6.9467474784                 -6.9471269649
           1        4                  5.5771951849                  5.4862107220 ***
           1        5                -69.1427313144                -69.1427312731
           1        6                 -1.5197375330                 -1.5230432022
           1        7                  6.8210948310                  6.5529872240 ***
           1        8                  4.3216540965                  4.2851170187 ***
           2        9               -663.9471986398               -663.9470363334
           2       10                 16.8514011578                 16.8512525338
           2       11                -28.4490593856                -28.4490661472
           2       12                -11.1080115307                -11.1080620173
           2       13                  7.1940182175                  7.1685154137
           2       14                 44.8544281765                 44.8543763625
 * Note: Onsite integrals marked "***" above are less accurate than
 * onsite_accuracy_threshold =    0.03000 eV. Usually, this is harmless.
 * When in doubt, tighten the "radial" and/or "radial_multiplier" flags to check.

  Preparing densities etc. for the partition functions (integrals / Hartree potential).

  Preparations completed.
  max(cpu_time)          :      0.183 s.
  Wall clock time (cpu1) :      0.185 s.
------------------------------------------------------------

------------------------------------------------------------
          Begin self-consistency loop: Initialization.

          Date     :  20220517, Time     :  115633.175
------------------------------------------------------------

  Initializing index lists of integration centers etc. from given atomic structure:
  | Number of centers in hartree potential         :        12
  | Number of centers in hartree multipole         :        12
  | Number of centers in electron density summation:        12
  | Number of centers in basis integrals           :        12
  | Number of centers in integrals                 :        12
  | Number of centers in hamiltonian               :        12
  * Using 24 tasks for Scalapack Eigenvalue solver.
  Detailed listing of tasks and assigned k-points:
  (for non-periodic systems, the "k-point" denotes an internal label only)
   Task     0 k-point     1 on node-k98a-014
   Task     1 k-point     1 on node-k98a-014
   Task     2 k-point     1 on node-k98a-014
   Task     3 k-point     1 on node-k98a-014
   Task     4 k-point     1 on node-k98a-014
   Task     5 k-point     1 on node-k98a-014
   Task     6 k-point     1 on node-k98a-014
   Task     7 k-point     1 on node-k98a-014
   Task     8 k-point     1 on node-k98a-014
   Task     9 k-point     1 on node-k98a-014
   Task    10 k-point     1 on node-k98a-014
   Task    11 k-point     1 on node-k98a-014
   Task    12 k-point     1 on node-k98a-014
   Task    13 k-point     1 on node-k98a-014
   Task    14 k-point     1 on node-k98a-014
   Task    15 k-point     1 on node-k98a-014
   Task    16 k-point     1 on node-k98a-014
   Task    17 k-point     1 on node-k98a-014
   Task    18 k-point     1 on node-k98a-014
   Task    19 k-point     1 on node-k98a-014
   Task    20 k-point     1 on node-k98a-014
   Task    21 k-point     1 on node-k98a-014
   Task    22 k-point     1 on node-k98a-014
   Task    23 k-point     1 on node-k98a-014
  Tasks:    24 split into      6 X      4 BLACS grid
  Calculating block size based on n_basis =          180  max_nprow =            6  max_npcol =            4
  ScaLAPACK block size set to:           16
  Allocating        0.012 MB for ovlp
  Allocating        0.012 MB for ham
  Allocating        0.012 MB for eigenvec
  Required Scalapack workspace - INTEGER:            1  REAL:             1
  Partitioning the integration grid into batches with parallel hashing+maxmin method.
  | Number of batches:     1055
  | Maximal batch size:     200
  | Minimal batch size:      17
  | Average batch size:      87.128
  | Standard deviation of batch sizes:      28.475

  Integration load balanced across    24 MPI tasks.
  Work distribution over tasks is as follows:
  Task     0 has       3820 integration points.
  Task     1 has       3822 integration points.
  Task     2 has       3800 integration points.
  Task     3 has       3854 integration points.
  Task     4 has       3855 integration points.
  Task     5 has       3851 integration points.
  Task     6 has       3826 integration points.
  Task     7 has       3818 integration points.
  Task     8 has       3845 integration points.
  Task     9 has       3845 integration points.
  Task    10 has       3805 integration points.
  Task    11 has       3827 integration points.
  Task    12 has       3760 integration points.
  Task    13 has       3834 integration points.
  Task    14 has       3861 integration points.
  Task    15 has       3838 integration points.
  Task    16 has       3812 integration points.
  Task    17 has       3810 integration points.
  Task    18 has       3851 integration points.
  Task    19 has       3826 integration points.
  Task    20 has       3882 integration points.
  Task    21 has       3782 integration points.
  Task    22 has       3891 integration points.
  Task    23 has       3805 integration points.
  Initializing partition tables, free-atom densities, potentials, etc. across the integration grid (initialize_grid_storage).
  | initialize_grid_storage: Actual outermost partition radius vs. multipole_radius_free
  | (-- VB: in principle, multipole_radius_free should be larger, hence this output)
  | Species        1: Confinement radius =              4.999999999999999 AA, multipole_radius_free =              5.004487022111096 AA.
  | Species        1: outer_partition_radius set to              5.004487022111096 AA .
  | Species        2: Confinement radius =              4.999999999999999 AA, multipole_radius_free =              5.009370088163274 AA.
  | Species        2: outer_partition_radius set to              5.009370088163274 AA .
  | The sparse table of interatomic distances needs          1.64 kbyte instead of         1.15 kbyte of memory.
  | Using the partition_type stratmann_smoother will reduce your memory usage.
  | Net number of integration points:    91920
  | of which are non-zero points    :    85722
  Renormalizing the initial density to the exact electron count on the 3D integration grid.
  | Initial density: Formal number of electrons (from input files) :     120.0000000000
  | Integrated number of electrons on 3D grid     :     119.9998378411
  | Charge integration error                      :      -0.0001621589
  | Normalization factor for density and gradient :       1.0000013513
  Renormalizing the free-atom superposition density to the exact electron count on the 3D integration grid.
  | Formal number of electrons (from input files) :     120.0000000000
  | Integrated number of electrons on 3D grid     :     119.9998378411
  | Charge integration error                      :      -0.0001621589
  | Normalization factor for density and gradient :       1.0000013513
  Obtaining max. number of non-zero basis functions in each batch (get_n_compute_maxes).
  | Maximal number of non-zero basis functions:      160 in task     0
  | Maximal number of non-zero basis functions:      158 in task     1
  | Maximal number of non-zero basis functions:      158 in task     2
  | Maximal number of non-zero basis functions:      171 in task     3
  | Maximal number of non-zero basis functions:      159 in task     4
  | Maximal number of non-zero basis functions:      160 in task     5
  | Maximal number of non-zero basis functions:      172 in task     6
  | Maximal number of non-zero basis functions:      165 in task     7
  | Maximal number of non-zero basis functions:      165 in task     8
  | Maximal number of non-zero basis functions:      165 in task     9
  | Maximal number of non-zero basis functions:      165 in task    10
  | Maximal number of non-zero basis functions:      165 in task    11
  | Maximal number of non-zero basis functions:      170 in task    12
  | Maximal number of non-zero basis functions:      164 in task    13
  | Maximal number of non-zero basis functions:      159 in task    14
  | Maximal number of non-zero basis functions:      171 in task    15
  | Maximal number of non-zero basis functions:      163 in task    16
  | Maximal number of non-zero basis functions:      170 in task    17
  | Maximal number of non-zero basis functions:      158 in task    18
  | Maximal number of non-zero basis functions:      164 in task    19
  | Maximal number of non-zero basis functions:      171 in task    20
  | Maximal number of non-zero basis functions:      167 in task    21
  | Maximal number of non-zero basis functions:      170 in task    22
  | Maximal number of non-zero basis functions:      161 in task    23
  Selecting the method for density update.
  Loop over occupied states selected for charge density update.
  Allocating        0.132 MB for KS_eigenvector
  Integrating Hamiltonian matrix: batch-based integration.
  Time summed over all CPUs for integration: real work        0.707 s, elapsed        0.772 s
  Integrating overlap matrix.
  Time summed over all CPUs for integration: real work        0.274 s, elapsed        0.293 s
  Deallocating overlap matrix.

  Updating Kohn-Sham eigenvalues and eigenvectors using ELSI and the ELPA eigensolver.
  Overlap matrix is not singular
  | Lowest and highest eigenvalues :  0.4075E-02,  0.5195E+01
  Finished singularity check of overlap matrix
  | Time :     0.013 s
  Starting ELPA eigensolver
  Finished Cholesky decomposition
  | Time :     0.002 s
  Finished transformation to standard eigenproblem
  | Time :     0.000 s
  Finished solving standard eigenproblem
  | Time :     0.004 s
  Finished back-transformation of eigenvectors
  | Time :     0.000 s

  Obtaining occupation numbers and chemical potential using ELSI.
  | Chemical potential (Fermi level):    -7.78134730 eV
  Writing Kohn-Sham eigenvalues.

  State    Occupation    Eigenvalue [Ha]    Eigenvalue [eV]
      1       2.00000         -55.484301        -1509.80464
      2       2.00000         -55.483182        -1509.77419
      3       2.00000         -55.482896        -1509.76642
      4       2.00000         -24.369195         -663.11952
      5       2.00000         -24.357612         -662.80433
      6       2.00000         -24.354339         -662.71530
      7       2.00000         -24.344403         -662.44492
      8       2.00000         -24.340716         -662.34457
      9       2.00000         -24.340524         -662.33937
     10       2.00000         -24.339905         -662.32251
     11       2.00000         -24.334267         -662.16910
     12       2.00000         -24.329874         -662.04956
     13       2.00000          -3.949485         -107.47095
     14       2.00000          -3.948204         -107.43610
     15       2.00000          -3.947254         -107.41024
     16       2.00000          -2.542227          -69.17751
     17       2.00000          -2.541589          -69.16016
     18       2.00000          -2.540606          -69.13341
     19       2.00000          -2.540334          -69.12601
     20       2.00000          -2.540207          -69.12254
     21       2.00000          -2.539843          -69.11264
     22       2.00000          -2.539331          -69.09872
     23       2.00000          -2.538806          -69.08441
     24       2.00000          -2.538290          -69.07038
     25       2.00000          -1.192534          -32.45049
     26       2.00000          -1.180683          -32.12802
     27       2.00000          -1.169718          -31.82966
     28       2.00000          -1.157197          -31.48892
     29       2.00000          -1.149758          -31.28652
     30       2.00000          -1.147968          -31.23779
     31       2.00000          -1.147786          -31.23285
     32       2.00000          -1.139529          -31.00816
     33       2.00000          -1.133233          -30.83685
     34       2.00000          -0.557756          -15.17732
     35       2.00000          -0.541285          -14.72911
     36       2.00000          -0.539907          -14.69162
     37       2.00000          -0.517265          -14.07550
     38       2.00000          -0.509658          -13.86850
     39       2.00000          -0.509242          -13.85719
     40       2.00000          -0.496559          -13.51205
     41       2.00000          -0.495291          -13.47757
     42       2.00000          -0.489440          -13.31833
     43       2.00000          -0.482317          -13.12451
     44       2.00000          -0.481677          -13.10710
     45       2.00000          -0.479788          -13.05571
     46       2.00000          -0.478348          -13.01652
     47       2.00000          -0.474300          -12.90636
     48       2.00000          -0.465902          -12.67784
     49       2.00000          -0.456817          -12.43062
     50       2.00000          -0.456032          -12.40927
     51       2.00000          -0.454207          -12.35959
     52       2.00000          -0.451641          -12.28976
     53       2.00000          -0.450070          -12.24704
     54       2.00000          -0.448617          -12.20748
     55       2.00000          -0.448160          -12.19505
     56       2.00000          -0.446272          -12.14369
     57       2.00000          -0.443382          -12.06503
     58       2.00000          -0.440931          -11.99834
     59       2.00000          -0.435448          -11.84914
     60       2.00000          -0.432746          -11.77560
     61       0.00000          -0.153158           -4.16764
     62       0.00000          -0.113967           -3.10120
     63       0.00000          -0.089956           -2.44781
     64       0.00000          -0.022282           -0.60632
     65       0.00000          -0.014264           -0.38815
     66       0.00000          -0.009947           -0.27067
     67       0.00000           0.015979            0.43480
     68       0.00000           0.028832            0.78455
     69       0.00000           0.037378            1.01712
     70       0.00000           0.047188            1.28405
     71       0.00000           0.070407            1.91587
     72       0.00000           0.083994            2.28560
     73       0.00000           0.142322            3.87277
     74       0.00000           0.159646            4.34419
     75       0.00000           0.169963            4.62492
     76       0.00000           0.172601            4.69671
     77       0.00000           0.179498            4.88440
     78       0.00000           0.185732            5.05403
     79       0.00000           0.193982            5.27851
     80       0.00000           0.201807            5.49146
     81       0.00000           0.207876            5.65660
     82       0.00000           0.218909            5.95681
     83       0.00000           0.228946            6.22993
     84       0.00000           0.232743            6.33326
     85       0.00000           0.235128            6.39816
     86       0.00000           0.243164            6.61683
     87       0.00000           0.268669            7.31085
     88       0.00000           0.273642            7.44617
     89       0.00000           0.284484            7.74119
     90       0.00000           0.297229            8.08802
     91       0.00000           0.306560            8.34192
     92       0.00000           0.314563            8.55970
     93       0.00000           0.335195            9.12113
     94       0.00000           0.345568            9.40338
     95       0.00000           0.355124            9.66341
     96       0.00000           0.368567           10.02921

  Highest occupied state (VBM) at    -11.77560453 eV
  | Occupation number:      2.00000000

  Lowest unoccupied state (CBM) at    -4.16764108 eV
  | Occupation number:      0.00000000

  Overall HOMO-LUMO gap:      7.60796345 eV.
  Calculating total energy contributions from superposition of free atom densities.

  Total energy components:
  | Sum of eigenvalues            :        -887.13770575 Ha      -24140.24521573 eV
  | XC energy correction          :        -144.27818781 Ha       -3926.00924343 eV
  | XC potential correction       :         187.85557621 Ha        5111.81031478 eV
  | Free-atom electrostatic energy:        -781.77429208 Ha      -21273.16085400 eV
  | Hartree energy correction     :           0.00000000 Ha           0.00000000 eV
  | Entropy correction            :           0.00000000 Ha           0.00000000 eV
  | ---------------------------
  | Total energy                  :       -1625.33460943 Ha      -44227.60499838 eV
  | Total energy, T -> 0          :       -1625.33460943 Ha      -44227.60499838 eV  <-- do not rely on this value for anything but (periodic) metals
  | Electronic free energy        :       -1625.33460943 Ha      -44227.60499838 eV

  Derived energy quantities:
  | Kinetic energy                :        1627.48319068 Ha       44286.07086876 eV
  | Electrostatic energy          :       -3108.53961230 Ha      -84587.66662371 eV
  | Energy correction for multipole
  | error in Hartree potential    :           0.00000000 Ha           0.00000000 eV
  | Sum of eigenvalues per atom                           :       -2011.68710131 eV
  | Total energy (T->0) per atom                          :       -3685.63374986 eV  <-- do not rely on this value for anything but (periodic) metals
  | Electronic free energy per atom                       :       -3685.63374986 eV
  Initialize hartree_potential_storage
  Max. number of atoms included in rho_multipole:           12

  End scf initialization - timings             :  max(cpu_time)    wall_clock(cpu1)
  | Time for scf. initialization                :        0.151 s           0.152 s
  | Boundary condition initialization           :        0.000 s           0.000 s
  | Integration                                 :        0.050 s           0.049 s
  | Solution of K.-S. eqns.                     :        0.022 s           0.022 s
  | Grid partitioning                           :        0.045 s           0.046 s
  | Preloading free-atom quantities on grid     :        0.016 s           0.016 s
  | Free-atom superposition energy              :        0.005 s           0.005 s
  | Total energy evaluation                     :        0.000 s           0.000 s

  Partial memory accounting:
  | Current value for overall tracked memory usage:
  |   Minimum:        0.273 MB (on task 23)
  |   Maximum:        0.292 MB (on task  0)
  |   Average:        0.287 MB
  | Peak value for overall tracked memory usage:
  |   Minimum:        1.333 MB (on task  1 after allocating wave)
  |   Maximum:        1.433 MB (on task  6 after allocating wave)
  |   Average:        1.376 MB
  | Largest tracked array allocation so far:
  |   Minimum:        0.241 MB (H_times_psi on task  1)
  |   Maximum:        0.464 MB (all_coords on task  9)
  |   Average:        0.276 MB
  Note:  These values currently only include a subset of arrays which are explicitly tracked.
  The "true" memory usage will be greater.
------------------------------------------------------------
  Evaluating new KS density.
  Integration grid: deviation in total charge (<rho> - N_e) =   1.421085E-14

  Time for density update prior                :  max(cpu_time)    wall_clock(cpu1)
  | self-consistency iterative process          :        0.028 s           0.028 s

------------------------------------------------------------
          Begin self-consistency iteration #    1

  Date     :  20220517, Time     :  115633.355
------------------------------------------------------------
  Pulay mixing of updated and previous charge densities.
  Renormalizing the density to the exact electron count on the 3D integration grid.
  | Formal number of electrons (from input files) :     120.0000000000
  | Integrated number of electrons on 3D grid     :     120.0000000000
  | Charge integration error                      :       0.0000000000
  | Normalization factor for density and gradient :       1.0000000000

  Evaluating partitioned Hartree potential by multipole expansion.
  | Original multipole sum: apparent total charge =   0.176120E-13
  | Sum of charges compensated after spline to logarithmic grids =   0.166428E-03
  | Analytical far-field extrapolation by fixed multipoles:
  | Hartree multipole sum: apparent total charge =   0.168986E-13
  Summing up the Hartree potential.
  Time summed over all CPUs for potential: real work        0.381 s, elapsed        0.393 s
  | RMS charge density error from multipole expansion :   0.104110E-01

  Integrating Hamiltonian matrix: batch-based integration.
  Time summed over all CPUs for integration: real work        0.662 s, elapsed        0.688 s

  Updating Kohn-Sham eigenvalues and eigenvectors using ELSI and the ELPA eigensolver.
  Starting ELPA eigensolver
  Finished transformation to standard eigenproblem
  | Time :     0.001 s
  Finished solving standard eigenproblem
  | Time :     0.003 s
  Finished back-transformation of eigenvectors
  | Time :     0.000 s

  Obtaining occupation numbers and chemical potential using ELSI.
  | Chemical potential (Fermi level):    -7.73704466 eV
  Writing Kohn-Sham eigenvalues.

  State    Occupation    Eigenvalue [Ha]    Eigenvalue [eV]
      1       2.00000         -55.682466        -1515.19699
      2       2.00000         -55.666406        -1514.75997
      3       2.00000         -55.620957        -1513.52323
      4       2.00000         -24.255730         -660.03200
      5       2.00000         -24.253246         -659.96441
      6       2.00000         -24.224238         -659.17506
      7       2.00000         -24.147208         -657.07897
      8       2.00000         -24.082315         -655.31314
      9       2.00000         -24.063262         -654.79467
     10       2.00000         -24.061676         -654.75151
     11       2.00000         -24.046425         -654.33652
     12       2.00000         -24.037874         -654.10383
     13       2.00000          -4.120222         -112.11695
     14       2.00000          -4.100757         -111.58727
     15       2.00000          -4.061488         -110.51872
     16       2.00000          -2.713870          -73.84815
     17       2.00000          -2.712812          -73.81938
     18       2.00000          -2.712049          -73.79860
     19       2.00000          -2.695179          -73.33956
     20       2.00000          -2.693046          -73.28152
     21       2.00000          -2.692053          -73.25450
     22       2.00000          -2.655535          -72.26079
     23       2.00000          -2.653886          -72.21590
     24       2.00000          -2.652902          -72.18914
     25       2.00000          -1.176206          -32.00618
     26       2.00000          -1.166318          -31.73712
     27       2.00000          -1.142166          -31.07991
     28       2.00000          -1.077913          -29.33150
     29       2.00000          -1.028612          -27.98995
     30       2.00000          -1.011966          -27.53699
     31       2.00000          -1.007536          -27.41644
     32       2.00000          -0.992350          -27.00321
     33       2.00000          -0.983276          -26.75630
     34       2.00000          -0.556678          -15.14798
     35       2.00000          -0.537266          -14.61976
     36       2.00000          -0.527716          -14.35987
     37       2.00000          -0.502303          -13.66835
     38       2.00000          -0.494747          -13.46275
     39       2.00000          -0.475139          -12.92919
     40       2.00000          -0.468548          -12.74984
     41       2.00000          -0.454250          -12.36078
     42       2.00000          -0.446902          -12.16081
     43       2.00000          -0.435498          -11.85052
     44       2.00000          -0.395606          -10.76498
     45       2.00000          -0.388007          -10.55820
     46       2.00000          -0.386505          -10.51732
     47       2.00000          -0.380518          -10.35441
     48       2.00000          -0.374104          -10.17989
     49       2.00000          -0.355303           -9.66828
     50       2.00000          -0.338798           -9.21916
     51       2.00000          -0.338529           -9.21184
     52       2.00000          -0.337624           -9.18720
     53       2.00000          -0.326771           -8.89188
     54       2.00000          -0.323191           -8.79447
     55       2.00000          -0.315155           -8.57582
     56       2.00000          -0.311119           -8.46599
     57       2.00000          -0.308739           -8.40122
     58       2.00000          -0.302905           -8.24245
     59       2.00000          -0.292935           -7.97117
     60       2.00000          -0.288252           -7.84375
     61       0.00000          -0.174995           -4.76185
     62       0.00000          -0.140851           -3.83275
     63       0.00000          -0.085851           -2.33613
     64       0.00000          -0.056557           -1.53898
     65       0.00000          -0.035000           -0.95241
     66       0.00000          -0.030050           -0.81769
     67       0.00000           0.003625            0.09864
     68       0.00000           0.024055            0.65457
     69       0.00000           0.030815            0.83852
     70       0.00000           0.043691            1.18888
     71       0.00000           0.051592            1.40389
     72       0.00000           0.056013            1.52418
     73       0.00000           0.126422            3.44011
     74       0.00000           0.142232            3.87033
     75       0.00000           0.160024            4.35447
     76       0.00000           0.168548            4.58643
     77       0.00000           0.177533            4.83093
     78       0.00000           0.188664            5.13381
     79       0.00000           0.196703            5.35257
     80       0.00000           0.200741            5.46245
     81       0.00000           0.202124            5.50007
     82       0.00000           0.210130            5.71793
     83       0.00000           0.213287            5.80384
     84       0.00000           0.219714            5.97871
     85       0.00000           0.226870            6.17345
     86       0.00000           0.234634            6.38472
     87       0.00000           0.254108            6.91464
     88       0.00000           0.256975            6.99264
     89       0.00000           0.269599            7.33617
     90       0.00000           0.290144            7.89522
     91       0.00000           0.297667            8.09993
     92       0.00000           0.319456            8.69285
     93       0.00000           0.331179            9.01183
     94       0.00000           0.344150            9.36479
     95       0.00000           0.369041           10.04211
     96       0.00000           0.372564           10.13797

  Highest occupied state (VBM) at     -7.84374721 eV
  | Occupation number:      2.00000000

  Lowest unoccupied state (CBM) at    -4.76184879 eV
  | Occupation number:      0.00000000

  Overall HOMO-LUMO gap:      3.08189842 eV.

  Total energy components:
  | Sum of eigenvalues            :        -881.71010166 Ha      -23992.55259390 eV
  | XC energy correction          :        -145.63359331 Ha       -3962.89170373 eV
  | XC potential correction       :         189.63752399 Ha        5160.29958090 eV
  | Free-atom electrostatic energy:        -781.77429208 Ha      -21273.16085400 eV
  | Hartree energy correction     :          -5.62020636 Ha        -152.93359630 eV
  | Entropy correction            :          -0.00000000 Ha          -0.00000000 eV
  | ---------------------------
  | Total energy                  :       -1625.10066943 Ha      -44221.23916703 eV
  | Total energy, T -> 0          :       -1625.10066943 Ha      -44221.23916703 eV  <-- do not rely on this value for anything but (periodic) metals
  | Electronic free energy        :       -1625.10066943 Ha      -44221.23916703 eV

  Derived energy quantities:
  | Kinetic energy                :        1633.90472915 Ha       44460.80982120 eV
  | Electrostatic energy          :       -3113.37180526 Ha      -84719.15728450 eV
  | Energy correction for multipole
  | error in Hartree potential    :           0.03550478 Ha           0.96613411 eV
  | Sum of eigenvalues per atom                           :       -1999.37938283 eV
  | Total energy (T->0) per atom                          :       -3685.10326392 eV  <-- do not rely on this value for anything but (periodic) metals
  | Electronic free energy per atom                       :       -3685.10326392 eV
  Evaluating new KS density.
  Integration grid: deviation in total charge (<rho> - N_e) =   5.684342E-14

  Self-consistency convergence accuracy:
  | Change of charge density      :  0.6104E+00
  | Change of sum of eigenvalues  :  0.1477E+03 eV
  | Change of total energy        :  0.6366E+01 eV


------------------------------------------------------------
  End self-consistency iteration #     1       :  max(cpu_time)    wall_clock(cpu1)
  | Time for this iteration                     :        0.080 s           0.080 s
  | Charge density update                       :        0.027 s           0.027 s
  | Density mixing                              :        0.001 s           0.001 s
  | Hartree multipole update                    :        0.001 s           0.001 s
  | Hartree multipole summation                 :        0.017 s           0.017 s
  | Integration                                 :        0.029 s           0.029 s
  | Solution of K.-S. eqns.                     :        0.004 s           0.005 s
  | Total energy evaluation                     :        0.000 s           0.000 s

  Partial memory accounting:
  | Current value for overall tracked memory usage:
  |   Minimum:        0.273 MB (on task 23)
  |   Maximum:        0.292 MB (on task  0)
  |   Average:        0.287 MB
  | Peak value for overall tracked memory usage:
  |   Minimum:        1.333 MB (on task  1 after allocating wave)
  |   Maximum:        1.433 MB (on task  6 after allocating wave)
  |   Average:        1.376 MB
  | Largest tracked array allocation so far:
  |   Minimum:        0.723 MB (gradient_basis_wave on task  1)
  |   Maximum:        0.787 MB (gradient_basis_wave on task  6)
  |   Average:        0.754 MB
  Note:  These values currently only include a subset of arrays which are explicitly tracked.
  The "true" memory usage will be greater.
------------------------------------------------------------

------------------------------------------------------------
          Begin self-consistency iteration #    2

  Date     :  20220517, Time     :  115633.440
------------------------------------------------------------
  Pulay mixing of updated and previous charge densities.
  Renormalizing the density to the exact electron count on the 3D integration grid.
  | Formal number of electrons (from input files) :     120.0000000000
  | Integrated number of electrons on 3D grid     :     120.0000000000
  | Charge integration error                      :      -0.0000000000
  | Normalization factor for density and gradient :       1.0000000000

  Evaluating partitioned Hartree potential by multipole expansion.
  | Original multipole sum: apparent total charge =  -0.222118E-13
  | Sum of charges compensated after spline to logarithmic grids =   0.136797E-03
  | Analytical far-field extrapolation by fixed multipoles:
  | Hartree multipole sum: apparent total charge =  -0.227529E-13
  Summing up the Hartree potential.
  Time summed over all CPUs for potential: real work        0.380 s, elapsed        0.392 s
  | RMS charge density error from multipole expansion :   0.120759E-01

  Integrating Hamiltonian matrix: batch-based integration.
  Time summed over all CPUs for integration: real work        0.664 s, elapsed        0.714 s

  Updating Kohn-Sham eigenvalues and eigenvectors using ELSI and the ELPA eigensolver.
  Starting ELPA eigensolver
  Finished transformation to standard eigenproblem
  | Time :     0.005 s
  Finished solving standard eigenproblem
  | Time :     0.016 s
  Finished back-transformation of eigenvectors
  | Time :     0.002 s

  Obtaining occupation numbers and chemical potential using ELSI.
  | Chemical potential (Fermi level):    -7.86457364 eV
  Highest occupied state (VBM) at     -9.31153402 eV
  | Occupation number:      2.00000000

  Lowest unoccupied state (CBM) at    -5.01256065 eV
  | Occupation number:      0.00000000

  Overall HOMO-LUMO gap:      4.29897337 eV.

  Checking to see if s.c.f. parameters should be adjusted.

  Total energy components:
  | Sum of eigenvalues            :        -884.97943079 Ha      -24081.51556575 eV
  | XC energy correction          :        -145.11253707 Ha       -3948.71304197 eV
  | XC potential correction       :         188.95206449 Ha        5141.64727900 eV
  | Free-atom electrostatic energy:        -781.77429208 Ha      -21273.16085400 eV
  | Hartree energy correction     :          -2.11209058 Ha         -57.47290879 eV
  | Entropy correction            :           0.00000000 Ha           0.00000000 eV
  | ---------------------------
  | Total energy                  :       -1625.02628602 Ha      -44219.21509149 eV
  | Total energy, T -> 0          :       -1625.02628602 Ha      -44219.21509149 eV  <-- do not rely on this value for anything but (periodic) metals
  | Electronic free energy        :       -1625.02628602 Ha      -44219.21509149 eV

  Derived energy quantities:
  | Kinetic energy                :        1629.90472063 Ha       44351.96405146 eV
  | Electrostatic energy          :       -3109.81846958 Ha      -84622.46610098 eV
  | Energy correction for multipole
  | error in Hartree potential    :           0.03827435 Ha           1.04149815 eV
  | Sum of eigenvalues per atom                           :       -2006.79296381 eV
  | Total energy (T->0) per atom                          :       -3684.93459096 eV  <-- do not rely on this value for anything but (periodic) metals
  | Electronic free energy per atom                       :       -3684.93459096 eV
  Evaluating new KS density.
  Integration grid: deviation in total charge (<rho> - N_e) =   5.684342E-14

  Self-consistency convergence accuracy:
  | Change of charge density      :  0.5143E+00
  | Change of sum of eigenvalues  : -0.8896E+02 eV
  | Change of total energy        :  0.2024E+01 eV


------------------------------------------------------------
  End self-consistency iteration #     2       :  max(cpu_time)    wall_clock(cpu1)
  | Time for this iteration                     :        0.117 s           0.116 s
  | Charge density update                       :        0.027 s           0.027 s
  | Density mixing                              :        0.008 s           0.007 s
  | Hartree multipole update                    :        0.004 s           0.005 s
  | Hartree multipole summation                 :        0.020 s           0.020 s
  | Integration                                 :        0.032 s           0.032 s
  | Solution of K.-S. eqns.                     :        0.024 s           0.025 s
  | Total energy evaluation                     :        0.000 s           0.000 s

  Partial memory accounting:
  | Current value for overall tracked memory usage:
  |   Minimum:        0.274 MB (on task 23)
  |   Maximum:        0.293 MB (on task  0)
  |   Average:        0.288 MB
  | Peak value for overall tracked memory usage:
  |   Minimum:        1.333 MB (on task  1 after allocating wave)
  |   Maximum:        1.433 MB (on task  6 after allocating wave)
  |   Average:        1.376 MB
  | Largest tracked array allocation so far:
  |   Minimum:        0.723 MB (gradient_basis_wave on task  1)
  |   Maximum:        0.787 MB (gradient_basis_wave on task  6)
  |   Average:        0.754 MB
  Note:  These values currently only include a subset of arrays which are explicitly tracked.
  The "true" memory usage will be greater.
------------------------------------------------------------

------------------------------------------------------------
          Begin self-consistency iteration #    3

  Date     :  20220517, Time     :  115633.567
------------------------------------------------------------
  Pulay mixing of updated and previous charge densities.
  Renormalizing the density to the exact electron count on the 3D integration grid.
  | Formal number of electrons (from input files) :     120.0000000000
  | Integrated number of electrons on 3D grid     :     120.0000000000
  | Charge integration error                      :      -0.0000000000
  | Normalization factor for density and gradient :       1.0000000000

  Evaluating partitioned Hartree potential by multipole expansion.
  | Original multipole sum: apparent total charge =  -0.762530E-13
  | Sum of charges compensated after spline to logarithmic grids =   0.181503E-03
  | Analytical far-field extrapolation by fixed multipoles:
  | Hartree multipole sum: apparent total charge =  -0.744820E-13
  Summing up the Hartree potential.
  Time summed over all CPUs for potential: real work        0.380 s, elapsed        0.394 s
  | RMS charge density error from multipole expansion :   0.163189E-01

  Integrating Hamiltonian matrix: batch-based integration.
  Time summed over all CPUs for integration: real work        0.665 s, elapsed        0.723 s

  Updating Kohn-Sham eigenvalues and eigenvectors using ELSI and the ELPA eigensolver.
  Starting ELPA eigensolver
  Finished transformation to standard eigenproblem
  | Time :     0.003 s
  Finished solving standard eigenproblem
  | Time :     0.021 s
  Finished back-transformation of eigenvectors
  | Time :     0.003 s

  Obtaining occupation numbers and chemical potential using ELSI.
  | Chemical potential (Fermi level):    -7.97672295 eV
  Highest occupied state (VBM) at     -8.79134343 eV
  | Occupation number:      2.00000000

  Lowest unoccupied state (CBM) at    -5.24894097 eV
  | Occupation number:      0.00000000

  Overall HOMO-LUMO gap:      3.54240246 eV.

  Total energy components:
  | Sum of eigenvalues            :        -885.99520701 Ha      -24109.15624310 eV
  | XC energy correction          :        -145.07543262 Ha       -3947.70337866 eV
  | XC potential correction       :         188.90221427 Ha        5140.29078550 eV
  | Free-atom electrostatic energy:        -781.77429208 Ha      -21273.16085400 eV
  | Hartree energy correction     :          -1.08249070 Ha         -29.45607054 eV
  | Entropy correction            :           0.00000000 Ha           0.00000000 eV
  | ---------------------------
  | Total energy                  :       -1625.02520814 Ha      -44219.18576079 eV
  | Total energy, T -> 0          :       -1625.02520814 Ha      -44219.18576079 eV  <-- do not rely on this value for anything but (periodic) metals
  | Electronic free energy        :       -1625.02520814 Ha      -44219.18576079 eV

  Derived energy quantities:
  | Kinetic energy                :        1628.25128151 Ha       44306.97168376 eV
  | Electrostatic energy          :       -3108.20105702 Ha      -84578.45406590 eV
  | Energy correction for multipole
  | error in Hartree potential    :           0.05036703 Ha           1.37055651 eV
  | Sum of eigenvalues per atom                           :       -2009.09635359 eV
  | Total energy (T->0) per atom                          :       -3684.93214673 eV  <-- do not rely on this value for anything but (periodic) metals
  | Electronic free energy per atom                       :       -3684.93214673 eV
  Evaluating new KS density.
  Integration grid: deviation in total charge (<rho> - N_e) =   4.263256E-14

  Self-consistency convergence accuracy:
  | Change of charge density      :  0.1336E+00
  | Change of sum of eigenvalues  : -0.2764E+02 eV
  | Change of total energy        :  0.2933E-01 eV


------------------------------------------------------------
  End self-consistency iteration #     3       :  max(cpu_time)    wall_clock(cpu1)
  | Time for this iteration                     :        0.118 s           0.116 s
  | Charge density update                       :        0.029 s           0.029 s
  | Density mixing                              :        0.008 s           0.004 s
  | Hartree multipole update                    :        0.001 s           0.001 s
  | Hartree multipole summation                 :        0.018 s           0.018 s
  | Integration                                 :        0.034 s           0.034 s
  | Solution of K.-S. eqns.                     :        0.028 s           0.028 s
  | Total energy evaluation                     :        0.001 s           0.000 s

  Partial memory accounting:
  | Current value for overall tracked memory usage:
  |   Minimum:        0.274 MB (on task 23)
  |   Maximum:        0.293 MB (on task  0)
  |   Average:        0.288 MB
  | Peak value for overall tracked memory usage:
  |   Minimum:        1.333 MB (on task  1 after allocating wave)
  |   Maximum:        1.433 MB (on task  6 after allocating wave)
  |   Average:        1.376 MB
  | Largest tracked array allocation so far:
  |   Minimum:        0.723 MB (gradient_basis_wave on task  1)
  |   Maximum:        0.787 MB (gradient_basis_wave on task  6)
  |   Average:        0.754 MB
  Note:  These values currently only include a subset of arrays which are explicitly tracked.
  The "true" memory usage will be greater.
------------------------------------------------------------

------------------------------------------------------------
          Begin self-consistency iteration #    4

  Date     :  20220517, Time     :  115633.695
------------------------------------------------------------
  Pulay mixing of updated and previous charge densities.
  Renormalizing the density to the exact electron count on the 3D integration grid.
  | Formal number of electrons (from input files) :     120.0000000000
  | Integrated number of electrons on 3D grid     :     120.0000000000
  | Charge integration error                      :       0.0000000000
  | Normalization factor for density and gradient :       1.0000000000

  Evaluating partitioned Hartree potential by multipole expansion.
  | Original multipole sum: apparent total charge =   0.636589E-13
  | Sum of charges compensated after spline to logarithmic grids =   0.204670E-03
  | Analytical far-field extrapolation by fixed multipoles:
  | Hartree multipole sum: apparent total charge =   0.601661E-13
  Summing up the Hartree potential.
  Time summed over all CPUs for potential: real work        0.380 s, elapsed        0.393 s
  | RMS charge density error from multipole expansion :   0.186828E-01

  Integrating Hamiltonian matrix: batch-based integration.
  Time summed over all CPUs for integration: real work        0.664 s, elapsed        0.715 s

  Updating Kohn-Sham eigenvalues and eigenvectors using ELSI and the ELPA eigensolver.
  Starting ELPA eigensolver
  Finished transformation to standard eigenproblem
  | Time :     0.001 s
  Finished solving standard eigenproblem
  | Time :     0.003 s
  Finished back-transformation of eigenvectors
  | Time :     0.000 s

  Obtaining occupation numbers and chemical potential using ELSI.
  | Chemical potential (Fermi level):    -7.96992029 eV
  Highest occupied state (VBM) at     -9.03461941 eV
  | Occupation number:      2.00000000

  Lowest unoccupied state (CBM) at    -5.24187540 eV
  | Occupation number:      0.00000000

  Overall HOMO-LUMO gap:      3.79274401 eV.

  Total energy components:
  | Sum of eigenvalues            :        -886.21103261 Ha      -24115.02915645 eV
  | XC energy correction          :        -145.05296369 Ha       -3947.09196789 eV
  | XC potential correction       :         188.87189971 Ha        5139.46588421 eV
  | Free-atom electrostatic energy:        -781.77429208 Ha      -21273.16085400 eV
  | Hartree energy correction     :          -0.85578148 Ha         -23.28699898 eV
  | Entropy correction            :           0.00000000 Ha           0.00000000 eV
  | ---------------------------
  | Total energy                  :       -1625.02217015 Ha      -44219.10309311 eV
  | Total energy, T -> 0          :       -1625.02217015 Ha      -44219.10309311 eV  <-- do not rely on this value for anything but (periodic) metals
  | Electronic free energy        :       -1625.02217015 Ha      -44219.10309311 eV

  Derived energy quantities:
  | Kinetic energy                :        1627.41917746 Ha       44284.32898042 eV
  | Electrostatic energy          :       -3107.38838392 Ha      -84556.34010564 eV
  | Energy correction for multipole
  | error in Hartree potential    :           0.05666922 Ha           1.54204784 eV
  | Sum of eigenvalues per atom                           :       -2009.58576304 eV
  | Total energy (T->0) per atom                          :       -3684.92525776 eV  <-- do not rely on this value for anything but (periodic) metals
  | Electronic free energy per atom                       :       -3684.92525776 eV
  Evaluating new KS density.
  Integration grid: deviation in total charge (<rho> - N_e) =   7.105427E-14

  Self-consistency convergence accuracy:
  | Change of charge density      :  0.1021E+00
  | Change of sum of eigenvalues  : -0.5873E+01 eV
  | Change of total energy        :  0.8267E-01 eV


------------------------------------------------------------
  End self-consistency iteration #     4       :  max(cpu_time)    wall_clock(cpu1)
  | Time for this iteration                     :        0.095 s           0.084 s
  | Charge density update                       :        0.027 s           0.026 s
  | Density mixing                              :        0.011 s           0.001 s
  | Hartree multipole update                    :        0.003 s           0.002 s
  | Hartree multipole summation                 :        0.018 s           0.019 s
  | Integration                                 :        0.032 s           0.031 s
  | Solution of K.-S. eqns.                     :        0.004 s           0.004 s
  | Total energy evaluation                     :        0.000 s           0.000 s

  Partial memory accounting:
  | Current value for overall tracked memory usage:
  |   Minimum:        0.274 MB (on task 23)
  |   Maximum:        0.293 MB (on task  0)
  |   Average:        0.288 MB
  | Peak value for overall tracked memory usage:
  |   Minimum:        1.333 MB (on task  1 after allocating wave)
  |   Maximum:        1.433 MB (on task  6 after allocating wave)
  |   Average:        1.376 MB
  | Largest tracked array allocation so far:
  |   Minimum:        0.723 MB (gradient_basis_wave on task  1)
  |   Maximum:        0.787 MB (gradient_basis_wave on task  6)
  |   Average:        0.754 MB
  Note:  These values currently only include a subset of arrays which are explicitly tracked.
  The "true" memory usage will be greater.
------------------------------------------------------------

------------------------------------------------------------
          Begin self-consistency iteration #    5

  Date     :  20220517, Time     :  115633.786
------------------------------------------------------------
  Pulay mixing of updated and previous charge densities.
  Renormalizing the density to the exact electron count on the 3D integration grid.
  | Formal number of electrons (from input files) :     120.0000000000
  | Integrated number of electrons on 3D grid     :     120.0000000000
  | Charge integration error                      :       0.0000000000
  | Normalization factor for density and gradient :       1.0000000000

  Evaluating partitioned Hartree potential by multipole expansion.
  | Original multipole sum: apparent total charge =   0.421605E-13
  | Sum of charges compensated after spline to logarithmic grids =   0.203990E-03
  | Analytical far-field extrapolation by fixed multipoles:
  | Hartree multipole sum: apparent total charge =   0.401435E-13
  Summing up the Hartree potential.
  Time summed over all CPUs for potential: real work        0.380 s, elapsed        0.391 s
  | RMS charge density error from multipole expansion :   0.185095E-01

  Integrating Hamiltonian matrix: batch-based integration.
  Time summed over all CPUs for integration: real work        0.662 s, elapsed        0.687 s

  Updating Kohn-Sham eigenvalues and eigenvectors using ELSI and the ELPA eigensolver.
  Starting ELPA eigensolver
  Finished transformation to standard eigenproblem
  | Time :     0.000 s
  Finished solving standard eigenproblem
  | Time :     0.003 s
  Finished back-transformation of eigenvectors
  | Time :     0.000 s

  Obtaining occupation numbers and chemical potential using ELSI.
  | Chemical potential (Fermi level):    -7.94059841 eV
  Highest occupied state (VBM) at     -9.08335155 eV
  | Occupation number:      2.00000000

  Lowest unoccupied state (CBM) at    -5.18483849 eV
  | Occupation number:      0.00000000

  Overall HOMO-LUMO gap:      3.89851306 eV.

  Total energy components:
  | Sum of eigenvalues            :        -886.04025452 Ha      -24110.38204815 eV
  | XC energy correction          :        -145.04764749 Ha       -3946.94730677 eV
  | XC potential correction       :         188.86506464 Ha        5139.27989252 eV
  | Free-atom electrostatic energy:        -781.77429208 Ha      -21273.16085400 eV
  | Hartree energy correction     :          -1.02479257 Ha         -27.88602479 eV
  | Entropy correction            :           0.00000000 Ha           0.00000000 eV
[...]
   Total forces(   7)            :  0.211084E+01  0.830849E+00  0.233968E+00
  atom #    8
   Hellmann-Feynman              :  0.943116E+00  0.423973E+00  0.212966E+00
   Ionic forces                  :  0.000000E+00  0.000000E+00  0.000000E+00
   Multipole                     :  0.269592E+00  0.222175E+00  0.353641E+00
   Hartree pot. SCF incomplete   :  0.260577E-06  0.102609E-06  0.113974E-05
   Pulay + GGA                   : -0.241854E+01 -0.136839E+01 -0.142645E+01
   ----------------------------------------------------------------
   Total forces(   8)            : -0.120584E+01 -0.722241E+00 -0.859844E+00
  atom #    9
   Hellmann-Feynman              :  0.264332E+00  0.289180E+01  0.100195E+01
   Ionic forces                  :  0.000000E+00  0.000000E+00  0.000000E+00
   Multipole                     :  0.116314E+00  0.710372E+00  0.202985E+00
   Hartree pot. SCF incomplete   : -0.544679E-06  0.372243E-06  0.500216E-06
   Pulay + GGA                   : -0.807636E+00 -0.636406E+01 -0.241376E+01
   ----------------------------------------------------------------
   Total forces(   9)            : -0.426991E+00 -0.276188E+01 -0.120883E+01
  atom #   10
   Hellmann-Feynman              :  0.143452E+01 -0.256594E+01  0.106545E+01
   Ionic forces                  :  0.000000E+00  0.000000E+00  0.000000E+00
   Multipole                     :  0.351788E+00 -0.555046E+00  0.200025E+00
   Hartree pot. SCF incomplete   : -0.188295E-06 -0.491517E-06  0.575694E-06
   Pulay + GGA                   : -0.313792E+01  0.550265E+01 -0.258984E+01
   ----------------------------------------------------------------
   Total forces(  10)            : -0.135161E+01  0.238166E+01 -0.132437E+01
  atom #   11
   Hellmann-Feynman              : -0.169691E+01 -0.103170E+01  0.218690E+01
   Ionic forces                  :  0.000000E+00  0.000000E+00  0.000000E+00
   Multipole                     : -0.118196E+00 -0.374821E+00  0.311396E+00
   Hartree pot. SCF incomplete   : -0.125796E-05 -0.811155E-06  0.540862E-06
   Pulay + GGA                   :  0.364585E+01  0.331051E+01 -0.516635E+01
   ----------------------------------------------------------------
   Total forces(  11)            :  0.183074E+01  0.190399E+01 -0.266805E+01
  atom #   12
   Hellmann-Feynman              :  0.179081E+01  0.619868E+00 -0.257387E+01
   Ionic forces                  :  0.000000E+00  0.000000E+00  0.000000E+00
   Multipole                     :  0.413516E+00  0.326164E+00 -0.617781E+00
   Hartree pot. SCF incomplete   : -0.563196E-06 -0.276077E-06 -0.263100E-06
   Pulay + GGA                   : -0.427291E+01 -0.193383E+01  0.592642E+01
   ----------------------------------------------------------------
   Total forces(  12)            : -0.206859E+01 -0.987795E+00  0.273477E+01


  Self-consistency convergence accuracy:
  | Change of charge density      :  0.1045E-06
  | Change of sum of eigenvalues  : -0.1496E-05 eV
  | Change of total energy        :  0.2784E-09 eV
  | Change of forces              :  0.4231E-06 eV/A

  Writing Kohn-Sham eigenvalues.

  State    Occupation    Eigenvalue [Ha]    Eigenvalue [eV]
      1       2.00000         -55.672409        -1514.92334
      2       2.00000         -55.648540        -1514.27383
      3       2.00000         -55.595898        -1512.84134
      4       2.00000         -24.328051         -661.99996
      5       2.00000         -24.323945         -661.88823
      6       2.00000         -24.308585         -661.47025
      7       2.00000         -24.249574         -659.86448
      8       2.00000         -24.234542         -659.45545
      9       2.00000         -24.200362         -658.52535
     10       2.00000         -24.196470         -658.41944
     11       2.00000         -24.196215         -658.41251
     12       2.00000         -24.194711         -658.37158
     13       2.00000          -4.123965         -112.21879
     14       2.00000          -4.096785         -111.47918
     15       2.00000          -4.049967         -110.20522
     16       2.00000          -2.717709          -73.95262
     17       2.00000          -2.715445          -73.89102
     18       2.00000          -2.713400          -73.83536
     19       2.00000          -2.691472          -73.23867
     20       2.00000          -2.687716          -73.13648
     21       2.00000          -2.685632          -73.07977
     22       2.00000          -2.644637          -71.96423
     23       2.00000          -2.640903          -71.86263
     24       2.00000          -2.638991          -71.81060
     25       2.00000          -1.198343          -32.60858
     26       2.00000          -1.190619          -32.39840
     27       2.00000          -1.170037          -31.83833
     28       2.00000          -1.102893          -30.01124
     29       2.00000          -1.080280          -29.39593
     30       2.00000          -1.045808          -28.45788
     31       2.00000          -1.041769          -28.34798
     32       2.00000          -1.040480          -28.31290
     33       2.00000          -1.032274          -28.08959
     34       2.00000          -0.577542          -15.71573
     35       2.00000          -0.558541          -15.19867
     36       2.00000          -0.548893          -14.93613
     37       2.00000          -0.526057          -14.31475
     38       2.00000          -0.519125          -14.12610
     39       2.00000          -0.496711          -13.51619
     40       2.00000          -0.490166          -13.33809
     41       2.00000          -0.482489          -13.12920
     42       2.00000          -0.470682          -12.80792
     43       2.00000          -0.459975          -12.51655
     44       2.00000          -0.440102          -11.97578
     45       2.00000          -0.417285          -11.35491
     46       2.00000          -0.414671          -11.28376
     47       2.00000          -0.408794          -11.12384
     48       2.00000          -0.406059          -11.04943
     49       2.00000          -0.388376          -10.56826
     50       2.00000          -0.385838          -10.49918
     51       2.00000          -0.385151          -10.48049
     52       2.00000          -0.384467          -10.46188
     53       2.00000          -0.356654           -9.70504
     54       2.00000          -0.353822           -9.62798
     55       2.00000          -0.351321           -9.55992
     56       2.00000          -0.347379           -9.45265
     57       2.00000          -0.345295           -9.39596
     58       2.00000          -0.343031           -9.33434
     59       2.00000          -0.337940           -9.19583
     60       2.00000          -0.333668           -9.07956
     61       0.00000          -0.190121           -5.17346
     62       0.00000          -0.154082           -4.19280
     63       0.00000          -0.092753           -2.52394
     64       0.00000          -0.063929           -1.73959
     65       0.00000          -0.040533           -1.10297
     66       0.00000          -0.039034           -1.06216
     67       0.00000          -0.003502           -0.09530
     68       0.00000           0.019964            0.54326
     69       0.00000           0.028934            0.78732
     70       0.00000           0.037318            1.01548
     71       0.00000           0.048434            1.31797
     72       0.00000           0.051592            1.40390
     73       0.00000           0.118996            3.23804
     74       0.00000           0.136307            3.70909
     75       0.00000           0.151770            4.12987
     76       0.00000           0.162487            4.42149
     77       0.00000           0.172871            4.70405
     78       0.00000           0.185552            5.04914
     79       0.00000           0.189340            5.15221
     80       0.00000           0.194995            5.30607
     81       0.00000           0.195795            5.32786
     82       0.00000           0.204668            5.56930
     83       0.00000           0.208230            5.66624
     84       0.00000           0.215919            5.87546
     85       0.00000           0.219867            5.98287
     86       0.00000           0.229887            6.25554
     87       0.00000           0.247960            6.74734
     88       0.00000           0.250484            6.81601
     89       0.00000           0.265903            7.23560
     90       0.00000           0.281157            7.65066
     91       0.00000           0.295476            8.04031
     92       0.00000           0.314834            8.56707
     93       0.00000           0.323966            8.81556
     94       0.00000           0.339475            9.23757
     95       0.00000           0.357631            9.73165
     96       0.00000           0.365159            9.93649

  Highest occupied state (VBM) at     -9.07956291 eV
  | Occupation number:      2.00000000

  Lowest unoccupied state (CBM) at    -5.17345541 eV
  | Occupation number:      0.00000000

  Overall HOMO-LUMO gap:      3.90610750 eV.
  | Chemical Potential                          :    -7.93295891 eV

  Self-consistency cycle converged.


------------------------------------------------------------
  End self-consistency iteration #    15       :  max(cpu_time)    wall_clock(cpu1)
  | Time for this iteration                     :        0.273 s           0.270 s
  | Charge density & force component update     :        0.144 s           0.144 s
  | Density mixing                              :        0.009 s           0.005 s
  | Hartree multipole update                    :        0.002 s           0.002 s
  | Hartree multipole summation                 :        0.051 s           0.051 s
  | Hartree pot. SCF incomplete forces          :        0.032 s           0.032 s
  | Integration                                 :        0.030 s           0.030 s
  | Solution of K.-S. eqns.                     :        0.004 s           0.004 s
  | Total energy evaluation                     :        0.000 s           0.000 s

  Partial memory accounting:
  | Current value for overall tracked memory usage:
  |   Minimum:        0.274 MB (on task 23)
  |   Maximum:        0.293 MB (on task  0)
  |   Average:        0.289 MB
  | Peak value for overall tracked memory usage:
  |   Minimum:        2.978 MB (on task  1 after allocating hessian_basis_wave)
  |   Maximum:        3.192 MB (on task  6 after allocating hessian_basis_wave)
  |   Average:        3.075 MB
  | Largest tracked array allocation so far:
  |   Minimum:        1.447 MB (hessian_basis_wave on task  1)
  |   Maximum:        1.575 MB (hessian_basis_wave on task  6)
  |   Average:        1.507 MB
  Note:  These values currently only include a subset of arrays which are explicitly tracked.
  The "true" memory usage will be greater.
------------------------------------------------------------
  Removing unitary transformations (pure translations, rotations) from forces on atoms.
  Atomic forces before filtering:
  | Net force on center of mass :  -0.360031E-02 -0.645249E-02  0.201278E-03 eV/A
  | Net torque on center of mass:  -0.742248E-02  0.233219E-01  0.409024E-02 eV
  Atomic forces after filtering:
  | Net force on center of mass :  -0.713624E-15 -0.713624E-15 -0.356812E-15 eV/A
  | Net torque on center of mass:  -0.226580E-14  0.000000E+00 -0.188817E-14 eV

  Energy and forces in a compact form:
  | Total energy uncorrected      :         -0.442190960349035E+05 eV
  | Total energy corrected        :         -0.442190960349035E+05 eV  <-- do not rely on this value for anything but (periodic) metals
  | Electronic free energy        :         -0.442190960349035E+05 eV
  Total atomic forces (unitary forces cleaned) [eV/Ang]:
  |    1          0.130807494130798E+01          0.974163436638357E+00         -0.202411534046328E+01
  |    2          0.448268562434849E+00          0.379197758654893E-01          0.206338503754949E+01
  |    3         -0.230950184444342E+01         -0.393250658625612E+01         -0.268639161741129E+00
  |    4          0.539791930137107E+00          0.220497449469433E+01          0.311025865898182E+01
  |    5          0.134381780357784E+01          0.243014060058159E+01          0.362702296410682E+00
  |    6         -0.219213565951966E+00         -0.236178233072352E+01         -0.152134891207922E+00
  |    7          0.211071394562117E+01          0.831360805525502E+00          0.233698628110471E+00
  |    8         -0.120564340841234E+01         -0.721940549692855E+00         -0.859205068388566E+00
  |    9         -0.427400796265849E+00         -0.276167706251012E+01         -0.120835349076362E+01
  |   10         -0.135236563581857E+01          0.238179568191938E+01         -0.132394851309823E+01
  |   11          0.183089406320074E+01          0.190482086132387E+01         -0.266910035045551E+01
  |   12         -0.206743599538755E+01         -0.987269127365908E+00          0.273545219506580E+01

  ------------------------------------ 
  Start decomposition of the XC Energy 
  ------------------------------------ 
  X and C from original XC functional choice 
  Hartree-Fock Energy :          0.000000000 Ha              0.000000000 eV
  X Energy            :       -140.115538600 Ha          -3812.737795267 eV
  C Energy            :         -4.936629437 Ha           -134.332521754 eV
  Total XC Energy     :       -145.052168037 Ha          -3947.070317020 eV
  ------------------------------------ 
  LDA X and C from self-consistent density 
  X Energy LDA        :       -132.686024989 Ha          -3610.570443745 eV
  C Energy LDA        :         -8.819431428 Ha           -239.988939647 eV
  ------------------------------------ 
  End decomposition of the XC Energy 
  ------------------------------------ 

------------------------------------------------------------

------------------------------------------------------------------------------
  Final output of selected total energy values:

  The following output summarizes some interesting total energy values
  at the end of a run (AFTER all relaxation, molecular dynamics, etc.).

  | Total energy of the DFT / Hartree-Fock s.c.f. calculation      :         -44219.096034904 eV
  | Final zero-broadening corrected energy (caution - metals only) :         -44219.096034904 eV
  | For reference only, the value of 1 Hartree used in FHI-aims is :             27.211384500 eV

  Before relying on these values, please be sure to understand exactly which
  total energy value is referred to by a given number. Different objects may
  all carry the same name 'total energy'. Definitions:

  Total energy of the DFT / Hartree-Fock s.c.f. calculation:
  | Note that this energy does not include ANY quantities calculated after the
  | s.c.f. cycle, in particular not ANY RPA, MP2, etc. many-body perturbation terms.

  Final zero-broadening corrected energy:
  | For metallic systems only, a broadening of the occupation numbers at the Fermi
  | level can be extrapolated back to zero broadening by an electron-gas inspired
  | formula. For all systems that are not real metals, this value can be
  | meaningless and should be avoided.

------------------------------------------------------------------------------
  Methods described in the following list of references were used in this FHI-aims run.
  If you publish the results, please make sure to cite these reference if they apply.
  FHI-aims is an academic code, and for our developers (often, Ph.D. students
  and postdocs), scientific credit in the community is essential.
  Thank you for helping us!

  For any use of FHI-aims, please cite:

    Volker Blum, Ralf Gehrke, Felix Hanke, Paula Havu, Ville Havu,
    Xinguo Ren, Karsten Reuter, and Matthias Scheffler
    'Ab initio molecular simulations with numeric atom-centered orbitals'
    Computer Physics Communications 180, 2175-2196 (2009)
    http://dx.doi.org/10.1016/j.cpc.2009.06.022


  The ELSI infrastructure was used in your run to solve the Kohn-Sham electronic structure.
  Please check out http://elsi-interchange.org to learn more.
  If scalability is important for your project, please acknowledge ELSI by citing:

    V. W-z. Yu, F. Corsetti, A. Garcia, W. P. Huhn, M. Jacquelin, W. Jia,
    B. Lange, L. Lin, J. Lu, W. Mi, A. Seifitokaldani, A. Vazquez-Mayagoitia,
    C. Yang, H. Yang, and V. Blum
    'ELSI: A unified software interface for Kohn-Sham electronic structure solvers'
    Computer Physics Communications 222, 267-285 (2018).
    http://dx.doi.org/10.1016/j.cpc.2017.09.007


  For the real-space grid partitioning and parallelization used in this calculation, please cite:

    Ville Havu, Volker Blum, Paula Havu, and Matthias Scheffler,
    'Efficient O(N) integration for all-electron electronic structure calculation'
    'using numerically tabulated basis functions'
    Journal of Computational Physics 228, 8367-8379 (2009).
    http://dx.doi.org/10.1016/j.jcp.2009.08.008

  Of course, there are many other important community references, e.g., those cited in the
  above references. Our list is limited to references that describe implementations in the
  FHI-aims code. The reason is purely practical (length of this list) - please credit others as well.

------------------------------------------------------------
          Leaving FHI-aims.
          Date     :  20220517, Time     :  115635.308

          Computational steps:
          | Number of self-consistency cycles          :           15
          | Number of SCF (re)initializations          :            1

          Detailed time accounting                     :  max(cpu_time)    wall_clock(cpu1)
          | Total time                                  :        2.293 s           2.374 s
          | Preparation time                            :        0.183 s           0.185 s
          | Boundary condition initalization            :        0.000 s           0.000 s
          | Grid partitioning                           :        0.045 s           0.046 s
          | Preloading free-atom quantities on grid     :        0.016 s           0.016 s
          | Free-atom superposition energy              :        0.005 s           0.005 s
          | Total time for integrations                 :        0.513 s           0.511 s
          | Total time for solution of K.-S. equations  :        0.216 s           0.220 s
          | Total time for density & force components   :        0.674 s           0.672 s
          | Total time for mixing                       :        0.110 s           0.066 s
          | Total time for Hartree multipole update     :        0.041 s           0.039 s
          | Total time for Hartree multipole sum        :        0.334 s           0.336 s
          | Total time for total energy evaluation      :        0.004 s           0.005 s
          | Total time NSC force correction             :        0.064 s           0.065 s
          | Total time for scaled ZORA corrections      :        0.000 s           0.000 s

          Partial memory accounting:
          | Residual value for overall tracked memory usage across tasks:     0.000000 MB (should be 0.000000 MB)
          | Peak values for overall tracked memory usage:
          |   Minimum:        2.978 MB (on task  1 after allocating hessian_basis_wave)
          |   Maximum:        3.192 MB (on task  6 after allocating hessian_basis_wave)
          |   Average:        3.075 MB
          | Largest tracked array allocation:
          |   Minimum:        1.447 MB (hessian_basis_wave on task  1)
          |   Maximum:        1.575 MB (hessian_basis_wave on task  6)
          |   Average:        1.507 MB
          Note:  These values currently only include a subset of arrays which are explicitly tracked.
          The "true" memory usage will be greater.

          Have a nice day.
------------------------------------------------------------
