********************************************************************************
*                       GENERAL UTILITY LATTICE PROGRAM                        *
*                                 Julian Gale                                  *
*                       Curtin Institute for Computation                       *
*                           Department of Chemistry                            *
*                    Curtin University, Western Australia                      *
********************************************************************************
* Version = 5.1.1 * Last modified =  11th January 2019                         *
********************************************************************************
*  single       - perform a single point run                                   *
*  phonon       - calculate phonons for final geometry                         *
*  eigenvectors - output phonon eigenvectors                                   *
********************************************************************************

  Job Started  at 10:32.06 17th May        2022                               

  Number of CPUs =     1

  Host name      = login04                                 


  Total number of configurations input =      1

********************************************************************************
*  Input for Configuration =   1                                               *
********************************************************************************

  Formula = Al3F9                                                       

  Number of irreducible atoms/shells =      21


  Total number atoms/shells =      21

  Dimensionality = 0               :  Cluster


  Charge on cluster =  -0.000000


  Initial cluster dipoles : x =      0.093366 e.Angs
                            y =      0.828628 e.Angs
                            z =     -0.257202 e.Angs

  Temperature of configuration =  0.000     K 

  Symmetry number =      1

  Cartesian coordinates of cluster :

--------------------------------------------------------------------------------
   No.  Atomic       x           y          z         Charge      Occupancy
        Label      (Angs)      (Angs)     (Angs)        (e)         (Frac)  
--------------------------------------------------------------------------------
      1 Al    c     -0.3336      0.8927     -1.8168     3.00000    1.000000    
      2 Al    c     -0.4504      1.0859      1.2814     3.00000    1.000000    
      3 Al    c     -3.0878      0.7728     -1.8648     3.00000    1.000000    
      4 F     c     -3.4688      0.0236     -3.5942     0.59000    1.000000    
      5 F     c     -1.5880     -0.5093     -1.9167     0.59000    1.000000    
      6 F     c     -1.7756      2.2040     -1.8216     0.59000    1.000000    
      7 F     c     -2.0194      0.6471      0.4570     0.59000    1.000000    
      8 F     c      0.5832      1.3309     -0.2959     0.59000    1.000000    
      9 F     c     -0.2821      2.7453      1.9968     0.59000    1.000000    
     10 F     c      0.3464     -0.3574      2.0438     0.59000    1.000000    
     11 F     c     -4.2407      0.0447     -0.5776     0.59000    1.000000    
     12 F     c      0.7361      1.2970     -3.2349     0.59000    1.000000    
     13 F     s     -3.4688      0.0236     -3.5942    -1.59000    1.000000    
     14 F     s     -1.5880     -0.5093     -1.9167    -1.59000    1.000000    
     15 F     s     -1.7756      2.2040     -1.8216    -1.59000    1.000000    
     16 F     s     -2.0194      0.6471      0.4570    -1.59000    1.000000    
     17 F     s      0.5832      1.3309     -0.2959    -1.59000    1.000000    
     18 F     s     -0.2821      2.7453      1.9968    -1.59000    1.000000    
     19 F     s      0.3464     -0.3574      2.0438    -1.59000    1.000000    
     20 F     s     -4.2407      0.0447     -0.5776    -1.59000    1.000000    
     21 F     s      0.7361      1.2970     -3.2349    -1.59000    1.000000    
--------------------------------------------------------------------------------


  Brillouin zone sampling points :

--------------------------------------------------------------------------------
  Point number          x          y          z            Weight
--------------------------------------------------------------------------------
        1           0.000000   0.000000   0.000000     1.00000000
--------------------------------------------------------------------------------


********************************************************************************
*  General input information                                                   *
********************************************************************************

  Species output for all configurations : 

--------------------------------------------------------------------------------
  Species    Type    Atomic    Atomic    Charge       Radii (Angs)     Library
                     Number     Mass       (e)     Cova   Ionic  VDW   Symbol
--------------------------------------------------------------------------------
    Al       Core       13      26.98   3.000000   1.350  0.000  2.050          
    F        Core        9      19.00   0.590000   0.710  0.000  1.300          
    F        Shell       9       0.00  -1.590000   0.710  0.000  1.300          
--------------------------------------------------------------------------------


  Accuracy factor for short range sums = 12.000

  Time limit = Infinity

  Maximum range for interatomic potentials =    100000.000000 Angstroms

  General interatomic potentials :

--------------------------------------------------------------------------------
Atom  Types   Potential      Parameter       Value         Units   Cutoffs(Ang)
  1     2                                                            Min /  Max 
--------------------------------------------------------------------------------
Al   c F    s Buckingham    Buckingham A     3760.0008    eV        0.000 10.000
                            Buckingham rho  0.22200000    Ang       
                            Buckingham C     0.0000000    eV*Ang^6  
--------------------------------------------------------------------------------
F    s F    s Buck 4 range  Buck4 A          1127.7000    eV        0.000 12.000
                            Buck4 rho       0.27530000    Ang       
                            Buck4 C          15.830000    eV*Ang^6  
                            Buck4 minimum    2.7900000    Ang       
--------------------------------------------------------------------------------
F    c F    s Spring (c-s)  Spring k 2       20.770000    eV*Ang^-2 0.000  0.800
                            Spring k 4       0.0000000    eV*Ang^-4 
--------------------------------------------------------------------------------

********************************************************************************
*  Output for configuration   1                                                *
********************************************************************************


  Components of energy : 

--------------------------------------------------------------------------------
  Interatomic potentials     =           9.49179419 eV    
  Monopole - monopole (real) =        -176.19386023 eV    
--------------------------------------------------------------------------------
  Total lattice energy       =        -166.70206604 eV    
--------------------------------------------------------------------------------
  Total lattice energy       =          -16084.2011 kJ/mol
--------------------------------------------------------------------------------

  Born effective charge tensors : 

-------------------------------------------------------------------------------
  Atom             x           y             z
-------------------------------------------------------------------------------
    1 Al    x       2.3823      0.1676     -0.2142
            y       0.1475      1.8726     -0.0055
            z      -0.0262      0.0827      2.3516
-------------------------------------------------------------------------------
    2 Al    x       1.9815      0.0429      0.1774
            y       0.0121      2.1297      0.0189
            z       0.1500      0.0320      2.1639
-------------------------------------------------------------------------------
    3 Al    x       2.6066      0.3295      0.2464
            y       0.3145      2.0483      0.1782
            z       0.1169      0.1079      3.0931
-------------------------------------------------------------------------------
    4 F     x      -0.6930     -0.1883     -0.3765
            y      -0.0947     -0.6729     -0.3281
            z      -0.2165     -0.4744     -1.4030
-------------------------------------------------------------------------------
    5 F     x      -0.8876      0.0296     -0.0599
            y      -0.0314     -0.8295     -0.0526
            z      -0.1256     -0.0622     -0.4300
-------------------------------------------------------------------------------
    6 F     x      -0.9014      0.0472     -0.0671
            y       0.0155     -0.8505     -0.0022
            z      -0.0728      0.0417     -0.4000
-------------------------------------------------------------------------------
    7 F     x      -0.8735     -0.0569     -0.3470
            y      -0.1095     -0.3817     -0.0766
            z      -0.2181      0.0170     -1.0380
-------------------------------------------------------------------------------
    8 F     x      -0.5595     -0.0799      0.0194
            y      -0.0709     -0.3222     -0.0283
            z       0.0264     -0.0493     -0.9847
-------------------------------------------------------------------------------
    9 F     x      -0.5189     -0.0797     -0.0584
            y      -0.0706     -0.9856     -0.2362
            z      -0.0526     -0.3257     -0.7164
-------------------------------------------------------------------------------
   10 F     x      -0.6417      0.2264     -0.1561
            y       0.2047     -0.8454      0.2020
            z      -0.1830      0.2845     -0.7459
-------------------------------------------------------------------------------
   11 F     x      -1.0650     -0.3260      0.4531
            y      -0.2253     -0.6460      0.2173
            z       0.2559      0.2152     -0.9305
-------------------------------------------------------------------------------
   12 F     x      -0.8298     -0.1125      0.3830
            y      -0.0919     -0.5169      0.1131
            z       0.3456      0.1307     -0.9601
-------------------------------------------------------------------------------




  Moment of inertia tensor (10^-46 x kgm^2): 

-------------------------------------------------------------------------------
                x           y           z           Principal axis system
-------------------------------------------------------------------------------
       x        169.33      -20.04      -39.91          106.100959
       y        -20.04      238.37      -11.93          193.905722
       z        -39.91      -11.93      136.08          243.780601
-------------------------------------------------------------------------------
  Centre of mass (Ang) =    -1.297666     0.854669    -0.780655
-------------------------------------------------------------------------------


  Vibrational Frequency Calculation : 

--------------------------------------------------------------------------------

  Frequencies (cm-1) and Eigenvectors : 

  Frequency    -325.4974 -240.9253 -133.0850 -102.3094   -0.0000   -0.0000
  IR Intensity    0.0022    0.1980    0.1814    0.0047    0.0000    0.0000
     in X         0.0001    0.0503    0.0179    0.0029    0.0000    0.0000
     in Y         0.0000    0.0084    0.0079    0.0000    0.0000    0.0000
     in Z         0.0021    0.1394    0.1556    0.0018    0.0000    0.0000
  Raman Intsty    0.1615    0.1272    0.4907    0.6826    0.0000    0.0000

     1 x       0.045725 -0.054680 -0.130153 -0.336898  0.085028 -0.306577
     1 y      -0.685214 -0.056763  0.001278 -0.105801 -0.090121  0.052519
     1 z       0.000603 -0.175589  0.057366  0.209356  0.302882  0.101692
     2 x       0.012798  0.198993  0.081957  0.433267  0.085028 -0.306577
     2 y       0.013096  0.132586  0.070470  0.201293 -0.090121  0.052519
     2 z      -0.019945 -0.193764 -0.095698  0.013389  0.302882  0.101692
     3 x      -0.044687  0.037720 -0.087200 -0.171094  0.085028 -0.306577
     3 y       0.657671 -0.022889 -0.174324 -0.098076 -0.090121  0.052519
     3 z      -0.005757  0.724424 -0.255660 -0.143323  0.302882  0.101692
     4 x       0.074664 -0.009618  0.014213 -0.165215  0.071354 -0.257274
     4 y       0.098198 -0.152797  0.546498 -0.159777 -0.075627  0.044073
     4 z       0.109512  0.020131  0.526230 -0.205715  0.254173  0.085338
     5 x       0.092258  0.002690  0.145742 -0.233648  0.071354 -0.257274
     5 y      -0.076314 -0.045347 -0.227872 -0.081719 -0.075627  0.044073
     5 z      -0.012832 -0.055619  0.001093 -0.112172  0.254173  0.085338
     6 x      -0.167068  0.026413  0.051895 -0.133505  0.071354 -0.257274
     6 y       0.000954  0.018068 -0.072839 -0.042164 -0.075627  0.044073
     6 z      -0.029600  0.011835 -0.057983 -0.040603  0.254173  0.085338
     7 x       0.021047 -0.022193  0.063985  0.303131  0.071354 -0.257274
     7 y      -0.003244  0.148347  0.052218  0.026256 -0.075627  0.044073
     7 z      -0.017307 -0.411469 -0.257848 -0.088686  0.254173  0.085338
     8 x      -0.034944  0.001941  0.036703  0.057625  0.071354 -0.257274
     8 y      -0.026006  0.000492  0.024656  0.053956 -0.075627  0.044073
     8 z      -0.035364 -0.070247  0.002983  0.065678  0.254173  0.085338
     9 x       0.003989  0.009510  0.017922  0.208862  0.071354 -0.257274
     9 y       0.004361  0.020770  0.040967  0.156592 -0.075627  0.044073
     9 z      -0.001448 -0.034345 -0.013476  0.085689  0.254173  0.085338
    10 x       0.002594 -0.030754  0.008674  0.207982  0.071354 -0.257274
    10 y      -0.001260  0.061146  0.039596  0.079647 -0.075627  0.044073
    10 z      -0.004431 -0.070891 -0.027045  0.050155  0.254173  0.085338
    11 x       0.015325 -0.216114 -0.126532  0.064648  0.071354 -0.257274
    11 y       0.099392 -0.109370 -0.265775  0.057201 -0.075627  0.044073
    11 z      -0.016473  0.208772  0.160225 -0.065230  0.254173  0.085338
    12 x      -0.024353  0.021205 -0.051258 -0.220833  0.071354 -0.257274
    12 y      -0.078865 -0.004389 -0.015215 -0.086911 -0.075627  0.044073
    12 z       0.037852 -0.021282  0.016156  0.216241  0.254173  0.085338


  Frequency      -0.0000   25.3345   93.8072  138.1939  143.1870  152.8541
  IR Intensity    0.0000    0.0081    0.0442    0.0011    0.0019    0.0145
     in X         0.0000    0.0052    0.0176    0.0005    0.0010    0.0095
     in Y         0.0000    0.0001    0.0032    0.0005    0.0008    0.0013
     in Z         0.0000    0.0028    0.0234    0.0001    0.0001    0.0037
  Raman Intsty    0.0000    0.0326    0.0238    0.0008    0.0115    0.4715

     1 x      -0.076614 -0.158334 -0.066901 -0.013727 -0.055626  0.083765
     1 y      -0.310176  0.210580 -0.088669 -0.004904  0.010063  0.000967
     1 z      -0.070783 -0.150768 -0.247515  0.003966 -0.032850 -0.126368
     2 x      -0.076614  0.259088  0.092687  0.010312  0.023474 -0.033088
     2 y      -0.310176 -0.385725  0.196215 -0.027804 -0.017177 -0.052262
     2 z      -0.070783 -0.047214 -0.110469  0.013419  0.040219  0.077363
     3 x      -0.076614 -0.152857 -0.108804  0.013872  0.013588  0.050456
     3 y      -0.310176  0.160735 -0.139005  0.019742  0.067061  0.077543
     3 z      -0.070783  0.129641  0.125231 -0.015043 -0.028868 -0.006094
     4 x      -0.064293 -0.125908  0.042563  0.097830  0.198092 -0.236118
     4 y      -0.260294  0.211494 -0.021308 -0.033149  0.030689 -0.089891
     4 z      -0.059400  0.136503  0.183814 -0.041178 -0.140390  0.041118
     5 x      -0.064293 -0.061210 -0.018527 -0.004937 -0.054974  0.039290
     5 y      -0.260294  0.104292 -0.099267  0.033102  0.067870  0.134639
     5 z      -0.059400 -0.016343  0.309759  0.116816  0.200327 -0.245848
     6 x      -0.064293 -0.083951  0.009452 -0.087199 -0.101148 -0.132027
     6 y      -0.260294  0.108597 -0.136934  0.031587  0.078307  0.057025
     6 z      -0.059400  0.036453  0.108805 -0.088555 -0.145668 -0.133801
     7 x      -0.064293  0.072026 -0.159015 -0.074194 -0.141875  0.104548
     7 y      -0.260294 -0.137019 -0.089847  0.185541  0.438050 -0.147788
     7 z      -0.059400  0.101462  0.492395  0.051789  0.054588  0.039195
     8 x      -0.064293  0.028410 -0.090805 -0.197918  0.064540 -0.087843
     8 y      -0.260294 -0.137069  0.071343  0.515485 -0.383148  0.139828
     8 z      -0.059400 -0.095213 -0.186115 -0.036389  0.007808 -0.083736
     9 x      -0.064293  0.213251  0.159401  0.131434  0.374751 -0.174999
     9 y      -0.260294 -0.308595  0.226244 -0.214638 -0.018897 -0.054289
     9 z      -0.059400 -0.017623 -0.165428  0.450676 -0.022478  0.087818
    10 x      -0.064293  0.222258  0.225488  0.084075 -0.185435  0.271281
    10 y      -0.260294 -0.308134  0.215729 -0.219834 -0.031156  0.242341
    10 z      -0.059400 -0.015843 -0.087101 -0.464938  0.218105  0.330724
    11 x      -0.064293 -0.078581  0.026377  0.064172  0.098374  0.261014
    11 y      -0.260294  0.280292  0.012647 -0.247898 -0.396357 -0.388961
    11 z      -0.059400  0.071545 -0.108951  0.004483 -0.048573  0.306424
    12 x      -0.064293 -0.124208 -0.096005 -0.025724 -0.230203 -0.165659
    12 y      -0.260294  0.203315 -0.141122 -0.034745  0.143207  0.075818
    12 z      -0.059400 -0.119504 -0.269823  0.004505 -0.098101 -0.276236


  Frequency     153.7180  155.9949  164.3063  165.9388  169.9971  174.9317
  IR Intensity    0.0068    0.0039    0.0041    0.0085    0.0011    0.0012
     in X         0.0051    0.0006    0.0011    0.0033    0.0008    0.0006
     in Y         0.0012    0.0003    0.0007    0.0005    0.0000    0.0001
     in Z         0.0005    0.0030    0.0024    0.0047    0.0003    0.0005
  Raman Intsty    0.0182    0.1948    0.0026    0.0209    0.0596    0.0023

     1 x       0.042652  0.084957  0.026319  0.020931 -0.040500 -0.086908
     1 y      -0.011107  0.019516 -0.031557 -0.006100 -0.031092  0.060820
     1 z       0.137567 -0.070850  0.002085  0.059043 -0.086622  0.024160
     2 x      -0.031057 -0.029793 -0.021144 -0.028553  0.023785  0.044426
     2 y       0.000805  0.029381  0.009206  0.050725 -0.012700 -0.176427
     2 z      -0.050142  0.028880 -0.015989 -0.000990 -0.025953  0.010507
     3 x      -0.006689 -0.040927 -0.007952  0.099953 -0.074787 -0.001062
     3 y       0.078339  0.026276 -0.039571  0.012045  0.014970  0.006118
     3 z      -0.017226 -0.022314 -0.036931  0.035718  0.084023  0.033810
     4 x      -0.248172 -0.434563 -0.099449  0.124498  0.059219  0.359702
     4 y      -0.024474  0.081419 -0.338102  0.184505  0.272892  0.175024
     4 z       0.012023  0.069985  0.259633 -0.167897 -0.203633 -0.257462
     5 x      -0.095284 -0.110111  0.181209 -0.021193 -0.043516 -0.143093
     5 y       0.157418  0.148112 -0.090135  0.030578  0.033461 -0.011989
     5 z      -0.022139 -0.140640 -0.034040 -0.159841 -0.262569  0.248553
     6 x      -0.116525  0.074492 -0.095481  0.070746 -0.076953 -0.130242
     6 y       0.073158  0.062402 -0.087609  0.042470 -0.004345  0.003624
     6 z       0.174006 -0.143614 -0.131610  0.530968  0.340278 -0.265679
     7 x      -0.035694 -0.052430  0.055487  0.136982 -0.116162  0.062633
     7 y       0.034241  0.122025 -0.180117 -0.199355 -0.218336 -0.087976
     7 z       0.138685  0.080798  0.003666 -0.058186  0.058373 -0.013820
     8 x       0.131556 -0.018422 -0.106363  0.040375 -0.164664 -0.164991
     8 y      -0.142720  0.019138  0.311205  0.160069  0.069933  0.322081
     8 z       0.030007 -0.033866 -0.034197 -0.001194 -0.032786 -0.023413
     9 x      -0.043226  0.404620  0.383371  0.152992  0.195465 -0.054760
     9 y       0.166753 -0.005902  0.080739  0.066311 -0.053215  0.024044
     9 z      -0.440078  0.040144 -0.213851 -0.064989  0.036783 -0.432691
    10 x       0.122730 -0.221338 -0.377361 -0.362442  0.079184  0.024346
    10 y      -0.141691 -0.026651 -0.107661 -0.142691  0.129753 -0.079178
    10 z      -0.478224  0.103840  0.110499 -0.050858  0.183765  0.229191
    11 x       0.164986 -0.005158  0.041307  0.153061 -0.166965 -0.014063
    11 y      -0.312478  0.057890  0.033993 -0.021886 -0.351614 -0.002647
    11 z       0.260568  0.143301  0.004275  0.129445 -0.333023  0.294034
    12 x       0.113782  0.345944  0.020590 -0.405044  0.343429  0.112358
    12 y       0.108718 -0.548012  0.451476 -0.187530  0.155817 -0.212511
    12 z       0.241500 -0.043344  0.096203 -0.269189  0.246837  0.139686


  Frequency     193.5991  201.4370  221.3033  228.3093  232.4018  249.7875
  IR Intensity    0.0066    0.0083    0.0128    0.0974    0.0396    0.1004
     in X         0.0003    0.0069    0.0036    0.0270    0.0212    0.0534
     in Y         0.0001    0.0004    0.0062    0.0000    0.0003    0.0018
     in Z         0.0062    0.0009    0.0030    0.0704    0.0181    0.0452
  Raman Intsty    0.1718    0.1422    0.0127    0.0045    0.0705    1.2676

     1 x      -0.035056 -0.125195 -0.015689 -0.112279  0.171484  0.130309
     1 y       0.093944 -0.021044  0.134497  0.089022 -0.093046 -0.080027
     1 z       0.102609 -0.163437  0.060658 -0.163300  0.063928 -0.052081
     2 x       0.122164  0.252646  0.054590 -0.030038 -0.098212  0.271767
     2 y      -0.190483  0.067157  0.126597  0.036108 -0.028738  0.034393
     2 z       0.002293 -0.052243  0.051931 -0.188938 -0.018161 -0.029999
     3 x      -0.001732 -0.051730 -0.007929 -0.121860  0.095590 -0.056131
     3 y       0.092302 -0.009930  0.089207  0.004399  0.091012  0.021151
     3 z       0.005330  0.204099  0.085526 -0.222129  0.012498 -0.200362
     4 x      -0.107050 -0.132520  0.166192  0.107277 -0.429831 -0.009424
     4 y      -0.206908  0.230112 -0.066319 -0.212619  0.139103 -0.085937
     4 z       0.265196 -0.002099  0.142731  0.102987 -0.175936 -0.111598
     5 x       0.151718 -0.084391  0.079265 -0.026340 -0.216139 -0.026947
     5 y       0.093426 -0.055593  0.279979  0.054129 -0.027559  0.073799
     5 z       0.051067  0.054921  0.066447  0.348116  0.580179 -0.006061
     6 x       0.007102  0.081441 -0.132398 -0.350318  0.251483 -0.044154
     6 y       0.178015 -0.047499  0.316753  0.161925 -0.016732 -0.120624
     6 z       0.214554 -0.148485 -0.316131  0.351231 -0.018879  0.081642
     7 x      -0.015136  0.152595  0.123696  0.164213  0.105605 -0.016935
     7 y       0.280996 -0.004988 -0.518265 -0.050966 -0.206248  0.106121
     7 z      -0.111927  0.178558  0.031675 -0.233095 -0.242992  0.253181
     8 x       0.025912  0.035556  0.128080  0.060271  0.125151  0.483731
     8 y       0.259651 -0.000070 -0.137123 -0.105653  0.115616  0.198614
     8 z       0.047954 -0.083389  0.099015 -0.241760 -0.012217 -0.150745
     9 x      -0.167383 -0.387008  0.013129 -0.026420  0.088564 -0.196398
     9 y      -0.059616  0.096952  0.147807 -0.117421 -0.108013  0.007479
     9 z      -0.307164  0.115796  0.097436  0.164777 -0.021110  0.070528
    10 x       0.091443 -0.360989 -0.113712 -0.111546  0.032839 -0.149260
    10 y      -0.124838 -0.256779 -0.020381  0.143627  0.115148 -0.127390
    10 z       0.205882  0.063505 -0.149842  0.047030  0.016140  0.129563
    11 x       0.000193  0.453689 -0.230323  0.193699 -0.082274 -0.515913
    11 y      -0.144381 -0.089284 -0.222700  0.032255 -0.115710 -0.113333
    11 z      -0.475191 -0.211560 -0.194236  0.132359 -0.147885  0.177480
    12 x      -0.088537  0.151394 -0.070837  0.303965 -0.076621  0.063057
    12 y      -0.271297  0.084030 -0.197182 -0.059630  0.141063  0.090446
    12 z      -0.021728  0.046555 -0.013176  0.012793 -0.046730 -0.107421


  Frequency     277.8794  283.4042  326.8295  351.8152  362.8643  376.5903
  IR Intensity    0.0335    0.0810    0.1018    0.0317    0.2535    0.0648
     in X         0.0015    0.0123    0.0466    0.0028    0.1491    0.0015
     in Y         0.0002    0.0002    0.0002    0.0112    0.1040    0.0177
     in Z         0.0318    0.0685    0.0550    0.0177    0.0003    0.0457
  Raman Intsty    0.3765    0.7119    0.0347    4.2963    1.1797    0.5501

     1 x       0.010187  0.167019 -0.015113  0.042649 -0.242421  0.038936
     1 y       0.065223  0.081893 -0.007528 -0.085202  0.285767 -0.098668
     1 z       0.139560 -0.003725 -0.071769  0.006526  0.019064 -0.177243
     2 x      -0.140073 -0.030612  0.203642 -0.076975 -0.018614 -0.192137
     2 y      -0.037333  0.011386  0.038393 -0.002375 -0.047686 -0.015202
     2 z      -0.155318  0.257300 -0.201789  0.143563 -0.032561 -0.044521
     3 x       0.000332  0.051332  0.131177 -0.044911 -0.374716  0.060193
     3 y      -0.072068 -0.092147 -0.060562 -0.102249  0.383349 -0.124205
     3 z       0.203925  0.113365 -0.107998  0.025252 -0.022656 -0.015585
     4 x      -0.021451 -0.194560 -0.250060 -0.008454 -0.008522 -0.002015
     4 y       0.141901  0.177768  0.041670 -0.015165 -0.129861  0.036775
     4 z      -0.024451 -0.179060 -0.279760 -0.040349 -0.175662  0.037670
     5 x       0.115489  0.296329  0.597798 -0.147515  0.262270 -0.022015
     5 y      -0.084714 -0.135834 -0.068591 -0.590658 -0.246573  0.189659
     5 z      -0.090739  0.099915  0.143862 -0.079671  0.044870  0.030761
     6 x      -0.307309 -0.602233  0.046338 -0.019235  0.221522 -0.027995
     6 y      -0.084866 -0.205405  0.277381  0.693682 -0.195701 -0.002673
     6 z      -0.136083  0.023419  0.027956 -0.014843  0.008649  0.007817
     7 x      -0.205110  0.171841 -0.127120 -0.079653 -0.252214 -0.320770
     7 y      -0.042659  0.088605 -0.037814 -0.001608 -0.140932 -0.088664
     7 z       0.082313 -0.092486  0.129727  0.058427 -0.100883 -0.229509
     8 x       0.533445 -0.026840 -0.245952  0.157009  0.183000  0.192520
     8 y       0.151373 -0.041119 -0.093783  0.067565  0.040482  0.057500
     8 z      -0.106693  0.143181 -0.071576 -0.021064  0.235219 -0.205297
     9 x       0.057510  0.016388 -0.063398  0.019136  0.048702  0.065904
     9 y      -0.310815  0.215098 -0.045250  0.068033  0.152601  0.444038
     9 z      -0.035163 -0.001195  0.036024 -0.007699  0.068286  0.191955
    10 x      -0.068505  0.072168 -0.067617  0.062443  0.047701  0.259825
    10 y       0.295922 -0.144417  0.010010 -0.079515 -0.040470 -0.411059
    10 z      -0.033034 -0.048921  0.041374  0.017945  0.006862  0.222146
    11 x       0.216524 -0.075771 -0.080473  0.003529  0.122719  0.102638
    11 y       0.091791  0.056557  0.027849  0.010037 -0.123263  0.078661
    11 z      -0.096619 -0.117390  0.142471  0.013514  0.101211 -0.000229
    12 x      -0.166213  0.118961 -0.190490  0.107161  0.132406 -0.137259
    12 y      -0.105289 -0.012601 -0.076082  0.073833 -0.056805 -0.020538
    12 z       0.216242 -0.264724  0.284599 -0.135202 -0.145472  0.227519


  Frequency     390.6081  422.0711  472.1304  477.2686  524.5763  539.0137
  IR Intensity    0.1506    0.5407    0.3258    0.3743    0.0162    0.1161
     in X         0.0299    0.3548    0.0416    0.0050    0.0140    0.0741
     in Y         0.1202    0.0481    0.0019    0.3640    0.0017    0.0134
     in Z         0.0004    0.1378    0.2823    0.0054    0.0005    0.0287
  Raman Intsty    0.0017    0.2118    0.3232    0.0258    0.3228    1.0597

     1 x       0.015521  0.184411 -0.220712  0.052198 -0.224578  0.628959
     1 y       0.357750  0.177044 -0.009958 -0.109062 -0.066631  0.121066
     1 z      -0.113005 -0.127068  0.501431 -0.121095 -0.499389  0.055914
     2 x      -0.128879  0.276626  0.278643  0.140530  0.148699  0.302653
     2 y      -0.090145  0.018251 -0.075191 -0.707261  0.120249  0.096699
     2 z       0.173305 -0.316109  0.188659  0.028424  0.643953  0.202324
     3 x       0.241175  0.419584  0.306955 -0.077211  0.148471 -0.494877
     3 y       0.323765  0.154767  0.024751 -0.099270 -0.015116 -0.000794
     3 z       0.015462 -0.133925 -0.016627  0.000271 -0.109778 -0.017914
     4 x      -0.017442 -0.029104 -0.033428  0.005855 -0.017567  0.062282
     4 y      -0.076512 -0.034067  0.009386  0.016575 -0.004062 -0.000473
     4 z       0.058385  0.122840  0.010764 -0.003341  0.022248  0.019245
     5 x      -0.088064 -0.326012 -0.008906 -0.006441  0.026764 -0.075619
     5 y      -0.359343 -0.202821  0.044195  0.063662  0.056512 -0.041442
     5 z      -0.057394 -0.007780  0.008078  0.005913  0.032658  0.000302
     6 x       0.027815 -0.228457 -0.032831  0.016441  0.025959 -0.017616
     6 y      -0.161102 -0.067277 -0.035306  0.062158 -0.010918 -0.024914
     6 z       0.016334  0.028425 -0.015439  0.012423  0.042714 -0.000148
     7 x       0.247999 -0.299624 -0.389316  0.015968 -0.191726 -0.199149
     7 y       0.047891 -0.104670 -0.113509  0.064154 -0.063523 -0.058333
     7 z       0.088033 -0.011325 -0.113513 -0.021008 -0.140227 -0.160433
     8 x      -0.036055 -0.078774 -0.089213  0.032251  0.137579 -0.160050
     8 y      -0.079925 -0.006164 -0.056496  0.055795  0.052611 -0.063196
     8 z      -0.453687  0.425626 -0.421555  0.097354  0.121749 -0.181195
     9 x       0.014831 -0.032463 -0.031349  0.009630 -0.018049 -0.041355
     9 y       0.140116  0.022080  0.067540  0.407360 -0.187602 -0.061982
     9 z       0.057240  0.059089  0.019715  0.138779 -0.146025 -0.037384
    10 x      -0.016593 -0.039186 -0.063280 -0.181264 -0.059155 -0.050950
    10 y       0.026632 -0.002835  0.069310  0.393617  0.096197  0.018964
    10 z      -0.048714  0.046871 -0.040037 -0.171443 -0.123393 -0.030450
    11 x      -0.137190  0.026968  0.044317  0.006927  0.043012  0.103686
    11 y      -0.107923  0.016744  0.035612  0.017197  0.028505  0.011338
    11 z      -0.035278  0.006049 -0.000041  0.000033  0.024812 -0.007407
    12 x      -0.147613 -0.042728  0.169195 -0.037021 -0.033322 -0.141660
    12 y      -0.134534 -0.038137  0.051242  0.010537 -0.013601 -0.038512
    12 z       0.284801  0.017901 -0.250495  0.051397  0.124012  0.111091




--------------------------------------------------------------------------------
  Vibrational properties (for cluster):  Temperature  =       0.000 K
--------------------------------------------------------------------------------
  Zero point energy            =        0.475492 eV
--------------------------------------------------------------------------------

  Phonon density of states : 

--------------------------------------------------------------------------------
 Frequency (cm-1) Density of States                                             
--------------------------------------------------------------------------------
    0.00000 |                                                              0.000
    8.42209 |                                                              0.000
   16.84418 |                                                              0.000
   25.26627 |********************                                          0.034
   33.68836 |                                                              0.000
   42.11045 |                                                              0.000
   50.53254 |                                                              0.000
   58.95463 |                                                              0.000
   67.37672 |                                                              0.000
   75.79881 |                                                              0.000
   84.22090 |                                                              0.000
   92.64299 |********************                                          0.034
  101.06508 |                                                              0.000
  109.48717 |                                                              0.000
  117.90926 |                                                              0.000
  126.33135 |                                                              0.000
  134.75344 |********************                                          0.034
  143.17553 |********************                                          0.034
  151.59761 |************************************************************  0.103
  160.01970 |****************************************                      0.069
  168.44179 |****************************************                      0.069
  176.86388 |                                                              0.000
  185.28597 |********************                                          0.034
  193.70806 |********************                                          0.034
  202.13015 |                                                              0.000
  210.55224 |                                                              0.000
  218.97433 |********************                                          0.034
  227.39642 |****************************************                      0.069
  235.81851 |                                                              0.000
  244.24060 |********************                                          0.034
  252.66269 |                                                              0.000
  261.08478 |                                                              0.000
  269.50687 |********************                                          0.034
  277.92896 |********************                                          0.034
  286.35105 |                                                              0.000
  294.77314 |                                                              0.000
  303.19523 |                                                              0.000
  311.61732 |                                                              0.000
  320.03941 |********************                                          0.034
  328.46150 |                                                              0.000
  336.88359 |                                                              0.000
  345.30568 |********************                                          0.034
  353.72777 |                                                              0.000
  362.14986 |********************                                          0.034
  370.57195 |********************                                          0.034
  378.99404 |                                                              0.000
  387.41613 |********************                                          0.034
  395.83822 |                                                              0.000
  404.26031 |                                                              0.000
  412.68240 |                                                              0.000
  421.10449 |********************                                          0.034
  429.52658 |                                                              0.000
  437.94867 |                                                              0.000
  446.37075 |                                                              0.000
  454.79284 |                                                              0.000
  463.21493 |                                                              0.000
  471.63702 |****************************************                      0.069
  480.05911 |                                                              0.000
  488.48120 |                                                              0.000
  496.90329 |                                                              0.000
  505.32538 |                                                              0.000
  513.74747 |                                                              0.000
  522.16956 |********************                                          0.034
  530.59165 |********************                                          0.034
--------------------------------------------------------------------------------



  XYZ File written as 003/3/sp_mod_60/sp_mod_60_eig.xyz


  Time to end of properties =       0.0126 seconds


  Peak dynamic memory used =       0.64 MB 


  Timing analysis for GULP :

--------------------------------------------------------------------------------
  Task / Subroutine                                          Time (Seconds)
--------------------------------------------------------------------------------
  Calculation of phonons                                          0.0039
--------------------------------------------------------------------------------
  Total CPU time                                                  0.0126
--------------------------------------------------------------------------------


  Job Finished at 10:32.06 17th May        2022                               

