********************************************************************************
*                       GENERAL UTILITY LATTICE PROGRAM                        *
*                                 Julian Gale                                  *
*                       Curtin Institute for Computation                       *
*                           Department of Chemistry                            *
*                    Curtin University, Western Australia                      *
********************************************************************************
* Version = 5.1.1 * Last modified =  11th January 2019                         *
********************************************************************************
*  single       - perform a single point run                                   *
*  phonon       - calculate phonons for final geometry                         *
*  eigenvectors - output phonon eigenvectors                                   *
********************************************************************************

  Job Started  at 10:33.29 17th May        2022                               

  Number of CPUs =     1

  Host name      = login04                                 


  Total number of configurations input =      1

********************************************************************************
*  Input for Configuration =   1                                               *
********************************************************************************

  Formula = Al3F9                                                       

  Number of irreducible atoms/shells =      21


  Total number atoms/shells =      21

  Dimensionality = 0               :  Cluster


  Charge on cluster =  -0.000000


  Initial cluster dipoles : x =      0.815954 e.Angs
                            y =      0.178022 e.Angs
                            z =     -0.712739 e.Angs

  Temperature of configuration =  0.000     K 

  Symmetry number =      1

  Cartesian coordinates of cluster :

--------------------------------------------------------------------------------
   No.  Atomic       x           y          z         Charge      Occupancy
        Label      (Angs)      (Angs)     (Angs)        (e)         (Frac)  
--------------------------------------------------------------------------------
      1 Al    c     -0.1416      1.8033      2.1773     3.00000    1.000000    
      2 Al    c      2.5012      2.6630      1.7876     3.00000    1.000000    
      3 Al    c      1.4555      2.4207     -0.6909     3.00000    1.000000    
      4 F     c      0.9448      3.2871      2.7355     0.59000    1.000000    
      5 F     c     -1.6143      2.8498      2.0145     0.59000    1.000000    
      6 F     c     -0.6007      0.1846      2.9418     0.59000    1.000000    
      7 F     c      1.7517      0.9467      2.1185     0.59000    1.000000    
      8 F     c      3.0085      1.6889      0.0485     0.59000    1.000000    
      9 F     c      1.2487      2.6380     -2.4854     0.59000    1.000000    
     10 F     c      1.7995      3.9479      0.4603     0.59000    1.000000    
     11 F     c      4.0707      3.2228      2.4859     0.59000    1.000000    
     12 F     c      0.0208      1.7172      0.2153     0.59000    1.000000    
     13 F     s      0.9448      3.2871      2.7355    -1.59000    1.000000    
     14 F     s     -1.6143      2.8498      2.0145    -1.59000    1.000000    
     15 F     s     -0.6007      0.1846      2.9418    -1.59000    1.000000    
     16 F     s      1.7517      0.9467      2.1185    -1.59000    1.000000    
     17 F     s      3.0085      1.6889      0.0485    -1.59000    1.000000    
     18 F     s      1.2487      2.6380     -2.4854    -1.59000    1.000000    
     19 F     s      1.7995      3.9479      0.4603    -1.59000    1.000000    
     20 F     s      4.0707      3.2228      2.4859    -1.59000    1.000000    
     21 F     s      0.0208      1.7172      0.2153    -1.59000    1.000000    
--------------------------------------------------------------------------------


  Brillouin zone sampling points :

--------------------------------------------------------------------------------
  Point number          x          y          z            Weight
--------------------------------------------------------------------------------
        1           0.000000   0.000000   0.000000     1.00000000
--------------------------------------------------------------------------------


********************************************************************************
*  General input information                                                   *
********************************************************************************

  Species output for all configurations : 

--------------------------------------------------------------------------------
  Species    Type    Atomic    Atomic    Charge       Radii (Angs)     Library
                     Number     Mass       (e)     Cova   Ionic  VDW   Symbol
--------------------------------------------------------------------------------
    Al       Core       13      26.98   3.000000   1.350  0.000  2.050          
    F        Core        9      19.00   0.590000   0.710  0.000  1.300          
    F        Shell       9       0.00  -1.590000   0.710  0.000  1.300          
--------------------------------------------------------------------------------


  Accuracy factor for short range sums = 12.000

  Time limit = Infinity

  Maximum range for interatomic potentials =    100000.000000 Angstroms

  General interatomic potentials :

--------------------------------------------------------------------------------
Atom  Types   Potential      Parameter       Value         Units   Cutoffs(Ang)
  1     2                                                            Min /  Max 
--------------------------------------------------------------------------------
Al   c F    s Buckingham    Buckingham A     3760.0008    eV        0.000 10.000
                            Buckingham rho  0.22200000    Ang       
                            Buckingham C     0.0000000    eV*Ang^6  
--------------------------------------------------------------------------------
F    s F    s Buck 4 range  Buck4 A          1127.7000    eV        0.000 12.000
                            Buck4 rho       0.27530000    Ang       
                            Buck4 C          15.830000    eV*Ang^6  
                            Buck4 minimum    2.7900000    Ang       
--------------------------------------------------------------------------------
F    c F    s Spring (c-s)  Spring k 2       20.770000    eV*Ang^-2 0.000  0.800
                            Spring k 4       0.0000000    eV*Ang^-4 
--------------------------------------------------------------------------------

********************************************************************************
*  Output for configuration   1                                                *
********************************************************************************


  Components of energy : 

--------------------------------------------------------------------------------
  Interatomic potentials     =           9.99205256 eV    
  Monopole - monopole (real) =        -177.62053193 eV    
--------------------------------------------------------------------------------
  Total lattice energy       =        -167.62847936 eV    
--------------------------------------------------------------------------------
  Total lattice energy       =          -16173.5858 kJ/mol
--------------------------------------------------------------------------------

  Born effective charge tensors : 

-------------------------------------------------------------------------------
  Atom             x           y             z
-------------------------------------------------------------------------------
    1 Al    x       2.3956     -0.0132     -0.1452
            y      -0.0161      2.2477     -0.2110
            z      -0.0500     -0.1267      2.0956
-------------------------------------------------------------------------------
    2 Al    x       2.3130      0.0471     -0.1837
            y       0.0491      2.1434     -0.0124
            z      -0.1076     -0.0087      2.3783
-------------------------------------------------------------------------------
    3 Al    x       2.0534      0.1127      0.1535
            y       0.0888      1.8577      0.0258
            z       0.0010     -0.0732      2.4886
-------------------------------------------------------------------------------
    4 F     x      -0.8370     -0.0718      0.1224
            y      -0.0542     -0.6698     -0.2140
            z       0.1625     -0.1975     -0.5996
-------------------------------------------------------------------------------
    5 F     x      -1.0206      0.2907     -0.0066
            y       0.2046     -0.6387      0.0521
            z       0.0991     -0.0262     -0.5477
-------------------------------------------------------------------------------
    6 F     x      -0.6325     -0.2963      0.1544
            y      -0.2058     -1.1089      0.2933
            z       0.1227      0.3505     -0.6949
-------------------------------------------------------------------------------
    7 F     x      -0.8475      0.0565      0.0173
            y       0.0147     -0.8791      0.1214
            z       0.0672      0.1763     -0.5093
-------------------------------------------------------------------------------
    8 F     x      -0.7559      0.2214      0.0713
            y       0.2446     -0.5682     -0.1472
            z       0.0274     -0.1980     -0.8617
-------------------------------------------------------------------------------
    9 F     x      -0.5091     -0.0020     -0.0567
            y       0.0027     -0.5012      0.0788
            z      -0.0829      0.0967     -1.2952
-------------------------------------------------------------------------------
   10 F     x      -0.4416      0.0213     -0.0896
            y       0.0045     -0.9779      0.0400
            z      -0.1587      0.0391     -0.7687
-------------------------------------------------------------------------------
   11 F     x      -1.0407     -0.2052     -0.2477
            y      -0.2023     -0.5398     -0.0784
            z      -0.2629     -0.0851     -0.6371
-------------------------------------------------------------------------------
   12 F     x      -0.6772     -0.1611      0.2106
            y      -0.1305     -0.3654      0.0515
            z       0.1819      0.0529     -1.0484
-------------------------------------------------------------------------------




  Moment of inertia tensor (10^-46 x kgm^2): 

-------------------------------------------------------------------------------
                x           y           z           Principal axis system
-------------------------------------------------------------------------------
       x        140.06      -19.44       14.58          116.086459
       y        -19.44      194.70       11.64          150.778490
       z         14.58       11.64      133.71          201.606832
-------------------------------------------------------------------------------
  Centre of mass (Ang) =     1.210199     2.282252     1.145095
-------------------------------------------------------------------------------


  Vibrational Frequency Calculation : 

--------------------------------------------------------------------------------

  Frequencies (cm-1) and Eigenvectors : 

  Frequency    -372.4901 -249.0785 -234.5386   -0.0000   -0.0000    0.0000
  IR Intensity    0.0037    0.0051    0.0043    0.0000    0.0000    0.0000
     in X         0.0013    0.0027    0.0031    0.0000    0.0000    0.0000
     in Y         0.0012    0.0013    0.0004    0.0000    0.0000    0.0000
     in Z         0.0012    0.0011    0.0009    0.0000    0.0000    0.0000
  Raman Intsty    0.0015    0.0179    0.1316    0.0000    0.0000    0.0000

     1 x      -0.092187  0.311084  0.197472  0.273151 -0.179950 -0.009762
     1 y       0.264240  0.058481 -0.554244 -0.180158 -0.273109 -0.006601
     1 z       0.050402  0.498457 -0.125787 -0.004517  0.010884 -0.327032
     2 x       0.292898  0.211364 -0.029388  0.273151 -0.179950 -0.009762
     2 y      -0.709935  0.108474  0.097421 -0.180158 -0.273109 -0.006601
     2 z      -0.131200 -0.451424  0.043305 -0.004517  0.010884 -0.327032
     3 x      -0.176523 -0.463157 -0.116717  0.273151 -0.179950 -0.009762
     3 y       0.433663 -0.205505  0.505899 -0.180158 -0.273109 -0.006601
     3 z       0.057713 -0.054539  0.046343 -0.004517  0.010884 -0.327032
     4 x       0.023597  0.069024  0.123734  0.229223 -0.151011 -0.008192
     4 y      -0.069094  0.050205 -0.025563 -0.151185 -0.229188 -0.005539
     4 z      -0.081685  0.056545 -0.113036 -0.003790  0.009134 -0.274439
     5 x      -0.094704  0.134453  0.208580  0.229223 -0.151011 -0.008192
     5 y       0.055573 -0.101861 -0.164228 -0.151185 -0.229188 -0.005539
     5 z      -0.009965  0.005158  0.051706 -0.003790  0.009134 -0.274439
     6 x       0.035003  0.005256 -0.084526  0.229223 -0.151011 -0.008192
     6 y       0.080013 -0.033326 -0.260346 -0.151185 -0.229188 -0.005539
     6 z      -0.025818  0.141601  0.045743 -0.003790  0.009134 -0.274439
     7 x       0.061085 -0.102446 -0.133208  0.229223 -0.151011 -0.008192
     7 y      -0.133270  0.090872 -0.066327 -0.151185 -0.229188 -0.005539
     7 z       0.060223 -0.029096  0.030165 -0.003790  0.009134 -0.274439
     8 x      -0.013478 -0.071280 -0.111504  0.229223 -0.151011 -0.008192
     8 y       0.079848  0.078220  0.157560 -0.151185 -0.229188 -0.005539
     8 z       0.098848  0.056437  0.192699 -0.003790  0.009134 -0.274439
     9 x      -0.012326 -0.061899 -0.020901  0.229223 -0.151011 -0.008192
     9 y       0.033738 -0.030018  0.108456 -0.151185 -0.229188 -0.005539
     9 z       0.002121 -0.046290  0.001406 -0.003790  0.009134 -0.274439
    10 x      -0.065146 -0.016578 -0.072505  0.229223 -0.151011 -0.008192
    10 y       0.016130  0.003450  0.198077 -0.151185 -0.229188 -0.005539
    10 z      -0.057611  0.007333 -0.132690 -0.003790  0.009134 -0.274439
    11 x       0.017200  0.057260  0.005548  0.229223 -0.151011 -0.008192
    11 y      -0.056328  0.019365  0.020355 -0.151185 -0.229188 -0.005539
    11 z      -0.009061 -0.062997  0.007674 -0.003790  0.009134 -0.274439
    12 x       0.019945 -0.084443  0.023571  0.229223 -0.151011 -0.008192
    12 y       0.007728 -0.030970 -0.026466 -0.151185 -0.229188 -0.005539
    12 z       0.050460 -0.119747 -0.040602 -0.003790  0.009134 -0.274439


  Frequency     122.4768  130.6795  139.1011  142.8298  148.7383  150.7540
  IR Intensity    0.0040    0.0042    0.0029    0.0041    0.0005    0.0010
     in X         0.0011    0.0003    0.0011    0.0029    0.0002    0.0002
     in Y         0.0008    0.0003    0.0011    0.0000    0.0003    0.0000
     in Z         0.0022    0.0036    0.0007    0.0012    0.0000    0.0008
  Raman Intsty    0.0371    0.0012    0.0316    0.0003    0.0895    0.0101

     1 x      -0.023755 -0.046209  0.034223 -0.013928  0.008579 -0.043808
     1 y       0.014093 -0.030380 -0.040269  0.031294 -0.011162 -0.010203
     1 z      -0.141891  0.108693 -0.035820 -0.051936 -0.030253  0.012068
     2 x       0.125873 -0.066927  0.041084  0.103316  0.025038  0.003943
     2 y       0.130701  0.064387  0.006429  0.001117  0.017608  0.000790
     2 z       0.004460 -0.114507  0.023628  0.001709  0.032285 -0.048597
     3 x      -0.137829  0.055334 -0.086373 -0.002002 -0.041001  0.038662
     3 y      -0.137317 -0.037306  0.056417 -0.061151 -0.024321 -0.010634
     3 z       0.134432 -0.071041  0.038002  0.072831 -0.002738  0.031957
     4 x       0.083845 -0.103440  0.057166  0.052567 -0.073154 -0.061306
     4 y      -0.100263  0.004528 -0.087771  0.065092 -0.021343 -0.180573
     4 z      -0.040427 -0.345236  0.165958 -0.082878 -0.176718  0.248814
     5 x       0.102731 -0.259692 -0.031966 -0.046731 -0.104910 -0.197263
     5 y       0.243670 -0.241909 -0.071938  0.050023 -0.182795 -0.254282
     5 z      -0.193055  0.346920  0.308658  0.390026 -0.147376 -0.030674
     6 x      -0.135291  0.104392  0.360095 -0.112280  0.258462  0.065584
     6 y       0.026355  0.022502 -0.202731 -0.165818  0.070281 -0.135530
     6 z      -0.365685  0.171315 -0.209561 -0.360613  0.209490 -0.137431
     7 x       0.214739  0.241924  0.191526 -0.149294  0.090872  0.016037
     7 y      -0.083993 -0.131485  0.035843  0.054036 -0.050266 -0.028498
     7 z       0.195796  0.216062 -0.177756 -0.159901 -0.268238 -0.115383
     8 x      -0.026528 -0.114326  0.073973  0.104628  0.212950  0.185990
     8 y       0.194098 -0.017111 -0.018101  0.137009  0.349308  0.318896
     8 z       0.176300 -0.017904 -0.313733  0.113871 -0.088975  0.070579
     9 x      -0.297971 -0.027029 -0.518668  0.069466 -0.181972  0.467136
     9 y      -0.336229 -0.211355  0.305134 -0.377934 -0.210304 -0.058250
     9 z       0.156065 -0.065339  0.114182  0.048780 -0.010707 -0.007752
    10 x      -0.060822  0.156203 -0.091514  0.130583  0.051773 -0.387460
    10 y       0.105219  0.175297 -0.127580  0.071733  0.114474 -0.033808
    10 z      -0.002676 -0.198305  0.103372 -0.043523 -0.050261  0.205815
    11 x       0.121337 -0.062704  0.065088  0.149264 -0.227070 -0.063578
    11 y       0.264201  0.263025  0.088050 -0.233551  0.031493  0.369347
    11 z      -0.053150 -0.277974 -0.108618  0.102329  0.598816 -0.183880
    12 x       0.040516  0.133552 -0.092512 -0.302337 -0.018151 -0.023705
    12 y      -0.321966  0.140438  0.052191  0.433659 -0.079548  0.026586
    12 z       0.130407  0.262044  0.086743 -0.035026 -0.065190 -0.044639


  Frequency     153.0582  166.4716  174.3372  177.3655  188.4946  203.5770
  IR Intensity    0.0040    0.0005    0.0039    0.0070    0.0028    0.0173
     in X         0.0037    0.0002    0.0003    0.0054    0.0015    0.0152
     in Y         0.0002    0.0000    0.0017    0.0009    0.0011    0.0018
     in Z         0.0000    0.0003    0.0019    0.0007    0.0002    0.0003
  Raman Intsty    0.0002    0.0114    0.0304    0.0068    0.0202    0.0219

     1 x      -0.013520 -0.090383 -0.031246 -0.017620  0.065045 -0.085046
     1 y      -0.052261 -0.031633 -0.047550 -0.048276 -0.011759 -0.027841
     1 z      -0.020890 -0.071841  0.077652 -0.117237  0.014565 -0.054851
     2 x      -0.105344  0.035194  0.030509  0.149262 -0.032495 -0.025338
     2 y      -0.021787  0.076292  0.033184 -0.100419 -0.034431  0.081793
     2 z       0.018038  0.031891 -0.103135  0.065391  0.033941 -0.012596
     3 x       0.035751  0.035452 -0.019187  0.008890  0.053069 -0.169704
     3 y       0.009077 -0.019036 -0.107087 -0.001384  0.123281 -0.120820
     3 z      -0.069212  0.113299 -0.022291  0.187818 -0.057722  0.110517
     4 x       0.242945 -0.098381  0.068583  0.002796  0.015599 -0.100523
     4 y      -0.250767 -0.045475 -0.424759  0.085519 -0.131476 -0.139389
     4 z       0.153186 -0.011181  0.088091 -0.154559  0.314870 -0.198916
     5 x       0.268007 -0.206154 -0.060191  0.003614  0.019533  0.027862
     5 y       0.385954 -0.183940 -0.045865  0.007251 -0.091952  0.294273
     5 z       0.233140 -0.203851 -0.034902 -0.065289 -0.476545 -0.147113
     6 x      -0.044813 -0.053713 -0.402782 -0.019287  0.181588  0.498979
     6 y       0.241393  0.150649  0.103162  0.015740 -0.099636 -0.142625
     6 z       0.393148  0.287077 -0.134048  0.233167  0.033090  0.045623
     7 x       0.024537 -0.038163  0.113256 -0.244496  0.002207  0.164930
     7 y      -0.248011 -0.012100 -0.345749  0.041066  0.022523 -0.134856
     7 z      -0.270323 -0.129934 -0.140514 -0.240100  0.130681 -0.070148
     8 x       0.011610  0.137273 -0.028076  0.142745 -0.164010 -0.325482
     8 y       0.080893  0.293581  0.041323 -0.252626 -0.159005 -0.069145
     8 z      -0.116261  0.052317 -0.001640  0.155091  0.054652  0.108465
     9 x      -0.042381 -0.170349  0.023281 -0.063258 -0.240142  0.329714
     9 y      -0.252276  0.038682  0.387736 -0.028153 -0.314304  0.154039
     9 z      -0.108338  0.185824  0.056891  0.236616 -0.111062  0.154105
    10 x      -0.252044  0.081741  0.410913  0.256551  0.107908  0.005951
    10 y       0.004332  0.144193  0.135728 -0.236167  0.071776  0.177988
    10 z      -0.068998  0.132004  0.056769 -0.052424  0.129409  0.017470
    11 x      -0.047815  0.406179 -0.092291  0.020168 -0.041162  0.049227
    11 y       0.021699 -0.388834  0.109868  0.547345  0.072489 -0.098187
    11 z      -0.161322 -0.413351  0.145381 -0.140170 -0.048931  0.000982
    12 x      -0.061006 -0.034913 -0.008950 -0.266297  0.016451 -0.316895
    12 y       0.094205 -0.027289  0.183283 -0.001137  0.537721  0.037584
    12 z       0.031644  0.013688  0.020900 -0.134360 -0.015181  0.038208


  Frequency     219.8075  223.5948  247.2386  249.7334  271.2831  290.3924
  IR Intensity    0.0058    0.0039    0.0116    0.0295    0.0140    0.0700
     in X         0.0033    0.0020    0.0051    0.0139    0.0010    0.0043
     in Y         0.0000    0.0016    0.0057    0.0051    0.0008    0.0076
     in Z         0.0024    0.0003    0.0007    0.0105    0.0122    0.0580
  Raman Intsty    0.0011    0.3414    0.3912    0.1221    0.4165    1.6176

     1 x       0.118742  0.023363 -0.109575  0.006934  0.052237 -0.152932
     1 y      -0.037289 -0.087027 -0.044170 -0.172413 -0.032250  0.014367
     1 z      -0.160458  0.151704 -0.115567  0.025374  0.091845 -0.117306
     2 x       0.168567 -0.082193 -0.013231  0.058838  0.009981  0.222907
     2 y       0.097268 -0.078425 -0.058134  0.026722 -0.080770  0.104320
     2 z       0.000132 -0.104736  0.055105  0.051712  0.124608 -0.086110
     3 x       0.012809  0.100764 -0.016753 -0.266340  0.089853 -0.003144
     3 y      -0.098298 -0.157631 -0.100097  0.214026  0.035326 -0.015530
     3 z       0.012957  0.015817 -0.103339  0.125782 -0.085507 -0.143969
     4 x       0.156049 -0.160705  0.073032 -0.083316 -0.316850 -0.056424
     4 y       0.018588  0.081686 -0.178131  0.038876  0.045172 -0.202663
     4 z      -0.219983 -0.304468  0.152782 -0.047924 -0.277979 -0.036898
     5 x      -0.055848  0.185839 -0.001002  0.044486  0.183617 -0.236310
     5 y      -0.259014  0.248513  0.026843  0.018503  0.065560  0.222170
     5 z      -0.047318 -0.210957  0.089854 -0.129327  0.150753  0.026458
     6 x      -0.133956 -0.072572  0.100422 -0.224690 -0.043911 -0.082293
     6 y       0.327661 -0.273692  0.005437  0.023894  0.016029 -0.348356
     6 z       0.038487  0.042278  0.132283  0.055800 -0.020503  0.238654
     7 x       0.258016 -0.034427  0.038499  0.182823  0.103433 -0.174991
     7 y      -0.070534 -0.125615  0.093521  0.101709 -0.159059  0.093943
     7 z       0.130695  0.159494  0.585257  0.123281  0.039546 -0.001626
     8 x      -0.058484  0.383423  0.171373  0.036960 -0.060030 -0.040927
     8 y      -0.204034  0.210122  0.270101 -0.003259  0.029974 -0.025973
     8 z       0.103691  0.020843 -0.014715 -0.670379  0.022260  0.003474
     9 x      -0.040334 -0.098097 -0.021546  0.257400 -0.112000 -0.035101
     9 y       0.122145  0.183957  0.113601 -0.189537 -0.030628  0.055790
     9 z       0.045354  0.114873 -0.158617  0.070040 -0.255394 -0.334415
    10 x      -0.498332 -0.158688  0.170468  0.116719  0.027630 -0.063931
    10 y      -0.165250 -0.222205 -0.087468 -0.129274  0.064582 -0.071412
    10 z      -0.016925 -0.031145 -0.227776  0.140546  0.630535  0.054053
    11 x       0.194033 -0.171431  0.013506  0.093704  0.076431  0.458637
    11 y      -0.009385 -0.046120  0.026994  0.026928  0.090767  0.151261
    11 z       0.209336 -0.076691 -0.016612  0.033294 -0.040251  0.270660
    12 x      -0.178776  0.076688 -0.378450 -0.185080 -0.039533  0.151701
    12 y       0.285484  0.328350 -0.029710  0.030730 -0.029814  0.002312
    12 z      -0.067727  0.210955 -0.347264  0.182924 -0.405008  0.193598


  Frequency     307.8421  315.8351  337.7439  351.0897  364.8618  377.1719
  IR Intensity    0.1497    0.1278    0.0470    0.1769    0.0855    0.2255
     in X         0.0458    0.0040    0.0004    0.0117    0.0000    0.0348
     in Y         0.0070    0.0155    0.0078    0.0457    0.0254    0.1577
     in Z         0.0969    0.1083    0.0388    0.1195    0.0601    0.0330
  Raman Intsty    0.6931    2.4710    1.8941    0.3572    0.0256    0.1179

     1 x       0.039190  0.092786 -0.068827  0.076600 -0.014841  0.086235
     1 y       0.057769 -0.149290 -0.021047 -0.105435  0.006298 -0.095139
     1 z      -0.166570 -0.212947  0.280149  0.157918  0.143106 -0.305619
     2 x       0.098555 -0.007569  0.027738 -0.057318 -0.021611  0.154054
     2 y       0.023537  0.175710  0.054726 -0.076316  0.147085 -0.312950
     2 z      -0.337220 -0.311581  0.019448  0.205596  0.032768  0.001941
     3 x       0.175059 -0.094959  0.108120 -0.114991 -0.028266  0.017752
     3 y       0.027262  0.217894  0.150161 -0.062834  0.146579 -0.308222
     3 z      -0.006279 -0.017123  0.026396  0.077191  0.119864 -0.019937
     4 x       0.061545 -0.352844 -0.369972 -0.288678  0.387531 -0.139748
     4 y      -0.325721 -0.168831 -0.059503 -0.424198 -0.159849  0.054741
     4 z      -0.125566  0.098370  0.162007 -0.145604 -0.228640  0.087060
     5 x      -0.053834 -0.051881 -0.010811  0.178712 -0.207893  0.241657
     5 y       0.070834  0.125872  0.097968 -0.054896  0.053940 -0.095524
     5 z       0.108668  0.129711 -0.023726  0.008962 -0.097908  0.038916
     6 x      -0.031594  0.081650 -0.195317  0.183030 -0.001129 -0.166502
     6 y      -0.080752  0.252331 -0.193095  0.376494 -0.012457 -0.031339
     6 z       0.113407 -0.018170  0.051837 -0.228497 -0.043021  0.132073
     7 x      -0.161476  0.164353  0.437905 -0.344869  0.081284  0.193375
     7 y       0.242042  0.149416  0.118349  0.196338  0.184335  0.445068
     7 z       0.196369 -0.030614 -0.147721  0.035419 -0.030732 -0.118610
     8 x       0.054108  0.014901  0.228501  0.182551  0.326827 -0.109869
     8 y      -0.168992  0.032220 -0.271934 -0.112918 -0.213690  0.081802
     8 z      -0.179139  0.299966  0.091970 -0.057740  0.162907  0.091997
     9 x      -0.020876  0.023762 -0.038759  0.011661 -0.029247 -0.011587
     9 y      -0.077697 -0.078005 -0.044990  0.032173  0.008053  0.105216
     9 z       0.456605  0.011006  0.043751 -0.104945 -0.384920 -0.161215
    10 x      -0.123450  0.162806 -0.128713 -0.079523  0.022880  0.004834
    10 y       0.283650 -0.486470  0.207192  0.154458  0.053971  0.248512
    10 z       0.208276  0.080927 -0.346909 -0.156856  0.224482  0.072777
    11 x      -0.211352 -0.133450  0.084655  0.178278 -0.260401 -0.187213
    11 y      -0.059149 -0.139456 -0.022781  0.069449 -0.137070  0.023332
    11 z       0.035854  0.011654  0.018086  0.009267 -0.128216 -0.056643
    12 x       0.114180  0.102313 -0.087366  0.092889 -0.242732 -0.132439
    12 y      -0.013589  0.021788 -0.050277  0.054556 -0.134680  0.021774
    12 z      -0.206657  0.062601 -0.237761  0.114836  0.173635  0.299277


  Frequency     392.8344  451.9485  454.4077  469.2138  518.3975  603.2502
  IR Intensity    0.1212    0.4406    0.4919    0.3004    0.1745    0.0391
     in X         0.0006    0.0624    0.4907    0.1280    0.0203    0.0128
     in Y         0.0129    0.3764    0.0001    0.0736    0.0001    0.0076
     in Z         0.1077    0.0018    0.0011    0.0988    0.1541    0.0187
  Raman Intsty    2.4534    0.0156    0.1659    0.1590    0.0214    1.8148

     1 x       0.006315 -0.290387 -0.390105 -0.399828  0.407730 -0.278583
     1 y      -0.177233 -0.558163  0.056717  0.195162  0.137914 -0.088580
     1 z      -0.222889  0.266404 -0.194833  0.054095 -0.076754  0.133145
     2 x       0.119214 -0.142352 -0.131564 -0.234070 -0.418242  0.531876
     2 y       0.029322 -0.250065  0.014696  0.064967 -0.156634  0.177243
     2 z      -0.245957 -0.194483  0.092134 -0.333453  0.151121  0.316847
     3 x      -0.109871  0.109443 -0.553194  0.189006 -0.204506 -0.058217
     3 y      -0.022822 -0.085126 -0.099241  0.178691  0.041482  0.052910
     3 z      -0.057728 -0.144451  0.060604 -0.140022 -0.561222 -0.587758
     4 x      -0.166190  0.225150  0.147059  0.020344  0.043815 -0.028454
     4 y       0.327032  0.174016  0.032472 -0.046609 -0.037499 -0.017116
     4 z       0.278263  0.011516 -0.037354 -0.029835 -0.035550 -0.019832
     5 x      -0.060830 -0.188355  0.181942  0.487783 -0.139928  0.074467
     5 y       0.064587  0.189008 -0.094882 -0.313727  0.054539 -0.033631
     5 z       0.038306 -0.040367  0.072261 -0.011364 -0.007496 -0.011663
     6 x       0.112267  0.081720  0.007675  0.029065 -0.056392  0.035625
     6 y       0.141871  0.217739 -0.079330 -0.011885 -0.059682  0.041089
     6 z      -0.021769 -0.104976  0.085533 -0.014548  0.029592 -0.030688
     7 x      -0.150784  0.086322  0.162063 -0.009456  0.081015 -0.061205
     7 y      -0.391294  0.247224  0.072633  0.004673  0.040677 -0.004449
     7 z       0.139351 -0.053105 -0.018457  0.004001 -0.014931 -0.013773
     8 x       0.379026 -0.041275  0.234217  0.041943  0.166578 -0.005016
     8 y      -0.260723  0.048294 -0.124157 -0.030032 -0.050613 -0.002766
     8 z      -0.008949  0.036977  0.098390  0.072450  0.122292  0.047161
     9 x       0.008880 -0.008927  0.075331 -0.012585  0.044710  0.019338
     9 y       0.022108  0.007347  0.007768 -0.031301 -0.026257 -0.022071
     9 z      -0.091135  0.107070  0.011390  0.053369  0.244992  0.189231
    10 x      -0.022714  0.012687  0.044472  0.031601  0.041018 -0.018807
    10 y       0.329146  0.040685  0.043633 -0.032605  0.040344 -0.047969
    10 z       0.093689  0.100249  0.070178  0.080582  0.084164  0.017739
    11 x      -0.005137  0.158162  0.014995  0.194404  0.182299 -0.217094
    11 y       0.006493  0.097449 -0.010225  0.042920  0.063609 -0.075994
    11 z       0.048654  0.094552 -0.022743  0.118366  0.042263 -0.102906
    12 x      -0.113178  0.059765  0.413092 -0.252948 -0.106893 -0.031315
    12 y      -0.035768  0.042792  0.185250 -0.104349 -0.052243 -0.005797
    12 z       0.151076 -0.065486 -0.209036  0.226729  0.114829  0.088896




--------------------------------------------------------------------------------
  Vibrational properties (for cluster):  Temperature  =       0.000 K
--------------------------------------------------------------------------------
  Zero point energy            =        0.517298 eV
--------------------------------------------------------------------------------

  Phonon density of states : 

--------------------------------------------------------------------------------
 Frequency (cm-1) Density of States                                             
--------------------------------------------------------------------------------
    0.00000 |********************                                          0.032
    9.42579 |                                                              0.000
   18.85157 |                                                              0.000
   28.27736 |                                                              0.000
   37.70314 |                                                              0.000
   47.12893 |                                                              0.000
   56.55471 |                                                              0.000
   65.98050 |                                                              0.000
   75.40628 |                                                              0.000
   84.83207 |                                                              0.000
   94.25785 |                                                              0.000
  103.68364 |                                                              0.000
  113.10943 |********************                                          0.032
  122.53521 |********************                                          0.032
  131.96100 |********************                                          0.032
  141.38678 |************************************************************  0.097
  150.81257 |********************                                          0.032
  160.23835 |********************                                          0.032
  169.66414 |****************************************                      0.065
  179.08992 |********************                                          0.032
  188.51571 |                                                              0.000
  197.94149 |********************                                          0.032
  207.36728 |                                                              0.000
  216.79307 |****************************************                      0.065
  226.21885 |                                                              0.000
  235.64464 |                                                              0.000
  245.07042 |****************************************                      0.065
  254.49621 |                                                              0.000
  263.92199 |********************                                          0.032
  273.34778 |                                                              0.000
  282.77356 |********************                                          0.032
  292.19935 |                                                              0.000
  301.62513 |********************                                          0.032
  311.05092 |********************                                          0.032
  320.47671 |                                                              0.000
  329.90249 |********************                                          0.032
  339.32828 |                                                              0.000
  348.75406 |********************                                          0.032
  358.17985 |********************                                          0.032
  367.60563 |                                                              0.000
  377.03142 |********************                                          0.032
  386.45720 |********************                                          0.032
  395.88299 |                                                              0.000
  405.30877 |                                                              0.000
  414.73456 |                                                              0.000
  424.16035 |                                                              0.000
  433.58613 |                                                              0.000
  443.01192 |********************                                          0.032
  452.43770 |********************                                          0.032
  461.86349 |********************                                          0.032
  471.28927 |                                                              0.000
  480.71506 |                                                              0.000
  490.14084 |                                                              0.000
  499.56663 |                                                              0.000
  508.99241 |********************                                          0.032
  518.41820 |                                                              0.000
  527.84399 |                                                              0.000
  537.26977 |                                                              0.000
  546.69556 |                                                              0.000
  556.12134 |                                                              0.000
  565.54713 |                                                              0.000
  574.97291 |                                                              0.000
  584.39870 |                                                              0.000
  593.82448 |********************                                          0.032
--------------------------------------------------------------------------------



  XYZ File written as 004/0/sp_mod_80/sp_mod_80_eig.xyz


  Time to end of properties =       0.0120 seconds


  Peak dynamic memory used =       0.64 MB 


  Timing analysis for GULP :

--------------------------------------------------------------------------------
  Task / Subroutine                                          Time (Seconds)
--------------------------------------------------------------------------------
  Calculation of phonons                                          0.0037
--------------------------------------------------------------------------------
  Total CPU time                                                  0.0120
--------------------------------------------------------------------------------


  Job Finished at 10:33.29 17th May        2022                               

