********************************************************************************
*                       GENERAL UTILITY LATTICE PROGRAM                        *
*                                 Julian Gale                                  *
*                       Curtin Institute for Computation                       *
*                           Department of Chemistry                            *
*                    Curtin University, Western Australia                      *
********************************************************************************
* Version = 5.1.1 * Last modified =  24th November 2018                        *
********************************************************************************
*  optimise     - perform optimisation run                                     *
*  conp         - constant pressure calculation                                *
*  shell        - only shells and radii to be optimised                        *
*  phonon       - calculate phonons for final geometry                         *
*  eigenvectors - output phonon eigenvectors                                   *
********************************************************************************

  Job Started  at 14:40.04 25th May        2022                               

  Number of CPUs =     1

  Host name      = login03                                 


  Total number of configurations input =      1

********************************************************************************
*  Input for Configuration =   1                                               *
********************************************************************************

  Formula = Al3F9                                                       

  Number of irreducible atoms/shells =      21


  Total number atoms/shells =      21

  Dimensionality = 0               :  Cluster


  Charge on cluster =  -0.000000


  Initial cluster dipoles : x =      0.069481 e.Angs
                            y =     -0.270722 e.Angs
                            z =      0.013123 e.Angs

  Temperature of configuration =  0.000     K 

  Symmetry number =      1

  Cartesian coordinates of cluster :

--------------------------------------------------------------------------------
   No.  Atomic       x           y          z         Charge      Occupancy
        Label      (Angs)      (Angs)     (Angs)        (e)         (Frac)  
--------------------------------------------------------------------------------
      1 Al    c     -1.6341      2.6507     -1.1527     3.00000    1.000000    
      2 Al    c     -0.5782      0.0021     -2.3689     3.00000    1.000000    
      3 Al    c     -2.2274     -0.3335     -0.5593     3.00000    1.000000    
      4 F     c     -0.8333      3.9631     -0.1795     0.59000    1.000000    
      5 F     c     -2.9525      3.2868     -2.2362     0.59000    1.000000    
      6 F     c     -1.3457     -1.6820     -1.6932     0.59000    1.000000    
      7 F     c     -2.5001      1.4623      0.0421     0.59000    1.000000    
      8 F     c     -3.1172     -1.5706      0.4693     0.59000    1.000000    
      9 F     c      0.5539     -0.8236     -3.5591     0.59000    1.000000    
     10 F     c     -0.3458      1.9007     -2.3219     0.59000    1.000000    
     11 F     c     -2.5004      0.4512     -2.3499     0.59000    1.000000    
     12 F     c     -0.3477      0.2408     -0.4271     0.59000    1.000000    
     13 F     s     -0.8333 *    3.9631 *   -0.1795 *  -1.59000    1.000000    
     14 F     s     -2.9525 *    3.2868 *   -2.2362 *  -1.59000    1.000000    
     15 F     s     -1.3457 *   -1.6820 *   -1.6932 *  -1.59000    1.000000    
     16 F     s     -2.5001 *    1.4623 *    0.0421 *  -1.59000    1.000000    
     17 F     s     -3.1172 *   -1.5706 *    0.4693 *  -1.59000    1.000000    
     18 F     s      0.5539 *   -0.8236 *   -3.5591 *  -1.59000    1.000000    
     19 F     s     -0.3458 *    1.9007 *   -2.3219 *  -1.59000    1.000000    
     20 F     s     -2.5004 *    0.4512 *   -2.3499 *  -1.59000    1.000000    
     21 F     s     -0.3477 *    0.2408 *   -0.4271 *  -1.59000    1.000000    
--------------------------------------------------------------------------------


  Brillouin zone sampling points :

--------------------------------------------------------------------------------
  Point number          x          y          z            Weight
--------------------------------------------------------------------------------
        1           0.000000   0.000000   0.000000     1.00000000
--------------------------------------------------------------------------------


********************************************************************************
*  General input information                                                   *
********************************************************************************

  Species output for all configurations : 

--------------------------------------------------------------------------------
  Species    Type    Atomic    Atomic    Charge       Radii (Angs)     Library
                     Number     Mass       (e)     Cova   Ionic  VDW   Symbol
--------------------------------------------------------------------------------
    Al       Core       13      26.98   3.000000   1.350  0.000  2.050          
    F        Core        9      19.00   0.590000   0.710  0.000  1.300          
    F        Shell       9       0.00  -1.590000   0.710  0.000  1.300          
--------------------------------------------------------------------------------


  Accuracy factor for short range sums = 12.000

  Time limit = Infinity

  Maximum range for interatomic potentials =    100000.000000 Angstroms

  General interatomic potentials :

--------------------------------------------------------------------------------
Atom  Types   Potential      Parameter       Value         Units   Cutoffs(Ang)
  1     2                                                            Min /  Max 
--------------------------------------------------------------------------------
Al   c F    s Buckingham    Buckingham A     3760.0008    eV        0.000 10.000
                            Buckingham rho  0.22200000    Ang       
                            Buckingham C     0.0000000    eV*Ang^6  
--------------------------------------------------------------------------------
F    s F    s Buck 4 range  Buck4 A          1127.7000    eV        0.000 12.000
                            Buck4 rho       0.27530000    Ang       
                            Buck4 C          15.830000    eV*Ang^6  
                            Buck4 minimum    2.7900000    Ang       
--------------------------------------------------------------------------------
F    c F    s Spring (c-s)  Spring k 2       20.770000    eV*Ang^-2 0.000  0.800
                            Spring k 4       0.0000000    eV*Ang^-4 
--------------------------------------------------------------------------------

********************************************************************************
*  Output for configuration   1                                                *
********************************************************************************


  Components of energy : 

--------------------------------------------------------------------------------
  Interatomic potentials     =           9.81943534 eV    
  Monopole - monopole (real) =        -177.09105185 eV    
--------------------------------------------------------------------------------
  Total lattice energy       =        -167.27161651 eV    
--------------------------------------------------------------------------------
  Total lattice energy       =          -16139.1540 kJ/mol
--------------------------------------------------------------------------------


  Number of variables =       27

  Maximum number of calculations  =          2000
  Maximum Hessian update interval =            10
  Maximum step size               =   1.000000000
  Maximum parameter tolerance     =   0.000001000
  Maximum function  tolerance     =   0.000010000
  Maximum gradient  tolerance     =   0.000000010
  Maximum gradient  component     =   0.010000000

  Symmetry not applied to optimisation

  Newton-Raphson optimiser to be used

  BFGS hessian update to be used

  Lower half triangular hessian to be used

  Minimiser to switch to RFO
  When gradient norm is less than     0.010000

  Shell only optimisation

  Start of cluster optimisation :

  Cycle:      0 Energy:      -167.271617  Gnorm:      1.499738  CPU:    0.004
  ** Hessian calculated **
  Cycle:      1 Energy:      -184.324488  Gnorm:      0.607055  CPU:    0.005
  ** Hessian calculated **
  Cycle:      2 Energy:      -185.924864  Gnorm:      0.043578  CPU:    0.007
  Cycle:      3 Energy:      -185.937817  Gnorm:      0.007977  CPU:    0.009
  ** Hessian has required structure
  Cycle:      4 Energy:      -185.938214  Gnorm:      0.001859  CPU:    0.010
  ** Hessian has required structure
  Cycle:      5 Energy:      -185.938237  Gnorm:      0.000634  CPU:    0.012
  ** Hessian has required structure
  Cycle:      6 Energy:      -185.938240  Gnorm:      0.000226  CPU:    0.013
  ** Hessian has required structure
  Cycle:      7 Energy:      -185.938240  Gnorm:      0.000143  CPU:    0.014
  ** Hessian has required structure
  Cycle:      8 Energy:      -185.938240  Gnorm:      0.000066  CPU:    0.016
  ** Hessian has required structure
  Cycle:      9 Energy:      -185.938240  Gnorm:      0.000041  CPU:    0.017
  ** Hessian has required structure
  Cycle:     10 Energy:      -185.938240  Gnorm:      0.000038  CPU:    0.018
  ** Hessian has required structure
  Cycle:     11 Energy:      -185.938240  Gnorm:      0.000037  CPU:    0.020
  ** Hessian has required structure
  Cycle:     12 Energy:      -185.938240  Gnorm:      0.000000  CPU:    0.021
  ** Hessian has required structure

  XYZ File written as 005/2/sp_mod_60/sp_mod_60_eig.xyz



  **** Optimisation achieved ****


  Final energy =    -185.93824034 eV
  Final Gnorm  =       0.00000000

  Components of energy : 

--------------------------------------------------------------------------------
  Interatomic potentials     =          37.07614693 eV    
  Monopole - monopole (real) =        -223.01438727 eV    
--------------------------------------------------------------------------------
  Total lattice energy       =        -185.93824034 eV    
--------------------------------------------------------------------------------
  Total lattice energy       =          -17940.1979 kJ/mol
--------------------------------------------------------------------------------

  Final cartesian coordinates of atoms :

--------------------------------------------------------------------------------
   No.  Atomic        x           y          z          Radius
        Label       (Angs)      (Angs)     (Angs)       (Angs) 
--------------------------------------------------------------------------------
     1  Al    c    -1.634126    2.650657   -1.152673    0.000000
     2  Al    c    -0.578222    0.002097   -2.368903    0.000000
     3  Al    c    -2.227394   -0.333452   -0.559254    0.000000
     4  F     c    -0.833270    3.963052   -0.179490    0.000000
     5  F     c    -2.952515    3.286788   -2.236196    0.000000
     6  F     c    -1.345695   -1.682032   -1.693196    0.000000
     7  F     c    -2.500124    1.462328    0.042062    0.000000
     8  F     c    -3.117184   -1.570556    0.469256    0.000000
     9  F     c     0.553903   -0.823618   -3.559060    0.000000
    10  F     c    -0.345778    1.900662   -2.321920    0.000000
    11  F     c    -2.500386    0.451173   -2.349947    0.000000
    12  F     c    -0.347660    0.240829   -0.427125    0.000000
    13  F     s    -0.933382    3.737411   -0.312563    0.000000
    14  F     s    -2.761264    3.175631   -2.082516    0.000000
    15  F     s    -1.363680   -1.406846   -1.658560    0.000000
    16  F     s    -2.375906    1.396998   -0.155666    0.000000
    17  F     s    -2.992553   -1.333638    0.320775    0.000000
    18  F     s     0.379476   -0.647548   -3.379382    0.000000
    19  F     s    -0.513608    1.775911   -2.199182    0.000000
    20  F     s    -2.292605    0.363384   -2.176869    0.000000
    21  F     s    -0.539929    0.177392   -0.614106    0.000000
--------------------------------------------------------------------------------


  Final Cartesian derivatives :

--------------------------------------------------------------------------------
   No.  Atomic          x             y             z           Radius
        Label       (eV/Angs)     (eV/Angs)    (eV/Angs)      (eV/Angs)
--------------------------------------------------------------------------------
      1 Al    c       0.000000      0.000000      0.000000      0.000000
      2 Al    c       0.000000      0.000000      0.000000      0.000000
      3 Al    c       0.000000      0.000000      0.000000      0.000000
      4 F     c       0.000000      0.000000      0.000000      0.000000
      5 F     c       0.000000      0.000000      0.000000      0.000000
      6 F     c       0.000000      0.000000      0.000000      0.000000
      7 F     c       0.000000      0.000000      0.000000      0.000000
      8 F     c       0.000000      0.000000      0.000000      0.000000
      9 F     c       0.000000      0.000000      0.000000      0.000000
     10 F     c       0.000000      0.000000      0.000000      0.000000
     11 F     c       0.000000      0.000000      0.000000      0.000000
     12 F     c       0.000000      0.000000      0.000000      0.000000
     13 F     s      -0.000000     -0.000000      0.000000      0.000000
     14 F     s      -0.000000     -0.000000      0.000000      0.000000
     15 F     s      -0.000000     -0.000000      0.000000      0.000000
     16 F     s      -0.000000      0.000000      0.000000      0.000000
     17 F     s       0.000000      0.000000      0.000000      0.000000
     18 F     s      -0.000000     -0.000000     -0.000000      0.000000
     19 F     s       0.000000     -0.000000      0.000000      0.000000
     20 F     s      -0.000000     -0.000000      0.000000      0.000000
     21 F     s       0.000000      0.000000     -0.000000      0.000000
--------------------------------------------------------------------------------
  Maximum abs         0.000000      0.000000      0.000000      0.000000
--------------------------------------------------------------------------------


  Born effective charge tensors : 

-------------------------------------------------------------------------------
  Atom             x           y             z
-------------------------------------------------------------------------------
    1 Al    x       0.8742     -0.0732     -0.4448
            y      -0.0607      1.4401     -0.0381
            z      -0.4424     -0.0496      0.9350
-------------------------------------------------------------------------------
    2 Al    x       1.0229      0.1475      0.1498
            y       0.1362      1.2673     -0.1423
            z       0.1520     -0.1600      1.0363
-------------------------------------------------------------------------------
    3 Al    x       1.1239     -0.1892      0.0804
            y      -0.1723      1.1319      0.2046
            z       0.0792      0.2172      1.0707
-------------------------------------------------------------------------------
    4 F     x      -0.4040      0.1803      0.1549
            y       0.1894     -0.2925      0.2180
            z       0.1566      0.2097     -0.3557
-------------------------------------------------------------------------------
    5 F     x      -0.2379     -0.0991      0.2435
            y      -0.1295     -0.5458     -0.1219
            z       0.2378     -0.0941     -0.3260
-------------------------------------------------------------------------------
    6 F     x      -0.3376     -0.0051      0.0476
            y       0.0076     -0.3956      0.0061
            z       0.0499     -0.0055     -0.3463
-------------------------------------------------------------------------------
    7 F     x      -0.3205     -0.0075      0.0497
            y       0.0005     -0.5081     -0.0169
            z       0.0489     -0.0015     -0.3358
-------------------------------------------------------------------------------
    8 F     x      -0.3994      0.2040     -0.1609
            y       0.1747     -0.2863     -0.2051
            z      -0.1581     -0.2310     -0.3497
-------------------------------------------------------------------------------
    9 F     x      -0.3125     -0.1684     -0.2315
            y      -0.1446     -0.4307      0.1504
            z      -0.2352      0.1814     -0.2922
-------------------------------------------------------------------------------
   10 F     x      -0.3274      0.0206      0.0534
            y       0.0060     -0.5010     -0.0237
            z       0.0530     -0.0331     -0.3361
-------------------------------------------------------------------------------
   11 F     x      -0.3331     -0.0395      0.0262
            y      -0.0276     -0.4419     -0.0385
            z       0.0284     -0.0493     -0.3532
-------------------------------------------------------------------------------
   12 F     x      -0.3485      0.0296      0.0316
            y       0.0204     -0.4374      0.0074
            z       0.0299      0.0158     -0.3470
-------------------------------------------------------------------------------




  Moment of inertia tensor (10^-46 x kgm^2): 

-------------------------------------------------------------------------------
                x           y           z           Principal axis system
-------------------------------------------------------------------------------
       x        182.66        4.10       25.56          105.291009
       y          4.10      106.22       -5.39          155.447254
       z         25.56       -5.39      177.74          205.878372
-------------------------------------------------------------------------------
  Centre of mass (Ang) =    -1.485154     0.793517    -1.361266
-------------------------------------------------------------------------------


  Vibrational Frequency Calculation : 

--------------------------------------------------------------------------------

  Frequencies (cm-1) and Eigenvectors : 

  Frequency     -26.9799   -0.0000   -0.0000    0.0000   26.7186   29.6419
  IR Intensity    0.0000    0.0000    0.0000    0.0000    0.0019    0.0001
     in X         0.0000    0.0000    0.0000    0.0000    0.0011    0.0000
     in Y         0.0000    0.0000    0.0000    0.0000    0.0000    0.0000
     in Z         0.0000    0.0000    0.0000    0.0000    0.0009    0.0000
  Raman Intsty    0.0000    0.0000    0.0000    0.0000    0.0001    0.0000

     1 x      -0.025110  0.059519 -0.087518  0.309656 -0.176108 -0.188479
     1 y      -0.005109 -0.024489  0.312763  0.093104 -0.002448 -0.038349
     1 z       0.027553 -0.320853 -0.040106  0.050336 -0.160943  0.206821
     2 x      -0.188353  0.059519 -0.087518  0.309656  0.124282  0.101692
     2 y       0.028326 -0.024489  0.312763  0.093104 -0.002734  0.218603
     2 z      -0.192287 -0.320853 -0.040106  0.050336  0.108599 -0.067650
     3 x       0.213656  0.059519 -0.087518  0.309656  0.120223  0.094615
     3 y      -0.023178 -0.024489  0.312763  0.093104 -0.003562 -0.178661
     3 z       0.164522 -0.320853 -0.040106  0.050336  0.113053 -0.147762
     4 x       0.137236  0.049947 -0.073444  0.259858 -0.200673 -0.269050
     4 y       0.027923 -0.020551  0.262465  0.078131  0.057859 -0.054743
     4 z      -0.150591 -0.269254 -0.033657  0.042241 -0.172146  0.295233
     5 x      -0.224928  0.049947 -0.073444  0.259858 -0.167290 -0.187810
     5 y      -0.045765 -0.020551  0.262465  0.078131 -0.103094 -0.038212
     5 z       0.246816 -0.269254 -0.033657  0.042241 -0.171569  0.206087
     6 x       0.011130  0.049947 -0.073444  0.259858  0.440188  0.211664
     6 y       0.002265 -0.020551  0.262465  0.078131 -0.032774  0.043067
     6 z      -0.012213 -0.269254 -0.033657  0.042241  0.395073 -0.232265
     7 x       0.220396  0.049947 -0.073444  0.259858 -0.193204 -0.078329
     7 y      -0.023987 -0.020551  0.262465  0.078131  0.023523 -0.224682
     7 z       0.175900 -0.269254 -0.033657  0.042241 -0.140943  0.040879
     8 x       0.353028  0.049947 -0.073444  0.259858  0.074203  0.141318
     8 y      -0.030861 -0.020551  0.262465  0.078131  0.002037 -0.295085
     8 z       0.275541 -0.269254 -0.033657  0.042241  0.078286 -0.239002
     9 x      -0.313486  0.049947 -0.073444  0.259858  0.084258  0.164661
     9 y       0.038906 -0.020551  0.262465  0.078131  0.004086  0.357341
     9 z      -0.318930 -0.269254 -0.033657  0.042241  0.067255 -0.096754
    10 x      -0.200356  0.049947 -0.073444  0.259858 -0.163136 -0.072105
    10 y       0.028065 -0.020551  0.262465  0.078131  0.029643  0.194074
    10 z      -0.197889 -0.269254 -0.033657  0.042241 -0.173936  0.124197
    11 x      -0.163326  0.049947 -0.073444  0.259858  0.036802  0.048437
    11 y      -0.033231 -0.020551  0.262465  0.078131 -0.338487  0.009857
    11 z       0.179220 -0.269254 -0.033657  0.042241 -0.029226 -0.053151
    12 x       0.180075  0.049947 -0.073444  0.259858  0.007350  0.031884
    12 y       0.036639 -0.020551  0.262465  0.078131  0.367624  0.006486
    12 z      -0.197598 -0.269254 -0.033657  0.042241  0.074863 -0.034988


  Frequency      46.9979   99.1755  109.4860  136.8499  146.0768  169.5785
  IR Intensity    0.0002    0.0000    0.0231    0.0004    0.0244    0.0033
     in X         0.0001    0.0000    0.0124    0.0000    0.0109    0.0015
     in Y         0.0001    0.0000    0.0001    0.0004    0.0004    0.0001
     in Z         0.0001    0.0000    0.0106    0.0000    0.0131    0.0018
  Raman Intsty    0.0016    0.0000    0.0054    0.9073    0.0000    0.0000

     1 x       0.130307 -0.016087  0.123087  0.003968  0.010986  0.036765
     1 y      -0.002603 -0.003273  0.018545 -0.319948  0.002235  0.007481
     1 z       0.118268  0.017652  0.115610 -0.055710 -0.012055 -0.040343
     2 x      -0.061043  0.053644  0.038999  0.042842  0.070953 -0.199757
     2 y      -0.009110 -0.000090 -0.004037  0.138153 -0.001272 -0.038433
     2 z      -0.063027  0.043347  0.039727 -0.017509 -0.136650 -0.067896
     3 x      -0.066621 -0.048246  0.043822 -0.037465  0.125567  0.081232
     3 y      -0.010245  0.001188 -0.003055  0.121813  0.041257  0.014317
     3 z      -0.056905 -0.049271  0.034435  0.070613 -0.078993  0.197956
     4 x       0.402657  0.358167 -0.056112  0.106293 -0.348871 -0.140749
     4 y      -0.342290  0.072875  0.203624 -0.404975 -0.070983 -0.028638
     4 z       0.303481 -0.393020 -0.013379  0.021775  0.382819  0.154445
     5 x       0.186292 -0.359883  0.060130 -0.015948 -0.148419  0.283538
     5 y       0.412603 -0.073224 -0.225274 -0.395994 -0.030198  0.057691
     5 z       0.246277  0.394903  0.013026 -0.087960  0.162862 -0.311129
     6 x       0.161977  0.013026  0.213434 -0.032767 -0.033909 -0.008723
     6 y      -0.023589  0.002650 -0.028144  0.205328 -0.006899 -0.001775
     6 z       0.143239 -0.014294  0.189289  0.008211  0.037209  0.009572
     7 x      -0.190161  0.148185  0.165715 -0.186454  0.209918  0.293480
     7 y      -0.013950 -0.018505 -0.005460  0.006343 -0.070793  0.082542
     7 z      -0.128931  0.125416  0.118041  0.210619  0.040075  0.217188
     8 x      -0.119416 -0.300680 -0.464889  0.008803 -0.215561 -0.151458
     8 y      -0.011521 -0.007199  0.043489 -0.060641  0.386123 -0.190037
     8 z      -0.105255 -0.277110 -0.353137 -0.090521  0.053699 -0.252177
     9 x      -0.113839  0.302398 -0.403842 -0.076518  0.041057  0.228583
     9 y      -0.010386  0.007549  0.055911 -0.078000 -0.421628  0.205729
     9 z      -0.111377  0.275222 -0.420125  0.003103  0.137785  0.167547
    10 x      -0.144272 -0.142128  0.134473  0.184315 -0.074945 -0.229394
    10 y      -0.004613  0.019737 -0.011817  0.081781  0.098255 -0.069503
    10 z      -0.179286 -0.132061  0.152323 -0.196229 -0.188182 -0.287510
    11 x      -0.082011 -0.000404  0.050349  0.069477  0.111682 -0.251549
    11 y      -0.189050 -0.000082 -0.069708  0.381149  0.022723 -0.051181
    11 z      -0.109792  0.000443  0.032959  0.133989 -0.122549  0.276027
    12 x      -0.104376 -0.005945  0.055375 -0.068335  0.211777  0.073701
    12 y       0.208961 -0.001210  0.023733  0.336488  0.043089  0.014995
    12 z      -0.056374  0.006524  0.054865  0.000117 -0.232385 -0.080872


  Frequency     179.5303  184.3678  219.0353  241.8937  246.9137  261.8580
  IR Intensity    0.0043    0.0027    0.0038    0.0018    0.0760    0.0003
     in X         0.0003    0.0011    0.0017    0.0008    0.0054    0.0001
     in Y         0.0032    0.0011    0.0001    0.0000    0.0703    0.0000
     in Z         0.0007    0.0005    0.0020    0.0010    0.0003    0.0001
  Raman Intsty    0.1190    0.0057    0.0000    0.0000    0.0392    0.0000

     1 x      -0.012196 -0.315286 -0.214265  0.020925  0.145048 -0.217286
     1 y      -0.091154 -0.018123 -0.043595  0.004257 -0.332265 -0.044210
     1 z      -0.028017 -0.290687  0.235114 -0.022961  0.070577  0.238430
     2 x      -0.017961  0.179700 -0.052795 -0.252787  0.064792  0.172056
     2 y      -0.016626 -0.016365  0.344188 -0.101513 -0.101410 -0.222633
     2 z      -0.013444  0.162130 -0.098941 -0.301133 -0.033153 -0.094612
     3 x      -0.012090  0.181068  0.164846  0.303551 -0.006943  0.033313
     3 y      -0.015431 -0.016087 -0.321389  0.111842 -0.116006  0.264418
     3 z      -0.019886  0.160628 -0.024013  0.245430  0.045559 -0.130742
     4 x       0.123512  0.001235  0.203034  0.005938 -0.341550  0.053773
     4 y      -0.243128 -0.351476  0.041310  0.001209  0.232543  0.010941
     4 z       0.067478 -0.064046 -0.222791 -0.006518 -0.268143 -0.059006
     5 x      -0.040683 -0.198506  0.246488 -0.099234  0.256161  0.113791
     5 y      -0.245356  0.439671  0.050152 -0.020190  0.281464  0.023153
     5 z      -0.082570 -0.099378 -0.270473  0.108892  0.285634 -0.124864
     6 x      -0.009519 -0.019829  0.134828 -0.023979 -0.014913  0.099413
     6 y      -0.055762  0.009752  0.027433 -0.004879 -0.046468  0.020227
     6 z      -0.019014 -0.016263 -0.147948  0.026312 -0.022207 -0.109087
     7 x       0.009567  0.025230 -0.073521 -0.400841 -0.264791 -0.187083
     7 y      -0.050559  0.014969 -0.268962  0.102743 -0.147071  0.105727
     7 z      -0.011104 -0.036090  0.021350 -0.184826  0.047966  0.440380
     8 x      -0.234625 -0.153278 -0.223614 -0.078601 -0.140772  0.148018
     8 y       0.473665  0.011609  0.126553  0.042165  0.060966  0.223675
     8 z       0.345632 -0.098657  0.156372 -0.171217  0.143152 -0.123841
     9 x       0.226315 -0.115283 -0.105449  0.183574  0.113471  0.145388
     9 y       0.567451  0.019340 -0.193506 -0.020807  0.112696 -0.163977
     9 z      -0.160160 -0.140350  0.204712  0.056030 -0.135831 -0.198116
    10 x      -0.000644 -0.035226 -0.061571  0.243080  0.044583 -0.390791
    10 y      -0.052636  0.002668  0.241476 -0.134843 -0.084124 -0.223304
    10 z       0.000100  0.030250  0.126887  0.357937 -0.291515  0.193727
    11 x      -0.033626  0.198959 -0.077685 -0.141892  0.132171  0.045975
    11 y      -0.124018  0.155281 -0.015806 -0.028869  0.197574  0.009354
    11 z      -0.053640  0.210108  0.085245  0.155700  0.157084 -0.050449
    12 x       0.010047  0.242499  0.079293  0.226528 -0.026141 -0.014284
    12 y      -0.122835 -0.241546  0.016133  0.046091  0.047441 -0.002906
    12 z      -0.013620  0.176207 -0.087009 -0.248571 -0.015025  0.015673


  Frequency     263.5907  319.7669  325.3635  335.1562  380.8389  404.9570
  IR Intensity    0.0236    0.0310    0.0099    0.0044    0.0006    0.0000
     in X         0.0045    0.0171    0.0044    0.0000    0.0003    0.0000
     in Y         0.0123    0.0001    0.0002    0.0041    0.0001    0.0000
     in Z         0.0067    0.0138    0.0053    0.0003    0.0002    0.0000
  Raman Intsty    0.0617    0.0157    0.0000    0.3629    1.9599    0.0000

     1 x      -0.129343  0.024967 -0.080280  0.030100 -0.049458 -0.002961
     1 y      -0.167976  0.025497 -0.016334 -0.197497  0.165308 -0.000602
     1 z      -0.149020  0.027481  0.088092 -0.009190 -0.014420  0.003249
     2 x      -0.050916  0.181535 -0.026710  0.001856  0.086643 -0.338116
     2 y      -0.021974 -0.026722 -0.025441  0.203147 -0.040424  0.041996
     2 z      -0.076981  0.155651  0.044315  0.015285 -0.116630 -0.306609
     3 x      -0.076821  0.176814 -0.045002 -0.021673 -0.097190  0.344237
     3 y      -0.027245 -0.027682  0.010851  0.198360 -0.077827 -0.040750
     3 z      -0.048554  0.160831  0.034375  0.041104  0.085091  0.299892
     4 x      -0.140547  0.016623  0.072212 -0.117425  0.091233 -0.002518
     4 y      -0.165293  0.048343  0.014693 -0.069396  0.062184 -0.000512
     4 z      -0.158732  0.024113 -0.079240 -0.119879  0.094672  0.002764
     5 x      -0.036470  0.019560  0.093842  0.091936 -0.111158 -0.001731
     5 y       0.326155 -0.042169  0.019094  0.043364  0.033624 -0.000352
     5 z       0.027241  0.010006 -0.102974  0.091824 -0.095066  0.001899
     6 x       0.035769 -0.490854 -0.438510 -0.024913  0.031851  0.024735
     6 y      -0.003083  0.022799 -0.089221  0.276829 -0.231787  0.005034
     6 z       0.032026 -0.443097  0.481181  0.028626 -0.013951 -0.027142
     7 x       0.372843 -0.035371 -0.039821 -0.177388 -0.163993  0.056406
     7 y      -0.069447  0.017140 -0.179360  0.098113  0.294533  0.041225
     7 z       0.307454 -0.022289  0.099401  0.260108  0.291811  0.072671
     8 x       0.005651 -0.079231  0.033390  0.084208 -0.111533 -0.050228
     8 y       0.007448 -0.009512 -0.168927  0.042021 -0.144138 -0.028058
     8 z       0.067658 -0.031143 -0.051606 -0.101276  0.132894  0.009692
     9 x       0.065394 -0.037376  0.016174 -0.097391  0.143812 -0.009065
     9 y       0.019604 -0.000996  0.179011  0.005072 -0.092184  0.015993
     9 z       0.002103 -0.077071 -0.002780  0.097994 -0.147298  0.055370
    10 x       0.353836 -0.028757 -0.125300  0.217043  0.213896 -0.069721
    10 y      -0.073314  0.018485  0.145764  0.178366  0.371420 -0.043934
    10 z       0.328312 -0.029546  0.081787 -0.172704 -0.122851 -0.058061
    11 x      -0.130266  0.123289  0.287531 -0.193223  0.256310  0.373698
    11 y      -0.134553 -0.447996  0.058503 -0.422543 -0.178753  0.076035
    11 z      -0.143663  0.029287 -0.315511 -0.254437  0.200436 -0.410062
    12 x      -0.219865  0.055343  0.281600  0.204899 -0.278912 -0.325343
    12 y       0.351302  0.428353  0.057295 -0.394932 -0.170973 -0.066196
    12 z      -0.135229  0.129861 -0.309002  0.113500 -0.285881  0.357002


  Frequency     422.3922  439.8571  467.5494  489.1635  527.4556  562.3179
  IR Intensity    0.0000    0.0071    0.0049    0.0236    0.0121    0.0912
     in X         0.0000    0.0032    0.0003    0.0005    0.0054    0.0499
     in Y         0.0000    0.0001    0.0045    0.0230    0.0002    0.0000
     in Z         0.0000    0.0038    0.0000    0.0000    0.0065    0.0412
  Raman Intsty    0.0257    0.0000    4.1707    2.6482    0.0000    0.0425

     1 x       0.012070 -0.107210  0.064461  0.022301  0.132147  0.006138
     1 y      -0.012550 -0.021813 -0.252411 -0.076007  0.026887 -0.003630
     1 z       0.008673  0.117642  0.011941  0.006230 -0.145006  0.004920
     2 x       0.152546  0.058038 -0.010201  0.042216 -0.175222 -0.340209
     2 y       0.053292 -0.028991  0.091250 -0.093080 -0.404744  0.020027
     2 z      -0.173005 -0.168446  0.014384 -0.025735  0.116608 -0.335192
     3 x      -0.162068  0.153031 -0.003593 -0.003669 -0.168159 -0.368421
     3 y      -0.010721  0.071936  0.092595 -0.102416  0.334878  0.014287
     3 z       0.172221 -0.063162  0.007134  0.024615  0.260187 -0.304234
     4 x       0.000403  0.014185 -0.178901 -0.050781  0.020727 -0.010235
     4 y       0.003175  0.002886 -0.248198 -0.086171  0.004217 -0.026547
     4 z       0.000956 -0.015566 -0.209057 -0.062256 -0.022743 -0.014250
     5 x       0.020556  0.013643  0.237860  0.084806  0.029623 -0.023701
     5 y      -0.028932  0.002776 -0.103335 -0.050839  0.006028  0.019852
     5 z       0.013368 -0.014971  0.197606  0.067859 -0.032506 -0.017918
     6 x      -0.026677 -0.284362  0.005025  0.006434  0.228665  0.021768
     6 y       0.679036 -0.057858 -0.102400 -0.225621  0.046525 -0.012340
     6 z       0.101597  0.312033 -0.014408 -0.035972 -0.250916  0.017550
     7 x       0.124355  0.104967  0.175495  0.029326 -0.004735  0.033221
     7 y      -0.027141 -0.267437  0.333128  0.363771 -0.457698  0.027492
     7 z      -0.182812 -0.166945 -0.267469 -0.033940 -0.005408  0.031119
     8 x      -0.186648  0.178874  0.097103 -0.165810 -0.005848  0.017630
     8 y      -0.241654  0.202478  0.098794 -0.206085  0.011697 -0.018197
     8 z       0.217869 -0.216452 -0.114108  0.188546  0.005759  0.041286
     9 x       0.236322  0.228687 -0.118811  0.203495 -0.002869  0.045576
     9 y      -0.155595 -0.119554  0.054863 -0.130944 -0.013471 -0.012511
     9 z      -0.246260 -0.230768  0.122816 -0.216696  0.003807  0.010621
    10 x      -0.160157  0.103223 -0.302594 -0.095888 -0.077141  0.029063
    10 y      -0.085029  0.309796  0.235854  0.338296  0.441038  0.026647
    10 z       0.129386 -0.061503  0.257142  0.103460  0.095251  0.035681
    11 x       0.060964 -0.211023  0.216896 -0.356251  0.038654  0.346680
    11 y      -0.090770 -0.042936 -0.112599  0.208019  0.007865 -0.178336
    11 z       0.038728  0.231558  0.176783 -0.286087 -0.042415  0.282869
    12 x      -0.072156 -0.271956 -0.192449  0.272159  0.024640  0.377113
    12 y      -0.088863 -0.055334 -0.074401  0.113109  0.005013  0.137376
    12 z      -0.082235  0.298420 -0.189178  0.268997 -0.027038  0.369144


  Frequency     573.6180  653.0306  702.8516  775.0117  780.3143  905.4104
  IR Intensity    0.1356    0.1448    0.0243    0.0183    0.0071    0.0001
     in X         0.0604    0.0006    0.0021    0.0081    0.0019    0.0000
     in Y         0.0025    0.1419    0.0220    0.0003    0.0027    0.0001
     in Z         0.0727    0.0023    0.0002    0.0098    0.0025    0.0000
  Raman Intsty    0.0000    0.0981    0.0957    0.0000    0.0353    2.6807

     1 x      -0.479765 -0.022607 -0.219828 -0.024817  0.486919  0.006692
     1 y      -0.097615  0.078061  0.644335 -0.005049  0.229645  0.125829
     1 z       0.526450 -0.006128 -0.080860  0.027232  0.486320  0.029430
     2 x      -0.083089  0.131388 -0.060976  0.326149 -0.015721  0.419615
     2 y      -0.216208  0.526025 -0.093268 -0.236234 -0.006050 -0.122863
     2 z       0.074061 -0.100606  0.049728 -0.350730  0.043836 -0.451064
     3 x      -0.102481 -0.179290  0.058838  0.264319  0.042221 -0.372706
     3 y       0.178451  0.462812 -0.068890  0.356374  0.005739 -0.284073
     3 z       0.129566  0.240304 -0.081745 -0.297195 -0.019744  0.418357
     4 x       0.026899 -0.036986 -0.170244 -0.000915 -0.237567 -0.021228
     4 y       0.005473 -0.052435 -0.315366 -0.000186 -0.364886 -0.037520
     4 z      -0.029517 -0.043429 -0.213623  0.001003 -0.284157 -0.026302
     5 x       0.022881  0.057017  0.381042 -0.000742 -0.322279  0.003278
     5 y       0.004655 -0.026257 -0.202866 -0.000151  0.137196 -0.007140
     5 z      -0.025106  0.047092  0.309636  0.000814 -0.268261  0.001663
     6 x       0.093572  0.017478 -0.000454 -0.044570 -0.009347 -0.000544
     6 y       0.019038 -0.442505  0.079237 -0.009068  0.015753 -0.041648
     6 z      -0.102678 -0.066121  0.014279  0.048907 -0.005597 -0.008218
     7 x       0.206547  0.032720 -0.056089  0.001429 -0.023045  0.003867
     7 y       0.154593 -0.219787 -0.075917 -0.050319 -0.017969  0.008082
     7 z      -0.301166 -0.059447  0.089810 -0.011396 -0.000879 -0.000791
     8 x      -0.003135 -0.074948 -0.018903 -0.219620 -0.015091  0.140469
     8 y      -0.025328 -0.138902 -0.022000 -0.293942 -0.019996  0.195538
     8 z       0.003312  0.084694  0.022924  0.253956  0.014810 -0.161569
     9 x      -0.007484  0.099754  0.024325 -0.277461  0.016448 -0.177988
     9 y       0.023167 -0.103356 -0.013205  0.192803 -0.013579  0.130743
     9 z       0.008340 -0.107008 -0.024510  0.291497 -0.019799  0.187876
    10 x       0.299778 -0.014694  0.095401  0.001863 -0.000122 -0.001815
    10 y      -0.051573 -0.229434 -0.045094  0.050989 -0.013305  0.006926
    10 z      -0.254430 -0.007420 -0.076422  0.007784 -0.026032  0.005444
    11 x       0.074862 -0.012941  0.015131 -0.068887 -0.005748 -0.075594
    11 y       0.015232 -0.027824  0.009593 -0.014016  0.005432  0.048726
    11 z      -0.082147 -0.016952  0.015568  0.075591 -0.004231 -0.059856
    12 x       0.078917  0.016620 -0.005707 -0.065147 -0.015058  0.065684
    12 y       0.016057 -0.030855  0.011037 -0.013255 -0.001929  0.031271
    12 z      -0.086596  0.009425 -0.003154  0.071486 -0.014080  0.065657




--------------------------------------------------------------------------------
  Vibrational properties (for cluster):  Temperature  =       0.000 K
--------------------------------------------------------------------------------
  Zero point energy            =        0.704880 eV
--------------------------------------------------------------------------------

  Phonon density of states : 

--------------------------------------------------------------------------------
 Frequency (cm-1) Density of States                                             
--------------------------------------------------------------------------------
    0.00000 |******************************                                0.030
   14.14704 |******************************                                0.030
   28.29408 |******************************                                0.030
   42.44111 |******************************                                0.030
   56.58815 |                                                              0.000
   70.73519 |                                                              0.000
   84.88223 |                                                              0.000
   99.02926 |************************************************************  0.061
  113.17630 |                                                              0.000
  127.32334 |******************************                                0.030
  141.47038 |******************************                                0.030
  155.61742 |******************************                                0.030
  169.76445 |******************************                                0.030
  183.91149 |******************************                                0.030
  198.05853 |                                                              0.000
  212.20557 |******************************                                0.030
  226.35260 |                                                              0.000
  240.49964 |************************************************************  0.061
  254.64668 |************************************************************  0.061
  268.79372 |                                                              0.000
  282.94076 |                                                              0.000
  297.08779 |                                                              0.000
  311.23483 |************************************************************  0.061
  325.38187 |******************************                                0.030
  339.52891 |                                                              0.000
  353.67595 |                                                              0.000
  367.82298 |******************************                                0.030
  381.97002 |                                                              0.000
  396.11706 |******************************                                0.030
  410.26410 |******************************                                0.030
  424.41113 |                                                              0.000
  438.55817 |******************************                                0.030
  452.70521 |                                                              0.000
  466.85225 |******************************                                0.030
  480.99929 |******************************                                0.030
  495.14632 |                                                              0.000
  509.29336 |                                                              0.000
  523.44040 |******************************                                0.030
  537.58744 |                                                              0.000
  551.73447 |******************************                                0.030
  565.88151 |******************************                                0.030
  580.02855 |                                                              0.000
  594.17559 |                                                              0.000
  608.32263 |                                                              0.000
  622.46966 |                                                              0.000
  636.61670 |                                                              0.000
  650.76374 |******************************                                0.030
  664.91078 |                                                              0.000
  679.05781 |                                                              0.000
  693.20485 |******************************                                0.030
  707.35189 |                                                              0.000
  721.49893 |                                                              0.000
  735.64597 |                                                              0.000
  749.79300 |                                                              0.000
  763.94004 |******************************                                0.030
  778.08708 |******************************                                0.030
  792.23412 |                                                              0.000
  806.38115 |                                                              0.000
  820.52819 |                                                              0.000
  834.67523 |                                                              0.000
  848.82227 |                                                              0.000
  862.96931 |                                                              0.000
  877.11634 |                                                              0.000
  891.26338 |******************************                                0.030
--------------------------------------------------------------------------------



  Time to end of optimisation =       0.0312 seconds


  Peak dynamic memory used =       0.65 MB 


  Timing analysis for GULP :

--------------------------------------------------------------------------------
  Task / Subroutine                                          Time (Seconds)
--------------------------------------------------------------------------------
  Calculation of real space energy and derivatives                0.0020
  Calculation of phonons                                          0.0017
  Calculation and manipulation of Hessian matrix                  0.0013
--------------------------------------------------------------------------------
  Total CPU time                                                  0.0312
--------------------------------------------------------------------------------


  Job Finished at 14:40.04 25th May        2022                               

