------------------------------------------------------------
          Invoking FHI-aims ...

          When using FHI-aims, please cite the following reference:

            Volker Blum, Ralf Gehrke, Felix Hanke, Paula Havu,
            Ville Havu, Xinguo Ren, Karsten Reuter, and Matthias Scheffler,
            'Ab Initio Molecular Simulations with Numeric Atom-Centered Orbitals',
            Computer Physics Communications 180, 2175-2196 (2009)

          In addition, many other developments in FHI-aims are likely important for
          your particular application. A partial list of references is given at the end of
          this file. Thank you for giving credit to the authors of these developments.

          For any questions about FHI-aims, please visit our slack channel at

            https://fhi-aims.slack.com

          and our main development and support site at

            https://aims-git.rz-berlin.mpg.de .

          The latter site, in particular, has a wiki to collect information, as well
          as an issue tracker to log discussions, suggest improvements, and report issues
          or bugs. https://aims-git.rz-berlin.mpg.de is also the main development site
          of the project and all new and updated code versions can be obtained there.
          Please send an email to aims-coordinators@fhi-berlin.mpg.de and we will add
          you to these sites. They are for you and everyone is welcome there.

------------------------------------------------------------



  Date     :  20220517, Time     :  113008.590
  Time zero on CPU 1             :   0.457090000000000E-01  s.
  Internal wall clock time zero  :           422019008.590  s.

  FHI-aims created a unique identifier for this run for later identification
  aims_uuid : A7609DB8-2CFE-46E5-A9B3-FC64720A88C7

  Build configuration of the current instance of FHI-aims
  -------------------------------------------------------
  FHI-aims version      : 210914
  Commit number         : GITDIR-NOTFOUND
  CMake host system     : Linux-3.10.0-693.17.1.el7.x86_64
  CMake version         : 3.21.1
  Fortran compiler      : /shared/ucl/apps/intel/2018.Update3/impi/2018.3.222/intel64/bin/mpiifort (Intel) version 18.0.3.20180410
  Fortran compiler flags: -O3 -ip -fp-model precise
  C compiler            : /shared/ucl/apps/intel/2018.Update3/compilers_and_libraries_2018.3.222/linux/bin/intel64/icc (Intel) version 18.0.3.20180410
  C compiler flags      : -O3 -ip -fp-model precise -std=gnu99
  ELPA2 kernel          : AVX2
  Using MPI
  Using ScaLAPACK
  Using LibXC
  Using i-PI
  Using RLSY
  Linking against: /shared/ucl/apps/intel/2019.Update5/compilers_and_libraries_2019.5.281/linux/mkl/lib/intel64/libmkl_intel_lp64.so
                   /shared/ucl/apps/intel/2019.Update5/compilers_and_libraries_2019.5.281/linux/mkl/lib/intel64/libmkl_sequential.so
                   /shared/ucl/apps/intel/2019.Update5/compilers_and_libraries_2019.5.281/linux/mkl/lib/intel64/libmkl_core.so
                   /shared/ucl/apps/intel/2019.Update5/compilers_and_libraries_2019.5.281/linux/mkl/lib/intel64/libmkl_blacs_intelmpi_lp64.so
                   /shared/ucl/apps/intel/2019.Update5/compilers_and_libraries_2019.5.281/linux/mkl/lib/intel64/libmkl_scalapack_lp64.so

  Using       24 parallel tasks.
  Task        0 on host node-k98a-011 reporting.
  Task        1 on host node-k98a-011 reporting.
  Task        2 on host node-k98a-011 reporting.
  Task        3 on host node-k98a-011 reporting.
  Task        4 on host node-k98a-011 reporting.
  Task        5 on host node-k98a-011 reporting.
  Task        6 on host node-k98a-011 reporting.
  Task        7 on host node-k98a-011 reporting.
  Task        8 on host node-k98a-011 reporting.
  Task        9 on host node-k98a-011 reporting.
  Task       10 on host node-k98a-011 reporting.
  Task       11 on host node-k98a-011 reporting.
  Task       12 on host node-k98a-011 reporting.
  Task       13 on host node-k98a-011 reporting.
  Task       14 on host node-k98a-011 reporting.
  Task       15 on host node-k98a-011 reporting.
  Task       16 on host node-k98a-011 reporting.
  Task       17 on host node-k98a-011 reporting.
  Task       18 on host node-k98a-011 reporting.
  Task       19 on host node-k98a-011 reporting.
  Task       20 on host node-k98a-011 reporting.
  Task       21 on host node-k98a-011 reporting.
  Task       22 on host node-k98a-011 reporting.
  Task       23 on host node-k98a-011 reporting.

  Performing system and environment tests:
  | Environment variable OMP_NUM_THREADS correctly set to 1.
  | Checking for ScaLAPACK...
  | Testing pdtran()...
  | All pdtran() tests passed.

  Obtaining array dimensions for all initial allocations:
  
  -----------------------------------------------------------------------
  Parsing control.in (first pass over file, find array dimensions only).
  The contents of control.in will be repeated verbatim below
  unless switched off by setting 'verbatim_writeout .false.' .
  in the first line of control.in .
  -----------------------------------------------------------------------
  
  #########################################################################################  Physical model
  #########################################################################################
  xc                 pbesol
  spin               none
  relativistic       atomic_zora scalar
  charge             0.0
  #  SCF convergence
  occupation_type    gaussian 0.01
  mixer              pulay
  n_max_pulay        10
  charge_mix_param   0.5
  sc_accuracy_rho    1E-5
  sc_accuracy_eev    1E-3
  sc_accuracy_etot   1E-6
  sc_accuracy_forces 1E-4
  sc_iter_limit      1500
  #  Relaxation
  #relax_geometry   bfgs 1.e-3
  
  ################################################################################
  #
  #  FHI-aims code project
  #  VB, Fritz-Haber Institut, 2009
  #
  #  Suggested "light" defaults for Al atom (to be pasted into control.in file)
  #  Be sure to double-check any results obtained with these settings for post-processing,
  #  e.g., with the "tight" defaults and larger basis sets.
  #
  ################################################################################
    species        Al
  #     global species definitions
      nucleus             13
      mass                26.9815386
  #
      l_hartree           4
  #
      cut_pot             3.5          1.5  1.0
      basis_dep_cutoff    1e-4
  #
      radial_base         41 5.0
      radial_multiplier   1
      angular_grids       specified
        division   0.6594  110
        division   0.8170  194
        division   0.9059  302
  #      division   1.0363  434
  #      division   1.1443  590
  #      division   1.2621  770
  #      division   2.8177  974
  #      outer_grid   974
        outer_grid   302
  ################################################################################
  #
  #  Definition of "minimal" basis
  #
  ################################################################################
  #     valence basis states
      valence      3  s   2.
      valence      3  p   1.
  #     ion occupancy
      ion_occ      3  s   1.
      ion_occ      2  p   6.
  ################################################################################
  #
  #  Suggested additional basis functions. For production calculations,
  #  uncomment them one after another (the most important basis functions are
  #  listed first).
  #
  #  Constructed for dimers: 2.0 A, 2.5 A, 3.0 A, 3.75 A, 4.5 A
  #
  ################################################################################
  #  "First tier" - improvements: -199.47 meV to -10.63 meV
       ionic 3 d auto
       ionic 3 p auto
  #     hydro 4 f 4.7
       ionic 3 s auto
  #  "Second tier" - improvements: -5.35 meV to -1.57 meV
  #     hydro 5 g 7
  #     hydro 3 d 6
  #     hydro 2 s 11.6
  #     hydro 2 p 0.9
  #  "Third tier" - improvements: -0.63 meV to -0.20 meV
  #     hydro 5 f 7.6
  #     hydro 4 p 7.2
  #     hydro 4 s 3.7
  #     hydro 4 d 7.6
  #  "Fourth tier" - improvements: -0.17 meV to -0.08 meV
  #     hydro 4 d 13.6
  #     hydro 5 g 11.2
  #     hydro 4 d 0.9
  #     hydro 1 s 0.4
  #     hydro 4 p 0.1
  #     hydro 5 f 9.8
  #  Further basis functions that fell out of the optimization - noise level...
  #     hydro 4 p 5
  
  ################################################################################
  #
  #  FHI-aims code project
  #  VB, Fritz-Haber Institut, 2009
  #
  #  Suggested "light" defaults for F atom (to be pasted into control.in file)
  #  Be sure to double-check any results obtained with these settings for post-processing,
  #  e.g., with the "tight" defaults and larger basis sets.
  #
  ################################################################################
    species        F
  #     global species definitions
      nucleus             9
      mass                18.9984032
  #
      l_hartree           4
  #
      cut_pot             3.5  1.5  1.0
      basis_dep_cutoff    1e-4
  #
      radial_base         37 5.0
      radial_multiplier   1
      angular_grids specified
        division   0.4014  110
        division   0.5291  194
        division   0.6019  302
  #      division   0.6814  434
  #      division   0.7989  590
  #      division   0.8965  770
  #      division   1.3427  974
  #      outer_grid   974
        outer_grid   302
  ################################################################################
  #
  #  Definition of "minimal" basis
  #
  ################################################################################
  #     valence basis states
      valence      2  s   2.
      valence      2  p   5.
  #     ion occupancy
      ion_occ      2  s   1.
      ion_occ      2  p   4.
  ################################################################################
  #
  #  Suggested additional basis functions. For production calculations,
  #  uncomment them one after another (the most important basis functions are
  #  listed first).
  #
  #  Constructed for dimers: 1.2 A, 1.418 A, 1.75 A, 2.25 A, 3.25 A
  #
  ################################################################################
  #  "First tier" - improvements: -149.44 meV to -45.88 meV
       hydro 2 p 1.7
       hydro 3 d 7.4
       hydro 3 s 6.8
  #  "Second tier" - improvements: -12.96 meV to -1.56 meV
  #     hydro 4 f 11.2
  #     ionic 2 p auto
  #     hydro 1 s 0.75
  #     hydro 4 d 8.8
  #     hydro 5 g 16.8
  #  "Third tier" - improvements: -0.58 meV to -0.05 meV
  #     hydro 3 p 6.2
  #     hydro 3 s 3.2
  #     hydro 4 f 9.6
  #     hydro 3 s 19.6
  #     hydro 4 d 8.6
  #     hydro 5 g 14.4
  # Further basis functions: -0.05 meV and below
  #     hydro 3 p 4.2
  
  -----------------------------------------------------------------------
  Completed first pass over input file control.in .
  -----------------------------------------------------------------------
  
  
  -----------------------------------------------------------------------
  Parsing geometry.in (first pass over file, find array dimensions only).
  The contents of geometry.in will be repeated verbatim below
  unless switched off by setting 'verbatim_writeout .false.' .
  in the first line of geometry.in .
  -----------------------------------------------------------------------
  
  atom 0.431964595 -0.598257878 1.752408917 Al
  atom 2.307132963 -1.751867254 -0.453426490 Al
  atom -0.914676982 -1.868111340 -1.067475736 Al
  atom 3.335052511 -0.341924393 -0.986160603 F
  atom -1.929839051 -0.721977089 -2.047510221 F
  atom 2.542280787 -3.563623277 -0.347132592 F
  atom -1.371461373 -3.616320785 -1.263443869 F
  atom 2.003287796 -1.397812732 1.309816600 F
  atom 0.820504964 -1.508638082 -1.490920665 F
  atom 0.306642351 -1.169822241 3.472074281 F
  atom 0.538060579 1.136848966 1.217788072 F
  atom -0.830311269 -1.465799921 0.730071812 F
  
  -----------------------------------------------------------------------
  Completed first pass over input file geometry.in .
  -----------------------------------------------------------------------
  

  Basic array size parameters:
  | Number of species                 :        2
  | Number of atoms                   :       12
  | Max. basis fn. angular momentum   :        2
  | Max. atomic/ionic basis occupied n:        3
  | Max. number of basis fn. types    :        3
  | Max. radial fns per species/type  :        5
  | Max. logarithmic grid size        :     1340
  | Max. radial integration grid size :       41
  | Max. angular integration grid size:      302
  | Max. angular grid division number :        8
  | Radial grid for Hartree potential :     1340
  | Number of spin channels           :        1

------------------------------------------------------------
          Reading file control.in.
------------------------------------------------------------
  XC: Using PBEsol gradient-corrected functionals.
  Spin treatment: No spin polarisation.
  Scalar relativistic treatment of kinetic energy: on-site free-atom approximation to ZORA.
  Charge =   0.000000E+00: Neutral system requested explicitly.
  Occupation type: Gaussian broadening, width =   0.100000E-01 eV.
  Using pulay charge density mixing.
  Pulay mixing - number of memorized iterations:   10
  Charge density mixing - mixing parameter:     0.5000
  Convergence accuracy of self-consistent charge density:  0.1000E-04
  Convergence accuracy of sum of eigenvalues:  0.1000E-02
  Convergence accuracy of total energy:  0.1000E-05
  Convergence accuracy of forces:  0.1000E-03
  Maximum number of s.-c. iterations  :  1500
 
  Reading configuration options for species Al                  .
  | Found nuclear charge :  13.0000
  | Found atomic mass :    26.9815386000000      amu
  | Found l_max for Hartree potential  :   4
  | Found cutoff potl. onset [A], width [A], scale factor :    3.50000    1.50000    1.00000
  | Threshold for basis-dependent cutoff potential is   0.100000E-03
  | Found data for basic radial integration grid :    41 points, outermost radius =    5.000 A
  | Found multiplier for basic radial grid :   1
  | Found angular grid specification: user-specified.
  | Specified grid contains     4 separate shells.
  | Check grid settings after all constraints further below.
  | Found free-atom valence shell :  3 s   2.000
  | Found free-atom valence shell :  3 p   1.000
  | Found free-ion valence shell :  3 s   1.000
  | Found free-ion valence shell :  2 p   6.000
  | Found ionic basis function :  3 d , default cutoff radius.
  | Found ionic basis function :  3 p , default cutoff radius.
  | Found ionic basis function :  3 s , default cutoff radius.
  Species Al                  : Missing cutoff potential type.
  Defaulting to exp(1/x)/(1-x)^2 type cutoff potential.
  Species Al: No 'logarithmic' tag. Using default grid for free atom:
  | Default logarithmic grid data [bohr] : 0.1000E-03 0.1000E+03 0.1012E+01
  | Will include ionic basis functions of  2.0-fold positive Al                   ion.
  Species Al: On-site basis accuracy parameter (for Gram-Schmidt orthonormalisation) not specified.
  Using default value basis_acc =  0.1000000E-03.
  Species Al                  : Using default innermost maximum threshold i_radial=  2 for radial functions.
  Species Al                  : Default cutoff onset for free atom density etc. : 0.35000000E+01 AA.
  Species Al                  : Basic radial grid will be enhanced according to radial_multiplier =   1, to contain    41 grid points.
 
  Reading configuration options for species F                   .
  | Found nuclear charge :   9.0000
  | Found atomic mass :    18.9984032000000      amu
  | Found l_max for Hartree potential  :   4
  | Found cutoff potl. onset [A], width [A], scale factor :    3.50000    1.50000    1.00000
  | Threshold for basis-dependent cutoff potential is   0.100000E-03
  | Found data for basic radial integration grid :    37 points, outermost radius =    5.000 A
  | Found multiplier for basic radial grid :   1
  | Found angular grid specification: user-specified.
  | Specified grid contains     4 separate shells.
  | Check grid settings after all constraints further below.
  | Found free-atom valence shell :  2 s   2.000
  | Found free-atom valence shell :  2 p   5.000
  | Found free-ion valence shell :  2 s   1.000
  | Found free-ion valence shell :  2 p   4.000
  | Found hydrogenic basis function :  2 p   1.700
  | Found hydrogenic basis function :  3 d   7.400
  | Found hydrogenic basis function :  3 s   6.800
  Species F                   : Missing cutoff potential type.
  Defaulting to exp(1/x)/(1-x)^2 type cutoff potential.
  Species F : No 'logarithmic' tag. Using default grid for free atom:
  | Default logarithmic grid data [bohr] : 0.1000E-03 0.1000E+03 0.1012E+01
  Species F : On-site basis accuracy parameter (for Gram-Schmidt orthonormalisation) not specified.
  Using default value basis_acc =  0.1000000E-03.
  Species F                   : Using default innermost maximum threshold i_radial=  2 for radial functions.
  Species F                   : Default cutoff onset for free atom density etc. : 0.35000000E+01 AA.
  Species F                   : Basic radial grid will be enhanced according to radial_multiplier =   1, to contain    37 grid points.
 
  Finished reading input file 'control.in'.
 
------------------------------------------------------------


------------------------------------------------------------
          Reading geometry description geometry.in.
------------------------------------------------------------
  | The smallest distance between any two atoms is         1.81649125 AA.
  | The first atom of this pair is atom number                      1 .
  | The second atom of this pair is atom number                    10 .
  Input structure read successfully.
  The structure contains       12 atoms,  and a total of        120.000 electrons.

  Input geometry:
  | No unit cell requested.
  | Atomic structure:
  |       Atom                x [A]            y [A]            z [A]
  |    1: Species Al            0.43196460       -0.59825788        1.75240892
  |    2: Species Al            2.30713296       -1.75186725       -0.45342649
  |    3: Species Al           -0.91467698       -1.86811134       -1.06747574
  |    4: Species F             3.33505251       -0.34192439       -0.98616060
  |    5: Species F            -1.92983905       -0.72197709       -2.04751022
  |    6: Species F             2.54228079       -3.56362328       -0.34713259
  |    7: Species F            -1.37146137       -3.61632079       -1.26344387
  |    8: Species F             2.00328780       -1.39781273        1.30981660
  |    9: Species F             0.82050496       -1.50863808       -1.49092066
  |   10: Species F             0.30664235       -1.16982224        3.47207428
  |   11: Species F             0.53806058        1.13684897        1.21778807
  |   12: Species F            -0.83031127       -1.46579992        0.73007181

 
  Finished reading input file 'control.in'.
 

------------------------------------------------------------
          Reading geometry description geometry.in.
------------------------------------------------------------
 
  Consistency checks for stacksize environment parameter are next.
 
  | Maximum stacksize for task 0: unlimited
  | Maximum stacksize for task 1: unlimited
  | Maximum stacksize for task 2: unlimited
  | Maximum stacksize for task 3: unlimited
  | Maximum stacksize for task 4: unlimited
  | Maximum stacksize for task 5: unlimited
  | Maximum stacksize for task 6: unlimited
  | Maximum stacksize for task 7: unlimited
  | Maximum stacksize for task 8: unlimited
  | Maximum stacksize for task 9: unlimited
  | Maximum stacksize for task 10: unlimited
  | Maximum stacksize for task 11: unlimited
  | Maximum stacksize for task 12: unlimited
  | Maximum stacksize for task 13: unlimited
  | Maximum stacksize for task 14: unlimited
  | Maximum stacksize for task 15: unlimited
  | Maximum stacksize for task 16: unlimited
  | Maximum stacksize for task 17: unlimited
  | Maximum stacksize for task 18: unlimited
  | Maximum stacksize for task 19: unlimited
  | Maximum stacksize for task 20: unlimited
  | Maximum stacksize for task 21: unlimited
  | Maximum stacksize for task 22: unlimited
  | Maximum stacksize for task 23: unlimited
  | Current stacksize for task 0: unlimited
  | Current stacksize for task 1: unlimited
  | Current stacksize for task 2: unlimited
  | Current stacksize for task 3: unlimited
  | Current stacksize for task 4: unlimited
  | Current stacksize for task 5: unlimited
  | Current stacksize for task 6: unlimited
  | Current stacksize for task 7: unlimited
  | Current stacksize for task 8: unlimited
  | Current stacksize for task 9: unlimited
  | Current stacksize for task 10: unlimited
  | Current stacksize for task 11: unlimited
  | Current stacksize for task 12: unlimited
  | Current stacksize for task 13: unlimited
  | Current stacksize for task 14: unlimited
  | Current stacksize for task 15: unlimited
  | Current stacksize for task 16: unlimited
  | Current stacksize for task 17: unlimited
  | Current stacksize for task 18: unlimited
  | Current stacksize for task 19: unlimited
  | Current stacksize for task 20: unlimited
  | Current stacksize for task 21: unlimited
  | Current stacksize for task 22: unlimited
  | Current stacksize for task 23: unlimited
 
  Consistency checks for the contents of control.in are next.
 
  MPI_IN_PLACE appears to work with this MPI implementation.
  | Keeping use_mpi_in_place .true. (see manual).
  Target number of points in a grid batch is not set. Defaulting to  100
  Method for grid partitioning is not set. Defaulting to parallel hash+maxmin partitioning.
  Batch size limit is not set. Defaulting to    200
  By default, will store active basis functions for each batch.
  If in need of memory, prune_basis_once .false. can be used to disable this option.
  communication_type for Hartree potential was not specified.
  Defaulting to calc_hartree .
  Pulay mixer: Number of initial linear mixing iterations not set.
  Defaulting to    0 iterations.
  Work space size for distributed Hartree potential not set.
  Defaulting to   0.200000E+03 MB.
  Algorithm-dependent basis array size parameters:
  | n_max_pulay                         :       10
  Presetting      1001 iterations before the initial mixing cycle
  is restarted anyway using the sc_init_iter criterion / keyword.
  Presetting a factor      1.000 between actual scf density residual
  and density convergence criterion sc_accuracy_rho below which sc_init_iter
  takes no effect.
  Geometry relaxation not requested: no relaxation will be performed.
  Forces evaluation will include force correction term due to incomplete self-consistency (default).
  Handling of forces: Unphysical translation and rotation will be removed from forces.
  No accuracy limit for integral partition fn. given. Defaulting to  0.1000E-14.
  No threshold value for u(r) in integrations given. Defaulting to  0.1000E-05.
  No accuracy for occupation numbers given. Defaulting to  0.1000E-12.
  No threshold value for occupation numbers given. Defaulting to  0.0000E+00.
  No accuracy for fermi level given. Defaulting to  0.1000E-19.
  Maximum # of iterations to find E_F not set. Defaulting to  200.
  Preferred method for the eigenvalue solver ('KS_method') not specified in 'control.in'.
  Calling BLACS routine to test compilation state
  Since ScaLAPACK support is enabled, defaulting to ELPA (via ELSI).
  Will not use alltoall communication since running on < 1024 CPUs.
  Threshold for basis singularities not set.
  Default threshold for basis singularities:  0.1000E-04
  partition_type (choice of integration weights) for integrals was not specified.
  | Using a version of the partition function of Stratmann and coworkers ('stratmann_sparse').
  | At each grid point, the set of atoms used to build the partition table is smoothly restricted to
  | only those atoms whose free-atom density would be non-zero at that grid point.
  Partitioning for Hartree potential was not defined. Using partition_type for integrals.
  | Adjusted default value of keyword multip_moments_threshold to:       0.10000000E-11
  | This value may affect high angular momentum components of the Hartree potential in periodic systems.
  No q(lm)/r^(l+1) cutoff set for long-range Hartree potential.
  | Using default value of  0.100000E-09 .
  | Verify using the multipole_threshold keyword.
  Defaulting to new monopole extrapolation.
  Density update method: automatic selection selected.
  Charge integration errors on the 3D integration grid will be compensated
  by explicit normalization and distribution of residual charges.
  Use the "compensate_multipole_errors" flag to change this behaviour.
  Set 'collect_eigenvectors' to be '.true.' for use_density_matrix .false.
 
  Consistency checks for the contents of geometry.in are next.
 
  Number of empty states per atom not set in control.in - providing a guess from actual geometry.
  | Total number of empty states used during s.c.f. cycle:       36
  If you use a very high smearing, use empty_states (per atom!) in control.in to increase this value.

  Structure-dependent array size parameters: 
  | Maximum number of distinct radial functions  :       14
  | Maximum number of basis functions            :      180
  | Number of Kohn-Sham states (occupied + empty):       96
------------------------------------------------------------

------------------------------------------------------------
          Preparing all fixed parts of the calculation.
------------------------------------------------------------
  Determining machine precision:
    2.225073858507201E-308
  Setting up grids for atomic and cluster calculations.

  Creating wave function, potential, and density for free atoms.

  Species: Al

  List of occupied orbitals and eigenvalues:
    n    l              occ      energy [Ha]    energy [eV]
    1    0           2.0000       -55.621123     -1513.5278
    2    0           2.0000        -3.957030      -107.6763
    3    0           2.0000        -0.272233        -7.4078
    2    1           6.0000        -2.540949       -69.1427
    3    1           1.0000        -0.083300        -2.2667


  Species: F

  List of occupied orbitals and eigenvalues:
    n    l              occ      energy [Ha]    energy [eV]
    1    0           2.0000       -24.399611      -663.9472
    2    0           2.0000        -1.098702       -29.8972
    2    1           5.0000        -0.408210       -11.1080


  Adding cutoff potential to free-atom effective potential.
  Creating fixed part of basis set: Ionic, confined, hydrogenic.
 
  Al                   ion:

  List of free ionic orbitals and eigenvalues:
    n    l      energy [Ha]    energy [eV]
    1    0       -56.418846     -1535.2349
    2    0        -4.732717      -128.7838
    3    0        -0.872690       -23.7471
    2    1        -3.317230       -90.2664


  List of ionic basis orbitals and eigenvalues:
    n    l      energy [Ha]    energy [eV]    outer radius [A]
    3    2        -0.346815        -9.4373       4.594041
    3    1        -0.631870       -17.1940       4.538221
    3    0        -0.872657       -23.7462       4.538221

 
  F                    hydrogenic:
 
  List of hydrogenic basis orbitals: 
    n    l      effective z      eigenvalue [eV]  inner max. [A]     outer max. [A]     outer radius [A]   
    2    1         1.700000        -9.7616           1.243167           1.243167           4.598524
    3    2         7.400000       -82.7828           0.642437           0.642437           3.305741
    3    0         6.800000       -69.9026           0.057798           1.022307           3.781556
 
  Creating atomic-like basis functions for current effective potential.

  Species Al                  :

  List of atomic basis orbitals and eigenvalues:
    n    l      energy [Ha]    energy [eV]    outer radius [A]
    1    0       -55.621123     -1513.5278       0.850197
    2    0        -3.957030      -107.6763       3.144911
    3    0        -0.272233        -7.4078       4.594041
    2    1        -2.540949       -69.1427       3.731966
    3    1        -0.083300        -2.2667       4.594041


  Species F                   :

  List of atomic basis orbitals and eigenvalues:
    n    l      energy [Ha]    energy [eV]    outer radius [A]
    1    0       -24.399611      -663.9472       1.258458
    2    0        -1.098702       -29.8972       4.325857
    2    1        -0.408210       -11.1080       4.487453

  Assembling full basis from fixed parts.
  | Species Al :   atomic orbital   1 s accepted.
  | Species Al :   atomic orbital   2 s accepted.
  | Species Al :    ionic orbital   3 s accepted.
  | Species Al :   atomic orbital   3 s accepted.
  | Species Al :   atomic orbital   2 p accepted.
  | Species Al :    ionic orbital   3 p accepted.
  | Species Al :   atomic orbital   3 p accepted.
  | Species Al :    ionic orbital   3 d accepted.
  | Species F :   atomic orbital   1 s accepted.
  | Species F :    hydro orbital   3 s accepted.
  | Species F :   atomic orbital   2 s accepted.
  | Species F :   atomic orbital   2 p accepted.
  | Species F :    hydro orbital   2 p accepted.
  | Species F :    hydro orbital   3 d accepted.
 
  Basis size parameters after reduction:
  | Total number of radial functions:       14
  | Total number of basis functions :      180
 
  Per-task memory consumption for arrays in subroutine allocate_ext:
  |           4.807768MB.
  Testing on-site integration grid accuracy.
  |  Species  Function  <phi|h_atom|phi> (log., in eV)  <phi|h_atom|phi> (rad., in eV)
           1        1              -1513.5277717935              -1513.5271881332
           1        2               -107.6762691836               -107.6762662489
           1        3                 -6.9467474784                 -6.9471269649
           1        4                  5.5771951849                  5.4862107220 ***
           1        5                -69.1427313144                -69.1427312731
           1        6                 -1.5197375330                 -1.5230432022
           1        7                  6.8210948310                  6.5529872240 ***
           1        8                  4.3216540965                  4.2851170187 ***
           2        9               -663.9471986398               -663.9470363334
           2       10                 16.8514011578                 16.8512525338
           2       11                -28.4490593856                -28.4490661472
           2       12                -11.1080115307                -11.1080620173
           2       13                  7.1940182175                  7.1685154137
           2       14                 44.8544281765                 44.8543763625
 * Note: Onsite integrals marked "***" above are less accurate than
 * onsite_accuracy_threshold =    0.03000 eV. Usually, this is harmless.
 * When in doubt, tighten the "radial" and/or "radial_multiplier" flags to check.

  Preparing densities etc. for the partition functions (integrals / Hartree potential).

  Preparations completed.
  max(cpu_time)          :      0.185 s.
  Wall clock time (cpu1) :      0.185 s.
------------------------------------------------------------

------------------------------------------------------------
          Begin self-consistency loop: Initialization.

          Date     :  20220517, Time     :  113009.408
------------------------------------------------------------

  Initializing index lists of integration centers etc. from given atomic structure:
  | Number of centers in hartree potential         :        12
  | Number of centers in hartree multipole         :        12
  | Number of centers in electron density summation:        12
  | Number of centers in basis integrals           :        12
  | Number of centers in integrals                 :        12
  | Number of centers in hamiltonian               :        12
  * Using 24 tasks for Scalapack Eigenvalue solver.
  Detailed listing of tasks and assigned k-points:
  (for non-periodic systems, the "k-point" denotes an internal label only)
   Task     0 k-point     1 on node-k98a-011
   Task     1 k-point     1 on node-k98a-011
   Task     2 k-point     1 on node-k98a-011
   Task     3 k-point     1 on node-k98a-011
   Task     4 k-point     1 on node-k98a-011
   Task     5 k-point     1 on node-k98a-011
   Task     6 k-point     1 on node-k98a-011
   Task     7 k-point     1 on node-k98a-011
   Task     8 k-point     1 on node-k98a-011
   Task     9 k-point     1 on node-k98a-011
   Task    10 k-point     1 on node-k98a-011
   Task    11 k-point     1 on node-k98a-011
   Task    12 k-point     1 on node-k98a-011
   Task    13 k-point     1 on node-k98a-011
   Task    14 k-point     1 on node-k98a-011
   Task    15 k-point     1 on node-k98a-011
   Task    16 k-point     1 on node-k98a-011
   Task    17 k-point     1 on node-k98a-011
   Task    18 k-point     1 on node-k98a-011
   Task    19 k-point     1 on node-k98a-011
   Task    20 k-point     1 on node-k98a-011
   Task    21 k-point     1 on node-k98a-011
   Task    22 k-point     1 on node-k98a-011
   Task    23 k-point     1 on node-k98a-011
  Tasks:    24 split into      6 X      4 BLACS grid
  Calculating block size based on n_basis =          180  max_nprow =            6  max_npcol =            4
  ScaLAPACK block size set to:           16
  Allocating        0.012 MB for ovlp
  Allocating        0.012 MB for ham
  Allocating        0.012 MB for eigenvec
  Required Scalapack workspace - INTEGER:            1  REAL:             1
  Partitioning the integration grid into batches with parallel hashing+maxmin method.
  | Number of batches:     1001
  | Maximal batch size:     200
  | Minimal batch size:      29
  | Average batch size:      91.828
  | Standard deviation of batch sizes:      28.390

  Integration load balanced across    24 MPI tasks.
  Work distribution over tasks is as follows:
  Task     0 has       3792 integration points.
  Task     1 has       3849 integration points.
  Task     2 has       3846 integration points.
  Task     3 has       3770 integration points.
  Task     4 has       3848 integration points.
  Task     5 has       3828 integration points.
  Task     6 has       3811 integration points.
  Task     7 has       3808 integration points.
  Task     8 has       3853 integration points.
  Task     9 has       3905 integration points.
  Task    10 has       3852 integration points.
  Task    11 has       3803 integration points.
  Task    12 has       3855 integration points.
  Task    13 has       3807 integration points.
  Task    14 has       3743 integration points.
  Task    15 has       3859 integration points.
  Task    16 has       3898 integration points.
  Task    17 has       3836 integration points.
  Task    18 has       3747 integration points.
  Task    19 has       3846 integration points.
  Task    20 has       3841 integration points.
  Task    21 has       3832 integration points.
  Task    22 has       3843 integration points.
  Task    23 has       3848 integration points.
  Initializing partition tables, free-atom densities, potentials, etc. across the integration grid (initialize_grid_storage).
  | initialize_grid_storage: Actual outermost partition radius vs. multipole_radius_free
  | (-- VB: in principle, multipole_radius_free should be larger, hence this output)
  | Species        1: Confinement radius =              4.999999999999999 AA, multipole_radius_free =              5.004487022111096 AA.
  | Species        1: outer_partition_radius set to              5.004487022111096 AA .
  | Species        2: Confinement radius =              4.999999999999999 AA, multipole_radius_free =              5.009370088163274 AA.
  | Species        2: outer_partition_radius set to              5.009370088163274 AA .
  | The sparse table of interatomic distances needs          1.64 kbyte instead of         1.15 kbyte of memory.
  | Using the partition_type stratmann_smoother will reduce your memory usage.
  | Net number of integration points:    91920
  | of which are non-zero points    :    85800
  Renormalizing the initial density to the exact electron count on the 3D integration grid.
  | Initial density: Formal number of electrons (from input files) :     120.0000000000
  | Integrated number of electrons on 3D grid     :     119.9998268287
  | Charge integration error                      :      -0.0001731713
  | Normalization factor for density and gradient :       1.0000014431
  Renormalizing the free-atom superposition density to the exact electron count on the 3D integration grid.
  | Formal number of electrons (from input files) :     120.0000000000
  | Integrated number of electrons on 3D grid     :     119.9998268287
  | Charge integration error                      :      -0.0001731713
  | Normalization factor for density and gradient :       1.0000014431
  Obtaining max. number of non-zero basis functions in each batch (get_n_compute_maxes).
  | Maximal number of non-zero basis functions:      169 in task     0
  | Maximal number of non-zero basis functions:      164 in task     1
  | Maximal number of non-zero basis functions:      164 in task     2
  | Maximal number of non-zero basis functions:      170 in task     3
  | Maximal number of non-zero basis functions:      165 in task     4
  | Maximal number of non-zero basis functions:      164 in task     5
  | Maximal number of non-zero basis functions:      164 in task     6
  | Maximal number of non-zero basis functions:      170 in task     7
  | Maximal number of non-zero basis functions:      163 in task     8
  | Maximal number of non-zero basis functions:      171 in task     9
  | Maximal number of non-zero basis functions:      170 in task    10
  | Maximal number of non-zero basis functions:      170 in task    11
  | Maximal number of non-zero basis functions:      161 in task    12
  | Maximal number of non-zero basis functions:      159 in task    13
  | Maximal number of non-zero basis functions:      163 in task    14
  | Maximal number of non-zero basis functions:      160 in task    15
  | Maximal number of non-zero basis functions:      171 in task    16
  | Maximal number of non-zero basis functions:      170 in task    17
  | Maximal number of non-zero basis functions:      171 in task    18
  | Maximal number of non-zero basis functions:      166 in task    19
  | Maximal number of non-zero basis functions:      165 in task    20
  | Maximal number of non-zero basis functions:      165 in task    21
  | Maximal number of non-zero basis functions:      165 in task    22
  | Maximal number of non-zero basis functions:      165 in task    23
  Selecting the method for density update.
  Loop over occupied states selected for charge density update.
  Allocating        0.132 MB for KS_eigenvector
  Integrating Hamiltonian matrix: batch-based integration.
  Time summed over all CPUs for integration: real work        0.721 s, elapsed        0.764 s
  Integrating overlap matrix.
  Time summed over all CPUs for integration: real work        0.279 s, elapsed        0.304 s
  Deallocating overlap matrix.

  Updating Kohn-Sham eigenvalues and eigenvectors using ELSI and the ELPA eigensolver.
  Overlap matrix is not singular
  | Lowest and highest eigenvalues :  0.4060E-02,  0.5160E+01
  Finished singularity check of overlap matrix
  | Time :     0.004 s
  Starting ELPA eigensolver
  Finished Cholesky decomposition
  | Time :     0.002 s
  Finished transformation to standard eigenproblem
  | Time :     0.000 s
  Finished solving standard eigenproblem
  | Time :     0.004 s
  Finished back-transformation of eigenvectors
  | Time :     0.000 s

  Obtaining occupation numbers and chemical potential using ELSI.
  | Chemical potential (Fermi level):    -7.87617338 eV
  Writing Kohn-Sham eigenvalues.

  State    Occupation    Eigenvalue [Ha]    Eigenvalue [eV]
      1       2.00000         -55.483574        -1509.78487
      2       2.00000         -55.483555        -1509.78436
      3       2.00000         -55.483322        -1509.77800
      4       2.00000         -24.378474         -663.37203
      5       2.00000         -24.377474         -663.34483
      6       2.00000         -24.373654         -663.24086
      7       2.00000         -24.340526         -662.33942
      8       2.00000         -24.340396         -662.33588
      9       2.00000         -24.340355         -662.33476
     10       2.00000         -24.340261         -662.33221
     11       2.00000         -24.339615         -662.31463
     12       2.00000         -24.338974         -662.29719
     13       2.00000          -3.948870         -107.45423
     14       2.00000          -3.948830         -107.45313
     15       2.00000          -3.948514         -107.44453
     16       2.00000          -2.541248          -69.15087
     17       2.00000          -2.541216          -69.15000
     18       2.00000          -2.540800          -69.13868
     19       2.00000          -2.540738          -69.13701
     20       2.00000          -2.540627          -69.13399
     21       2.00000          -2.540594          -69.13309
     22       2.00000          -2.540527          -69.13126
     23       2.00000          -2.540195          -69.12223
     24       2.00000          -2.539954          -69.11568
     25       2.00000          -1.206420          -32.82836
     26       2.00000          -1.201233          -32.68723
     27       2.00000          -1.194942          -32.51603
     28       2.00000          -1.150255          -31.30002
     29       2.00000          -1.149768          -31.28677
     30       2.00000          -1.148038          -31.23969
     31       2.00000          -1.147663          -31.22950
     32       2.00000          -1.147118          -31.21466
     33       2.00000          -1.146234          -31.19061
     34       2.00000          -0.579187          -15.76047
     35       2.00000          -0.576202          -15.67926
     36       2.00000          -0.553527          -15.06224
     37       2.00000          -0.539047          -14.66821
     38       2.00000          -0.514708          -14.00592
     39       2.00000          -0.505802          -13.76356
     40       2.00000          -0.504236          -13.72095
     41       2.00000          -0.500659          -13.62363
     42       2.00000          -0.495352          -13.47921
     43       2.00000          -0.494194          -13.44770
     44       2.00000          -0.491015          -13.36120
     45       2.00000          -0.489328          -13.31530
     46       2.00000          -0.481457          -13.10110
     47       2.00000          -0.480293          -13.06945
     48       2.00000          -0.477019          -12.98035
     49       2.00000          -0.456625          -12.42539
     50       2.00000          -0.455187          -12.38626
     51       2.00000          -0.454402          -12.36491
     52       2.00000          -0.452907          -12.32424
     53       2.00000          -0.451597          -12.28859
     54       2.00000          -0.449971          -12.24432
     55       2.00000          -0.449252          -12.22478
     56       2.00000          -0.448717          -12.21022
     57       2.00000          -0.448044          -12.19191
     58       2.00000          -0.447246          -12.17018
     59       2.00000          -0.446691          -12.15508
     60       2.00000          -0.445703          -12.12820
     61       0.00000          -0.139093           -3.78491
     62       0.00000          -0.086004           -2.34028
     63       0.00000          -0.078275           -2.12998
     64       0.00000          -0.029486           -0.80235
     65       0.00000          -0.011373           -0.30947
     66       0.00000          -0.002548           -0.06933
     67       0.00000           0.002393            0.06511
     68       0.00000           0.039734            1.08122
     69       0.00000           0.048009            1.30640
     70       0.00000           0.055631            1.51379
     71       0.00000           0.081005            2.20426
     72       0.00000           0.086881            2.36415
     73       0.00000           0.139141            3.78623
     74       0.00000           0.161637            4.39837
     75       0.00000           0.165300            4.49803
     76       0.00000           0.182669            4.97066
     77       0.00000           0.184974            5.03340
     78       0.00000           0.190196            5.17550
     79       0.00000           0.193903            5.27638
     80       0.00000           0.198718            5.40740
     81       0.00000           0.203903            5.54848
     82       0.00000           0.211660            5.75955
     83       0.00000           0.219906            5.98394
     84       0.00000           0.230151            6.26274
     85       0.00000           0.241831            6.58057
     86       0.00000           0.254196            6.91703
     87       0.00000           0.276332            7.51937
     88       0.00000           0.294342            8.00946
     89       0.00000           0.299500            8.14980
     90       0.00000           0.301868            8.21426
     91       0.00000           0.306415            8.33797
     92       0.00000           0.317893            8.65032
     93       0.00000           0.343753            9.35398
     94       0.00000           0.350747            9.54431
     95       0.00000           0.358187            9.74678
     96       0.00000           0.365032            9.93302

  Highest occupied state (VBM) at    -12.12819511 eV
  | Occupation number:      2.00000000

  Lowest unoccupied state (CBM) at    -3.78490593 eV
  | Occupation number:      0.00000000

  Overall HOMO-LUMO gap:      8.34328918 eV.
  Calculating total energy contributions from superposition of free atom densities.

  Total energy components:
  | Sum of eigenvalues            :        -887.82466983 Ha      -24158.93845945 eV
  | XC energy correction          :        -144.32818092 Ha       -3927.36962532 eV
  | XC potential correction       :         187.92362804 Ha        5113.66209918 eV
  | Free-atom electrostatic energy:        -781.15390516 Ha      -21256.27926692 eV
  | Hartree energy correction     :           0.00000000 Ha           0.00000000 eV
  | Entropy correction            :           0.00000000 Ha           0.00000000 eV
  | ---------------------------
  | Total energy                  :       -1625.38312788 Ha      -44228.92525251 eV
  | Total energy, T -> 0          :       -1625.38312788 Ha      -44228.92525251 eV  <-- do not rely on this value for anything but (periodic) metals
  | Electronic free energy        :       -1625.38312788 Ha      -44228.92525251 eV

  Derived energy quantities:
  | Kinetic energy                :        1627.58145078 Ha       44288.74466235 eV
  | Electrostatic energy          :       -3108.63639774 Ha      -84590.30028953 eV
  | Energy correction for multipole
  | error in Hartree potential    :           0.00000000 Ha           0.00000000 eV
  | Sum of eigenvalues per atom                           :       -2013.24487162 eV
  | Total energy (T->0) per atom                          :       -3685.74377104 eV  <-- do not rely on this value for anything but (periodic) metals
  | Electronic free energy per atom                       :       -3685.74377104 eV
  Initialize hartree_potential_storage
  Max. number of atoms included in rho_multipole:           12

  End scf initialization - timings             :  max(cpu_time)    wall_clock(cpu1)
  | Time for scf. initialization                :        0.116 s           0.116 s
  | Boundary condition initialization           :        0.000 s           0.000 s
  | Integration                                 :        0.046 s           0.047 s
  | Solution of K.-S. eqns.                     :        0.011 s           0.011 s
  | Grid partitioning                           :        0.036 s           0.036 s
  | Preloading free-atom quantities on grid     :        0.016 s           0.016 s
  | Free-atom superposition energy              :        0.005 s           0.005 s
  | Total energy evaluation                     :        0.000 s           0.000 s

  Partial memory accounting:
  | Current value for overall tracked memory usage:
  |   Minimum:        0.273 MB (on task 23)
  |   Maximum:        0.292 MB (on task  0)
  |   Average:        0.287 MB
  | Peak value for overall tracked memory usage:
  |   Minimum:        1.339 MB (on task 15 after allocating wave)
  |   Maximum:        1.426 MB (on task  9 after allocating wave)
  |   Average:        1.386 MB
  | Largest tracked array allocation so far:
  |   Minimum:        0.244 MB (H_times_psi on task 15)
  |   Maximum:        0.490 MB (all_coords on task 10)
  |   Average:        0.279 MB
  Note:  These values currently only include a subset of arrays which are explicitly tracked.
  The "true" memory usage will be greater.
------------------------------------------------------------
  Evaluating new KS density.
  Integration grid: deviation in total charge (<rho> - N_e) =   4.263256E-14

  Time for density update prior                :  max(cpu_time)    wall_clock(cpu1)
  | self-consistency iterative process          :        0.028 s           0.028 s

------------------------------------------------------------
          Begin self-consistency iteration #    1

  Date     :  20220517, Time     :  113009.553
------------------------------------------------------------
  Pulay mixing of updated and previous charge densities.
  Renormalizing the density to the exact electron count on the 3D integration grid.
  | Formal number of electrons (from input files) :     120.0000000000
  | Integrated number of electrons on 3D grid     :     120.0000000000
  | Charge integration error                      :       0.0000000000
  | Normalization factor for density and gradient :       1.0000000000

  Evaluating partitioned Hartree potential by multipole expansion.
  | Original multipole sum: apparent total charge =  -0.200456E-13
  | Sum of charges compensated after spline to logarithmic grids =   0.114403E-03
  | Analytical far-field extrapolation by fixed multipoles:
  | Hartree multipole sum: apparent total charge =  -0.179072E-13
  Summing up the Hartree potential.
  Time summed over all CPUs for potential: real work        0.382 s, elapsed        0.391 s
  | RMS charge density error from multipole expansion :   0.106787E-01

  Integrating Hamiltonian matrix: batch-based integration.
  Time summed over all CPUs for integration: real work        0.672 s, elapsed        0.707 s

  Updating Kohn-Sham eigenvalues and eigenvectors using ELSI and the ELPA eigensolver.
  Starting ELPA eigensolver
  Finished transformation to standard eigenproblem
  | Time :     0.000 s
  Finished solving standard eigenproblem
  | Time :     0.003 s
  Finished back-transformation of eigenvectors
  | Time :     0.001 s

  Obtaining occupation numbers and chemical potential using ELSI.
  | Chemical potential (Fermi level):    -7.67355388 eV
  Writing Kohn-Sham eigenvalues.

  State    Occupation    Eigenvalue [Ha]    Eigenvalue [eV]
      1       2.00000         -55.650945        -1514.33926
      2       2.00000         -55.648534        -1514.27366
      3       2.00000         -55.645312        -1514.18599
      4       2.00000         -24.281060         -660.72125
      5       2.00000         -24.280018         -660.69290
      6       2.00000         -24.268069         -660.36775
      7       2.00000         -24.082686         -655.32322
      8       2.00000         -24.075001         -655.11412
      9       2.00000         -24.071146         -655.00922
     10       2.00000         -24.070232         -654.98435
     11       2.00000         -24.068804         -654.94547
     12       2.00000         -24.068178         -654.92845
     13       2.00000          -4.091079         -111.32393
     14       2.00000          -4.088994         -111.26720
     15       2.00000          -4.085643         -111.17599
     16       2.00000          -2.685168          -73.06713
     17       2.00000          -2.684394          -73.04607
     18       2.00000          -2.682687          -72.99963
     19       2.00000          -2.682214          -72.98675
     20       2.00000          -2.681639          -72.97111
     21       2.00000          -2.679961          -72.92546
     22       2.00000          -2.679275          -72.90678
     23       2.00000          -2.678516          -72.88613
     24       2.00000          -2.676949          -72.84349
     25       2.00000          -1.204888          -32.78668
     26       2.00000          -1.195776          -32.53873
     27       2.00000          -1.190257          -32.38854
     28       2.00000          -1.029089          -28.00294
     29       2.00000          -1.022749          -27.83040
     30       2.00000          -1.019414          -27.73968
     31       2.00000          -1.018070          -27.70310
     32       2.00000          -1.016655          -27.66458
     33       2.00000          -1.013788          -27.58658
     34       2.00000          -0.593839          -16.15919
     35       2.00000          -0.581973          -15.83629
     36       2.00000          -0.556272          -15.13692
     37       2.00000          -0.547237          -14.89109
     38       2.00000          -0.506683          -13.78754
     39       2.00000          -0.497766          -13.54489
     40       2.00000          -0.491861          -13.38423
     41       2.00000          -0.486819          -13.24703
     42       2.00000          -0.480860          -13.08487
     43       2.00000          -0.407692          -11.09386
     44       2.00000          -0.398086          -10.83246
     45       2.00000          -0.395046          -10.74975
     46       2.00000          -0.372054          -10.12410
     47       2.00000          -0.370118          -10.07141
     48       2.00000          -0.364907           -9.92962
     49       2.00000          -0.343089           -9.33592
     50       2.00000          -0.340281           -9.25951
     51       2.00000          -0.338180           -9.20235
     52       2.00000          -0.333568           -9.07684
     53       2.00000          -0.333138           -9.06514
     54       2.00000          -0.330325           -8.98859
     55       2.00000          -0.326044           -8.87211
     56       2.00000          -0.325181           -8.84863
     57       2.00000          -0.324916           -8.84141
     58       2.00000          -0.322936           -8.78754
     59       2.00000          -0.321594           -8.75101
     60       2.00000          -0.315517           -8.58566
     61       0.00000          -0.158010           -4.29966
     62       0.00000          -0.092876           -2.52728
     63       0.00000          -0.080391           -2.18756
     64       0.00000          -0.055672           -1.51491
     65       0.00000          -0.031345           -0.85293
     66       0.00000          -0.016678           -0.45382
     67       0.00000          -0.007742           -0.21066
     68       0.00000           0.026449            0.71970
     69       0.00000           0.030520            0.83049
     70       0.00000           0.035064            0.95415
     71       0.00000           0.049858            1.35672
     72       0.00000           0.066081            1.79817
     73       0.00000           0.133518            3.63321
     74       0.00000           0.153001            4.16336
     75       0.00000           0.161957            4.40706
     76       0.00000           0.175648            4.77963
     77       0.00000           0.181324            4.93408
     78       0.00000           0.184478            5.01989
     79       0.00000           0.191390            5.20800
     80       0.00000           0.194048            5.28031
     81       0.00000           0.195828            5.32874
     82       0.00000           0.207705            5.65194
     83       0.00000           0.212993            5.79585
     84       0.00000           0.218896            5.95648
     85       0.00000           0.228008            6.20440
     86       0.00000           0.248340            6.75768
     87       0.00000           0.267454            7.27778
     88       0.00000           0.279684            7.61060
     89       0.00000           0.285385            7.76571
     90       0.00000           0.288795            7.85852
     91       0.00000           0.298141            8.11282
     92       0.00000           0.300124            8.16678
     93       0.00000           0.323079            8.79143
     94       0.00000           0.337706            9.18945
     95       0.00000           0.364304            9.91322
     96       0.00000           0.374551           10.19205

  Highest occupied state (VBM) at     -8.58565595 eV
  | Occupation number:      2.00000000

  Lowest unoccupied state (CBM) at    -4.29966382 eV
  | Occupation number:      0.00000000

  Overall HOMO-LUMO gap:      4.28599213 eV.

  Total energy components:
  | Sum of eigenvalues            :        -882.64634381 Ha      -24018.02903896 eV
  | XC energy correction          :        -145.70783194 Ha       -3964.91183965 eV
  | XC potential correction       :         189.73705374 Ha        5163.00792323 eV
  | Free-atom electrostatic energy:        -781.15390516 Ha      -21256.27926692 eV
  | Hartree energy correction     :          -5.38355410 Ha        -146.49396061 eV
  | Entropy correction            :           0.00000000 Ha           0.00000000 eV
  | ---------------------------
  | Total energy                  :       -1625.15458127 Ha      -44222.70618291 eV
  | Total energy, T -> 0          :       -1625.15458127 Ha      -44222.70618291 eV  <-- do not rely on this value for anything but (periodic) metals
  | Electronic free energy        :       -1625.15458127 Ha      -44222.70618291 eV

  Derived energy quantities:
  | Kinetic energy                :        1634.27041950 Ha       44470.76076203 eV
  | Electrostatic energy          :       -3113.71716883 Ha      -84728.55510529 eV
  | Energy correction for multipole
  | error in Hartree potential    :           0.04467491 Ha           1.21566628 eV
  | Sum of eigenvalues per atom                           :       -2001.50241991 eV
  | Total energy (T->0) per atom                          :       -3685.22551524 eV  <-- do not rely on this value for anything but (periodic) metals
  | Electronic free energy per atom                       :       -3685.22551524 eV
  Evaluating new KS density.
  Integration grid: deviation in total charge (<rho> - N_e) =   0.000000E+00

  Self-consistency convergence accuracy:
  | Change of charge density      :  0.6137E+00
  | Change of sum of eigenvalues  :  0.1409E+03 eV
  | Change of total energy        :  0.6219E+01 eV


------------------------------------------------------------
  End self-consistency iteration #     1       :  max(cpu_time)    wall_clock(cpu1)
  | Time for this iteration                     :        0.081 s           0.081 s
  | Charge density update                       :        0.027 s           0.027 s
  | Density mixing                              :        0.000 s           0.001 s
  | Hartree multipole update                    :        0.001 s           0.001 s
  | Hartree multipole summation                 :        0.017 s           0.017 s
  | Integration                                 :        0.030 s           0.030 s
  | Solution of K.-S. eqns.                     :        0.004 s           0.004 s
  | Total energy evaluation                     :        0.000 s           0.001 s

  Partial memory accounting:
  | Current value for overall tracked memory usage:
  |   Minimum:        0.273 MB (on task 23)
  |   Maximum:        0.292 MB (on task  0)
  |   Average:        0.287 MB
  | Peak value for overall tracked memory usage:
  |   Minimum:        1.339 MB (on task 15 after allocating wave)
  |   Maximum:        1.426 MB (on task  9 after allocating wave)
  |   Average:        1.386 MB
  | Largest tracked array allocation so far:
  |   Minimum:        0.728 MB (gradient_basis_wave on task 13)
  |   Maximum:        0.783 MB (gradient_basis_wave on task  9)
  |   Average:        0.760 MB
  Note:  These values currently only include a subset of arrays which are explicitly tracked.
  The "true" memory usage will be greater.
------------------------------------------------------------

------------------------------------------------------------
          Begin self-consistency iteration #    2

  Date     :  20220517, Time     :  113009.639
------------------------------------------------------------
  Pulay mixing of updated and previous charge densities.
  Renormalizing the density to the exact electron count on the 3D integration grid.
  | Formal number of electrons (from input files) :     120.0000000000
  | Integrated number of electrons on 3D grid     :     120.0000000000
  | Charge integration error                      :       0.0000000000
  | Normalization factor for density and gradient :       1.0000000000

  Evaluating partitioned Hartree potential by multipole expansion.
  | Original multipole sum: apparent total charge =   0.340525E-14
  | Sum of charges compensated after spline to logarithmic grids =   0.758130E-04
  | Analytical far-field extrapolation by fixed multipoles:
  | Hartree multipole sum: apparent total charge =   0.184176E-14
  Summing up the Hartree potential.
  Time summed over all CPUs for potential: real work        0.380 s, elapsed        0.389 s
  | RMS charge density error from multipole expansion :   0.126268E-01

  Integrating Hamiltonian matrix: batch-based integration.
  Time summed over all CPUs for integration: real work        0.673 s, elapsed        0.707 s

  Updating Kohn-Sham eigenvalues and eigenvectors using ELSI and the ELPA eigensolver.
  Starting ELPA eigensolver
  Finished transformation to standard eigenproblem
  | Time :     0.000 s
  Finished solving standard eigenproblem
  | Time :     0.003 s
  Finished back-transformation of eigenvectors
  | Time :     0.000 s

  Obtaining occupation numbers and chemical potential using ELSI.
  | Chemical potential (Fermi level):    -7.92152412 eV
  Highest occupied state (VBM) at     -9.77339067 eV
  | Occupation number:      2.00000000

  Lowest unoccupied state (CBM) at    -4.48562123 eV
  | Occupation number:      0.00000000

  Overall HOMO-LUMO gap:      5.28776944 eV.

  Checking to see if s.c.f. parameters should be adjusted.

  Total energy components:
  | Sum of eigenvalues            :        -885.85042973 Ha      -24105.21665277 eV
  | XC energy correction          :        -145.20087520 Ha       -3951.11684491 eV
  | XC potential correction       :         189.07001768 Ha        5144.85694842 eV
  | Free-atom electrostatic energy:        -781.15390516 Ha      -21256.27926692 eV
  | Hartree energy correction     :          -1.94901659 Ha         -53.03543989 eV
  | Entropy correction            :           0.00000000 Ha           0.00000000 eV
  | ---------------------------
  | Total energy                  :       -1625.08420900 Ha      -44220.79125608 eV
  | Total energy, T -> 0          :       -1625.08420900 Ha      -44220.79125608 eV  <-- do not rely on this value for anything but (periodic) metals
  | Electronic free energy        :       -1625.08420900 Ha      -44220.79125608 eV

  Derived energy quantities:
  | Kinetic energy                :        1630.32587387 Ha       44363.42421429 eV
  | Electrostatic energy          :       -3110.20920767 Ha      -84633.09862545 eV
  | Energy correction for multipole
  | error in Hartree potential    :           0.04864978 Ha           1.32382797 eV
  | Sum of eigenvalues per atom                           :       -2008.76805440 eV
  | Total energy (T->0) per atom                          :       -3685.06593801 eV  <-- do not rely on this value for anything but (periodic) metals
  | Electronic free energy per atom                       :       -3685.06593801 eV
  Evaluating new KS density.
  Integration grid: deviation in total charge (<rho> - N_e) =   1.421085E-14

  Self-consistency convergence accuracy:
  | Change of charge density      :  0.4994E+00
  | Change of sum of eigenvalues  : -0.8719E+02 eV
  | Change of total energy        :  0.1915E+01 eV


------------------------------------------------------------
  End self-consistency iteration #     2       :  max(cpu_time)    wall_clock(cpu1)
  | Time for this iteration                     :        0.083 s           0.081 s
  | Charge density update                       :        0.027 s           0.027 s
  | Density mixing                              :        0.004 s           0.002 s
  | Hartree multipole update                    :        0.001 s           0.001 s
  | Hartree multipole summation                 :        0.016 s           0.017 s
  | Integration                                 :        0.030 s           0.030 s
  | Solution of K.-S. eqns.                     :        0.004 s           0.004 s
  | Total energy evaluation                     :        0.000 s           0.000 s

  Partial memory accounting:
  | Current value for overall tracked memory usage:
  |   Minimum:        0.274 MB (on task 23)
  |   Maximum:        0.293 MB (on task  0)
  |   Average:        0.288 MB
  | Peak value for overall tracked memory usage:
  |   Minimum:        1.339 MB (on task 15 after allocating wave)
  |   Maximum:        1.426 MB (on task  9 after allocating wave)
  |   Average:        1.386 MB
  | Largest tracked array allocation so far:
  |   Minimum:        0.728 MB (gradient_basis_wave on task 13)
  |   Maximum:        0.783 MB (gradient_basis_wave on task  9)
  |   Average:        0.760 MB
  Note:  These values currently only include a subset of arrays which are explicitly tracked.
  The "true" memory usage will be greater.
------------------------------------------------------------

------------------------------------------------------------
          Begin self-consistency iteration #    3

  Date     :  20220517, Time     :  113009.726
------------------------------------------------------------
  Pulay mixing of updated and previous charge densities.
  Renormalizing the density to the exact electron count on the 3D integration grid.
  | Formal number of electrons (from input files) :     120.0000000000
  | Integrated number of electrons on 3D grid     :     120.0000000000
  | Charge integration error                      :      -0.0000000000
  | Normalization factor for density and gradient :       1.0000000000

  Evaluating partitioned Hartree potential by multipole expansion.
  | Original multipole sum: apparent total charge =  -0.652824E-13
  | Sum of charges compensated after spline to logarithmic grids =   0.976097E-04
  | Analytical far-field extrapolation by fixed multipoles:
  | Hartree multipole sum: apparent total charge =  -0.658420E-13
  Summing up the Hartree potential.
  Time summed over all CPUs for potential: real work        0.381 s, elapsed        0.390 s
  | RMS charge density error from multipole expansion :   0.172912E-01

  Integrating Hamiltonian matrix: batch-based integration.
  Time summed over all CPUs for integration: real work        0.672 s, elapsed        0.708 s

  Updating Kohn-Sham eigenvalues and eigenvectors using ELSI and the ELPA eigensolver.
  Starting ELPA eigensolver
  Finished transformation to standard eigenproblem
  | Time :     0.000 s
  Finished solving standard eigenproblem
  | Time :     0.003 s
  Finished back-transformation of eigenvectors
  | Time :     0.000 s

  Obtaining occupation numbers and chemical potential using ELSI.
  | Chemical potential (Fermi level):    -7.97176364 eV
  Highest occupied state (VBM) at     -9.55972123 eV
  | Occupation number:      2.00000000

  Lowest unoccupied state (CBM) at    -4.74324912 eV
  | Occupation number:      0.00000000

  Overall HOMO-LUMO gap:      4.81647211 eV.

  Total energy components:
  | Sum of eigenvalues            :        -886.96919310 Ha      -24135.65975304 eV
  | XC energy correction          :        -145.16958038 Ha       -3950.26526940 eV
  | XC potential correction       :         189.02752026 Ha        5143.70053488 eV
  | Free-atom electrostatic energy:        -781.15390516 Ha      -21256.27926692 eV
  | Hartree energy correction     :          -0.81793258 Ha         -22.25707803 eV
  | Entropy correction            :           0.00000000 Ha           0.00000000 eV
  | ---------------------------
  | Total energy                  :       -1625.08309096 Ha      -44220.76083251 eV
  | Total energy, T -> 0          :       -1625.08309096 Ha      -44220.76083251 eV  <-- do not rely on this value for anything but (periodic) metals
  | Electronic free energy        :       -1625.08309096 Ha      -44220.76083251 eV

  Derived energy quantities:
  | Kinetic energy                :        1628.66387687 Ha       44318.19897479 eV
  | Electrostatic energy          :       -3108.57738745 Ha      -84588.69453789 eV
  | Energy correction for multipole
  | error in Hartree potential    :           0.06399171 Ha           1.74130304 eV
  | Sum of eigenvalues per atom                           :       -2011.30497942 eV
  | Total energy (T->0) per atom                          :       -3685.06340271 eV  <-- do not rely on this value for anything but (periodic) metals
  | Electronic free energy per atom                       :       -3685.06340271 eV
  Evaluating new KS density.
  Integration grid: deviation in total charge (<rho> - N_e) =   2.842171E-14

  Self-consistency convergence accuracy:
  | Change of charge density      :  0.1271E+00
  | Change of sum of eigenvalues  : -0.3044E+02 eV
  | Change of total energy        :  0.3042E-01 eV


------------------------------------------------------------
  End self-consistency iteration #     3       :  max(cpu_time)    wall_clock(cpu1)
  | Time for this iteration                     :        0.083 s           0.081 s
  | Charge density update                       :        0.027 s           0.027 s
  | Density mixing                              :        0.004 s           0.002 s
  | Hartree multipole update                    :        0.001 s           0.001 s
  | Hartree multipole summation                 :        0.016 s           0.017 s
  | Integration                                 :        0.030 s           0.029 s
  | Solution of K.-S. eqns.                     :        0.004 s           0.005 s
  | Total energy evaluation                     :        0.000 s           0.000 s

  Partial memory accounting:
  | Current value for overall tracked memory usage:
  |   Minimum:        0.274 MB (on task 23)
  |   Maximum:        0.293 MB (on task  0)
  |   Average:        0.288 MB
  | Peak value for overall tracked memory usage:
  |   Minimum:        1.339 MB (on task 15 after allocating wave)
  |   Maximum:        1.426 MB (on task  9 after allocating wave)
  |   Average:        1.386 MB
  | Largest tracked array allocation so far:
  |   Minimum:        0.728 MB (gradient_basis_wave on task 13)
  |   Maximum:        0.783 MB (gradient_basis_wave on task  9)
  |   Average:        0.760 MB
  Note:  These values currently only include a subset of arrays which are explicitly tracked.
  The "true" memory usage will be greater.
------------------------------------------------------------

------------------------------------------------------------
          Begin self-consistency iteration #    4

  Date     :  20220517, Time     :  113009.813
------------------------------------------------------------
  Pulay mixing of updated and previous charge densities.
  Renormalizing the density to the exact electron count on the 3D integration grid.
  | Formal number of electrons (from input files) :     120.0000000000
  | Integrated number of electrons on 3D grid     :     120.0000000000
  | Charge integration error                      :       0.0000000000
  | Normalization factor for density and gradient :       1.0000000000

  Evaluating partitioned Hartree potential by multipole expansion.
  | Original multipole sum: apparent total charge =  -0.323337E-13
  | Sum of charges compensated after spline to logarithmic grids =   0.108153E-03
  | Analytical far-field extrapolation by fixed multipoles:
  | Hartree multipole sum: apparent total charge =  -0.338096E-13
  Summing up the Hartree potential.
  Time summed over all CPUs for potential: real work        0.380 s, elapsed        0.390 s
  | RMS charge density error from multipole expansion :   0.196384E-01

  Integrating Hamiltonian matrix: batch-based integration.
  Time summed over all CPUs for integration: real work        0.672 s, elapsed        0.707 s

  Updating Kohn-Sham eigenvalues and eigenvectors using ELSI and the ELPA eigensolver.
  Starting ELPA eigensolver
  Finished transformation to standard eigenproblem
  | Time :     0.000 s
  Finished solving standard eigenproblem
  | Time :     0.003 s
  Finished back-transformation of eigenvectors
  | Time :     0.000 s

  Obtaining occupation numbers and chemical potential using ELSI.
  | Chemical potential (Fermi level):    -7.98095120 eV
  Highest occupied state (VBM) at     -9.63546036 eV
  | Occupation number:      2.00000000

  Lowest unoccupied state (CBM) at    -4.70235645 eV
  | Occupation number:      0.00000000

  Overall HOMO-LUMO gap:      4.93310392 eV.

  Total energy components:
  | Sum of eigenvalues            :        -887.15833147 Ha      -24140.80646989 eV
  | XC energy correction          :        -145.14988256 Ha       -3949.72926442 eV
  | XC potential correction       :         189.00079199 Ha        5142.97322172 eV
  | Free-atom electrostatic energy:        -781.15390516 Ha      -21256.27926692 eV
  | Hartree energy correction     :          -0.61955111 Ha         -16.85884339 eV
  | Entropy correction            :           0.00000000 Ha           0.00000000 eV
  | ---------------------------
  | Total energy                  :       -1625.08087830 Ha      -44220.70062290 eV
  | Total energy, T -> 0          :       -1625.08087830 Ha      -44220.70062290 eV  <-- do not rely on this value for anything but (periodic) metals
  | Electronic free energy        :       -1625.08087830 Ha      -44220.70062290 eV

  Derived energy quantities:
  | Kinetic energy                :        1627.89857478 Ha       44297.37404543 eV
  | Electrostatic energy          :       -3107.82957052 Ha      -84568.34540391 eV
  | Energy correction for multipole
  | error in Hartree potential    :           0.07132498 Ha           1.94085146 eV
  | Sum of eigenvalues per atom                           :       -2011.73387249 eV
  | Total energy (T->0) per atom                          :       -3685.05838524 eV  <-- do not rely on this value for anything but (periodic) metals
  | Electronic free energy per atom                       :       -3685.05838524 eV
  Evaluating new KS density.
  Integration grid: deviation in total charge (<rho> - N_e) =   1.421085E-14

  Self-consistency convergence accuracy:
  | Change of charge density      :  0.8671E-01
  | Change of sum of eigenvalues  : -0.5147E+01 eV
  | Change of total energy        :  0.6021E-01 eV


------------------------------------------------------------
  End self-consistency iteration #     4       :  max(cpu_time)    wall_clock(cpu1)
  | Time for this iteration                     :        0.083 s           0.081 s
  | Charge density update                       :        0.027 s           0.027 s
  | Density mixing                              :        0.004 s           0.002 s
  | Hartree multipole update                    :        0.001 s           0.001 s
  | Hartree multipole summation                 :        0.017 s           0.017 s
  | Integration                                 :        0.030 s           0.029 s
  | Solution of K.-S. eqns.                     :        0.004 s           0.005 s
  | Total energy evaluation                     :        0.000 s           0.000 s

  Partial memory accounting:
  | Current value for overall tracked memory usage:
  |   Minimum:        0.274 MB (on task 23)
  |   Maximum:        0.293 MB (on task  0)
  |   Average:        0.288 MB
  | Peak value for overall tracked memory usage:
  |   Minimum:        1.339 MB (on task 15 after allocating wave)
  |   Maximum:        1.426 MB (on task  9 after allocating wave)
  |   Average:        1.386 MB
  | Largest tracked array allocation so far:
  |   Minimum:        0.728 MB (gradient_basis_wave on task 13)
  |   Maximum:        0.783 MB (gradient_basis_wave on task  9)
  |   Average:        0.760 MB
  Note:  These values currently only include a subset of arrays which are explicitly tracked.
  The "true" memory usage will be greater.
------------------------------------------------------------

------------------------------------------------------------
          Begin self-consistency iteration #    5

  Date     :  20220517, Time     :  113009.898
------------------------------------------------------------
  Pulay mixing of updated and previous charge densities.
  Renormalizing the density to the exact electron count on the 3D integration grid.
  | Formal number of electrons (from input files) :     120.0000000000
  | Integrated number of electrons on 3D grid     :     120.0000000000
  | Charge integration error                      :      -0.0000000000
  | Normalization factor for density and gradient :       1.0000000000

  Evaluating partitioned Hartree potential by multipole expansion.
  | Original multipole sum: apparent total charge =  -0.806806E-13
  | Sum of charges compensated after spline to logarithmic grids =   0.108439E-03
  | Analytical far-field extrapolation by fixed multipoles:
  | Hartree multipole sum: apparent total charge =  -0.799488E-13
  Summing up the Hartree potential.
  Time summed over all CPUs for potential: real work        0.380 s, elapsed        0.390 s
  | RMS charge density error from multipole expansion :   0.193771E-01

  Integrating Hamiltonian matrix: batch-based integration.
  Time summed over all CPUs for integration: real work        0.672 s, elapsed        0.707 s

  Updating Kohn-Sham eigenvalues and eigenvectors using ELSI and the ELPA eigensolver.
  Starting ELPA eigensolver
  Finished transformation to standard eigenproblem
  | Time :     0.000 s
  Finished solving standard eigenproblem
  | Time :     0.003 s
  Finished back-transformation of eigenvectors
  | Time :     0.000 s

  Obtaining occupation numbers and chemical potential using ELSI.
  | Chemical potential (Fermi level):    -7.95618919 eV
  Highest occupied state (VBM) at     -9.68211407 eV
  | Occupation number:      2.00000000

  Lowest unoccupied state (CBM) at    -4.63143233 eV
  | Occupation number:      0.00000000

  Overall HOMO-LUMO gap:      5.05068174 eV.

  Total energy components:
  | Sum of eigenvalues            :        -886.92680839 Ha      -24134.50640633 eV
  | XC energy correction          :        -145.14437442 Ha       -3949.57938046 eV
  | XC potential correction       :         188.99378404 Ha        5142.78252560 eV
  | Free-atom electrostatic energy:        -781.15390516 Ha      -21256.27926692 eV
  | Hartree energy correction     :          -0.84942583 Ha         -23.11405283 eV
  | Entropy correction            :           0.00000000 Ha           0.00000000 eV
[...]
   Total forces(   7)            :  0.106200E+01  0.307193E+01  0.574801E+00
  atom #    8
   Hellmann-Feynman              :  0.281452E+00 -0.836000E+00  0.406652E+00
   Ionic forces                  :  0.000000E+00  0.000000E+00  0.000000E+00
   Multipole                     :  0.176101E+00 -0.539446E-02  0.248740E+00
   Hartree pot. SCF incomplete   :  0.983403E-06  0.302098E-06  0.343200E-06
   Pulay + GGA                   : -0.128755E+01  0.100305E+01 -0.152456E+01
   ----------------------------------------------------------------
   Total forces(   8)            : -0.829995E+00  0.161651E+00 -0.869167E+00
  atom #    9
   Hellmann-Feynman              :  0.746994E-01  0.801484E+00 -0.248217E+00
   Ionic forces                  :  0.000000E+00  0.000000E+00  0.000000E+00
   Multipole                     :  0.109220E-02  0.112507E+00 -0.342995E+00
   Hartree pot. SCF incomplete   : -0.186138E-06  0.110521E-05  0.210486E-06
   Pulay + GGA                   : -0.226333E+00 -0.108427E+01  0.146221E+01
   ----------------------------------------------------------------
   Total forces(   9)            : -0.150541E+00 -0.170281E+00  0.870996E+00
  atom #   10
   Hellmann-Feynman              : -0.174177E+00 -0.104583E+01  0.299608E+01
   Ionic forces                  :  0.000000E+00  0.000000E+00  0.000000E+00
   Multipole                     : -0.111348E-01 -0.276493E+00  0.648394E+00
   Hartree pot. SCF incomplete   : -0.716095E-07 -0.722611E-06  0.827523E-06
   Pulay + GGA                   :  0.168676E+00  0.237191E+01 -0.673516E+01
   ----------------------------------------------------------------
   Total forces(  10)            : -0.166362E-01  0.104958E+01 -0.309068E+01
  atom #   11
   Hellmann-Feynman              :  0.156142E+00  0.278185E+01 -0.112173E+01
   Ionic forces                  :  0.000000E+00  0.000000E+00  0.000000E+00
   Multipole                     :  0.110748E+00  0.707980E+00 -0.270323E+00
   Hartree pot. SCF incomplete   :  0.607166E-06 -0.847285E-06 -0.281912E-05
   Pulay + GGA                   : -0.555662E+00 -0.673513E+01  0.211662E+01
   ----------------------------------------------------------------
   Total forces(  11)            : -0.288771E+00 -0.324530E+01  0.724569E+00
  atom #   12
   Hellmann-Feynman              :  0.137785E+00 -0.524097E+00  0.646070E-01
   Ionic forces                  :  0.000000E+00  0.000000E+00  0.000000E+00
   Multipole                     : -0.318907E+00 -0.139868E+00  0.200521E+00
   Hartree pot. SCF incomplete   : -0.142762E-06 -0.778252E-06 -0.294277E-06
   Pulay + GGA                   :  0.898094E+00  0.854962E+00 -0.625141E+00
   ----------------------------------------------------------------
   Total forces(  12)            :  0.716972E+00  0.190997E+00 -0.360014E+00


  Self-consistency convergence accuracy:
  | Change of charge density      :  0.1382E-06
  | Change of sum of eigenvalues  : -0.9272E-05 eV
  | Change of total energy        :  0.1584E-08 eV
  | Change of forces              :  0.4055E-06 eV/A

  Writing Kohn-Sham eigenvalues.

  State    Occupation    Eigenvalue [Ha]    Eigenvalue [eV]
      1       2.00000         -55.632526        -1513.83807
      2       2.00000         -55.632026        -1513.82444
      3       2.00000         -55.629801        -1513.76390
      4       2.00000         -24.342975         -662.40605
      5       2.00000         -24.339897         -662.32229
      6       2.00000         -24.331132         -662.08379
      7       2.00000         -24.224170         -659.17319
      8       2.00000         -24.219277         -659.04007
      9       2.00000         -24.215540         -658.93837
     10       2.00000         -24.212422         -658.85353
     11       2.00000         -24.211232         -658.82115
     12       2.00000         -24.209377         -658.77068
     13       2.00000          -4.086909         -111.21046
     14       2.00000          -4.086513         -111.19967
     15       2.00000          -4.083812         -111.12618
     16       2.00000          -2.680633          -72.94374
     17       2.00000          -2.680217          -72.93243
     18       2.00000          -2.680126          -72.92993
     19       2.00000          -2.679087          -72.90166
     20       2.00000          -2.677816          -72.86709
     21       2.00000          -2.675260          -72.79752
     22       2.00000          -2.674770          -72.78420
     23       2.00000          -2.674470          -72.77602
     24       2.00000          -2.672679          -72.72731
     25       2.00000          -1.224848          -33.32982
     26       2.00000          -1.216177          -33.09386
     27       2.00000          -1.210600          -32.94211
     28       2.00000          -1.071855          -29.16667
     29       2.00000          -1.066077          -29.00942
     30       2.00000          -1.061838          -28.89409
     31       2.00000          -1.060379          -28.85437
     32       2.00000          -1.060074          -28.84607
     33       2.00000          -1.055476          -28.72096
     34       2.00000          -0.612835          -16.67609
     35       2.00000          -0.600736          -16.34686
     36       2.00000          -0.576159          -15.67808
     37       2.00000          -0.565806          -15.39637
     38       2.00000          -0.524353          -14.26837
     39       2.00000          -0.518863          -14.11898
     40       2.00000          -0.511483          -13.91817
     41       2.00000          -0.507194          -13.80146
     42       2.00000          -0.500567          -13.62112
     43       2.00000          -0.442047          -12.02872
     44       2.00000          -0.433949          -11.80835
     45       2.00000          -0.431267          -11.73537
     46       2.00000          -0.413763          -11.25907
     47       2.00000          -0.411804          -11.20577
     48       2.00000          -0.405241          -11.02717
     49       2.00000          -0.381258          -10.37455
     50       2.00000          -0.378523          -10.30012
     51       2.00000          -0.376159          -10.23581
     52       2.00000          -0.371784          -10.11675
     53       2.00000          -0.370416          -10.07954
     54       2.00000          -0.368618          -10.03060
     55       2.00000          -0.366651           -9.97708
     56       2.00000          -0.366265           -9.96659
     57       2.00000          -0.365469           -9.94491
     58       2.00000          -0.363688           -9.89646
     59       2.00000          -0.360876           -9.81995
     60       2.00000          -0.354851           -9.65600
     61       0.00000          -0.170438           -4.63785
     62       0.00000          -0.104721           -2.84960
     63       0.00000          -0.092653           -2.52121
     64       0.00000          -0.062605           -1.70356
     65       0.00000          -0.037280           -1.01443
     66       0.00000          -0.021610           -0.58805
     67       0.00000          -0.013095           -0.35632
     68       0.00000           0.022623            0.61561
     69       0.00000           0.025450            0.69252
     70       0.00000           0.029824            0.81155
     71       0.00000           0.043546            1.18495
     72       0.00000           0.059337            1.61463
     73       0.00000           0.125082            3.40365
     74       0.00000           0.147829            4.02263
     75       0.00000           0.155925            4.24295
     76       0.00000           0.169568            4.61418
     77       0.00000           0.174628            4.75186
     78       0.00000           0.179015            4.87124
     79       0.00000           0.184549            5.02183
     80       0.00000           0.186272            5.06871
     81       0.00000           0.188672            5.13404
     82       0.00000           0.200672            5.46057
     83       0.00000           0.205318            5.58699
     84       0.00000           0.211078            5.74371
     85       0.00000           0.220927            6.01172
     86       0.00000           0.240149            6.53480
     87       0.00000           0.260535            7.08953
     88       0.00000           0.274123            7.45926
     89       0.00000           0.280084            7.62146
     90       0.00000           0.283008            7.70104
     91       0.00000           0.292395            7.95648
     92       0.00000           0.295807            8.04932
     93       0.00000           0.318005            8.65336
     94       0.00000           0.331252            9.01382
     95       0.00000           0.357199            9.71987
     96       0.00000           0.363869            9.90137

  Highest occupied state (VBM) at     -9.65599578 eV
  | Occupation number:      2.00000000

  Lowest unoccupied state (CBM) at    -4.63784972 eV
  | Occupation number:      0.00000000

  Overall HOMO-LUMO gap:      5.01814606 eV.
  | Chemical Potential                          :    -7.95495459 eV

  Self-consistency cycle converged.


------------------------------------------------------------
  End self-consistency iteration #    14       :  max(cpu_time)    wall_clock(cpu1)
  | Time for this iteration                     :        0.270 s           0.268 s
  | Charge density & force component update     :        0.148 s           0.148 s
  | Density mixing                              :        0.005 s           0.003 s
  | Hartree multipole update                    :        0.001 s           0.001 s
  | Hartree multipole summation                 :        0.049 s           0.049 s
  | Hartree pot. SCF incomplete forces          :        0.032 s           0.032 s
  | Integration                                 :        0.030 s           0.029 s
  | Solution of K.-S. eqns.                     :        0.004 s           0.004 s
  | Total energy evaluation                     :        0.000 s           0.000 s

  Partial memory accounting:
  | Current value for overall tracked memory usage:
  |   Minimum:        0.274 MB (on task 23)
  |   Maximum:        0.293 MB (on task  0)
  |   Average:        0.289 MB
  | Peak value for overall tracked memory usage:
  |   Minimum:        2.994 MB (on task 13 after allocating hessian_basis_wave)
  |   Maximum:        3.177 MB (on task  9 after allocating hessian_basis_wave)
  |   Average:        3.097 MB
  | Largest tracked array allocation so far:
  |   Minimum:        1.456 MB (hessian_basis_wave on task 13)
  |   Maximum:        1.566 MB (hessian_basis_wave on task  9)
  |   Average:        1.520 MB
  Note:  These values currently only include a subset of arrays which are explicitly tracked.
  The "true" memory usage will be greater.
------------------------------------------------------------
  Removing unitary transformations (pure translations, rotations) from forces on atoms.
  Atomic forces before filtering:
  | Net force on center of mass :  -0.100739E-01 -0.508843E-02  0.131246E-02 eV/A
  | Net torque on center of mass:  -0.242084E-02 -0.479108E-02  0.485365E-02 eV
  Atomic forces after filtering:
  | Net force on center of mass :   0.446015E-15  0.223008E-16 -0.401414E-15 eV/A
  | Net torque on center of mass:  -0.143973E-14  0.000000E+00  0.477943E-15 eV

  Energy and forces in a compact form:
  | Total energy uncorrected      :         -0.442206961644501E+05 eV
  | Total energy corrected        :         -0.442206961644501E+05 eV  <-- do not rely on this value for anything but (periodic) metals
  | Electronic free energy        :         -0.442206961644501E+05 eV
  Total atomic forces (unitary forces cleaned) [eV/Ang]:
  |    1         -0.501187865152128E-01          0.196062941449325E+01          0.292743115965495E+01
  |    2          0.298203470567810E+01         -0.740996218718140E+00         -0.896915992348727E+00
  |    3         -0.306723009662770E+01         -0.111172823636093E+01         -0.239851565526031E+01
  |    4         -0.181730685649986E+01         -0.269623730874519E+01          0.925574908545993E+00
  |    5          0.191693219813843E+01         -0.182699006201626E+01          0.193939122402282E+01
  |    6         -0.462660930955499E+00          0.335418061051734E+01         -0.346983081669427E+00
  |    7          0.106255864675947E+01          0.307258121377802E+01          0.574731201001418E+00
  |    8         -0.829067410661375E+00          0.161902205945987E+00         -0.869374945229097E+00
  |    9         -0.149820222776466E+00         -0.169805040750456E+00          0.870866632854209E+00
  |   10         -0.155371860806983E-01          0.104987758680493E+01         -0.309075874998726E+01
  |   11         -0.287637065372202E+00         -0.324492540293639E+01          0.724578561417020E+00
  |   12          0.717853004913009E+00          0.191511237987850E+00         -0.360025263001596E+00

  ------------------------------------ 
  Start decomposition of the XC Energy 
  ------------------------------------ 
  X and C from original XC functional choice 
  Hartree-Fock Energy :          0.000000000 Ha              0.000000000 eV
  X Energy            :       -140.212625908 Ha          -3815.379675336 eV
  C Energy            :         -4.936732667 Ha           -134.335330779 eV
  Total XC Energy     :       -145.149358575 Ha          -3949.715006116 eV
  ------------------------------------ 
  LDA X and C from self-consistent density 
  X Energy LDA        :       -132.781277827 Ha          -3613.162405347 eV
  C Energy LDA        :         -8.823687808 Ha           -240.104761650 eV
  ------------------------------------ 
  End decomposition of the XC Energy 
  ------------------------------------ 

------------------------------------------------------------

------------------------------------------------------------------------------
  Final output of selected total energy values:

  The following output summarizes some interesting total energy values
  at the end of a run (AFTER all relaxation, molecular dynamics, etc.).

  | Total energy of the DFT / Hartree-Fock s.c.f. calculation      :         -44220.696164450 eV
  | Final zero-broadening corrected energy (caution - metals only) :         -44220.696164450 eV
  | For reference only, the value of 1 Hartree used in FHI-aims is :             27.211384500 eV

  Before relying on these values, please be sure to understand exactly which
  total energy value is referred to by a given number. Different objects may
  all carry the same name 'total energy'. Definitions:

  Total energy of the DFT / Hartree-Fock s.c.f. calculation:
  | Note that this energy does not include ANY quantities calculated after the
  | s.c.f. cycle, in particular not ANY RPA, MP2, etc. many-body perturbation terms.

  Final zero-broadening corrected energy:
  | For metallic systems only, a broadening of the occupation numbers at the Fermi
  | level can be extrapolated back to zero broadening by an electron-gas inspired
  | formula. For all systems that are not real metals, this value can be
  | meaningless and should be avoided.

------------------------------------------------------------------------------
  Methods described in the following list of references were used in this FHI-aims run.
  If you publish the results, please make sure to cite these reference if they apply.
  FHI-aims is an academic code, and for our developers (often, Ph.D. students
  and postdocs), scientific credit in the community is essential.
  Thank you for helping us!

  For any use of FHI-aims, please cite:

    Volker Blum, Ralf Gehrke, Felix Hanke, Paula Havu, Ville Havu,
    Xinguo Ren, Karsten Reuter, and Matthias Scheffler
    'Ab initio molecular simulations with numeric atom-centered orbitals'
    Computer Physics Communications 180, 2175-2196 (2009)
    http://dx.doi.org/10.1016/j.cpc.2009.06.022


  The ELSI infrastructure was used in your run to solve the Kohn-Sham electronic structure.
  Please check out http://elsi-interchange.org to learn more.
  If scalability is important for your project, please acknowledge ELSI by citing:

    V. W-z. Yu, F. Corsetti, A. Garcia, W. P. Huhn, M. Jacquelin, W. Jia,
    B. Lange, L. Lin, J. Lu, W. Mi, A. Seifitokaldani, A. Vazquez-Mayagoitia,
    C. Yang, H. Yang, and V. Blum
    'ELSI: A unified software interface for Kohn-Sham electronic structure solvers'
    Computer Physics Communications 222, 267-285 (2018).
    http://dx.doi.org/10.1016/j.cpc.2017.09.007


  For the real-space grid partitioning and parallelization used in this calculation, please cite:

    Ville Havu, Volker Blum, Paula Havu, and Matthias Scheffler,
    'Efficient O(N) integration for all-electron electronic structure calculation'
    'using numerically tabulated basis functions'
    Journal of Computational Physics 228, 8367-8379 (2009).
    http://dx.doi.org/10.1016/j.jcp.2009.08.008

  Of course, there are many other important community references, e.g., those cited in the
  above references. Our list is limited to references that describe implementations in the
  FHI-aims code. The reason is purely practical (length of this list) - please credit others as well.

------------------------------------------------------------
          Leaving FHI-aims.
          Date     :  20220517, Time     :  113011.163

          Computational steps:
          | Number of self-consistency cycles          :           14
          | Number of SCF (re)initializations          :            1

          Detailed time accounting                     :  max(cpu_time)    wall_clock(cpu1)
          | Total time                                  :        1.918 s           2.573 s
          | Preparation time                            :        0.185 s           0.185 s
          | Boundary condition initalization            :        0.000 s           0.000 s
          | Grid partitioning                           :        0.036 s           0.036 s
          | Preloading free-atom quantities on grid     :        0.016 s           0.016 s
          | Free-atom superposition energy              :        0.005 s           0.005 s
          | Total time for integrations                 :        0.464 s           0.463 s
          | Total time for solution of K.-S. equations  :        0.067 s           0.067 s
          | Total time for density & force components   :        0.653 s           0.651 s
          | Total time for mixing                       :        0.058 s           0.040 s
          | Total time for Hartree multipole update     :        0.018 s           0.015 s
          | Total time for Hartree multipole sum        :        0.296 s           0.300 s
          | Total time for total energy evaluation      :        0.002 s           0.002 s
          | Total time NSC force correction             :        0.065 s           0.064 s
          | Total time for scaled ZORA corrections      :        0.000 s           0.000 s

          Partial memory accounting:
          | Residual value for overall tracked memory usage across tasks:     0.000000 MB (should be 0.000000 MB)
          | Peak values for overall tracked memory usage:
          |   Minimum:        2.994 MB (on task 13 after allocating hessian_basis_wave)
          |   Maximum:        3.177 MB (on task  9 after allocating hessian_basis_wave)
          |   Average:        3.097 MB
          | Largest tracked array allocation:
          |   Minimum:        1.456 MB (hessian_basis_wave on task 13)
          |   Maximum:        1.566 MB (hessian_basis_wave on task  9)
          |   Average:        1.520 MB
          Note:  These values currently only include a subset of arrays which are explicitly tracked.
          The "true" memory usage will be greater.

          Have a nice day.
------------------------------------------------------------
