------------------------------------------------------------
          Invoking FHI-aims ...

          When using FHI-aims, please cite the following reference:

            Volker Blum, Ralf Gehrke, Felix Hanke, Paula Havu,
            Ville Havu, Xinguo Ren, Karsten Reuter, and Matthias Scheffler,
            'Ab Initio Molecular Simulations with Numeric Atom-Centered Orbitals',
            Computer Physics Communications 180, 2175-2196 (2009)

          In addition, many other developments in FHI-aims are likely important for
          your particular application. A partial list of references is given at the end of
          this file. Thank you for giving credit to the authors of these developments.

          For any questions about FHI-aims, please visit our slack channel at

            https://fhi-aims.slack.com

          and our main development and support site at

            https://aims-git.rz-berlin.mpg.de .

          The latter site, in particular, has a wiki to collect information, as well
          as an issue tracker to log discussions, suggest improvements, and report issues
          or bugs. https://aims-git.rz-berlin.mpg.de is also the main development site
          of the project and all new and updated code versions can be obtained there.
          Please send an email to aims-coordinators@fhi-berlin.mpg.de and we will add
          you to these sites. They are for you and everyone is welcome there.

------------------------------------------------------------



  Date     :  20220517, Time     :  120601.627
  Time zero on CPU 1             :   0.411180000000000E-01  s.
  Internal wall clock time zero  :           422021161.627  s.

  FHI-aims created a unique identifier for this run for later identification
  aims_uuid : 09D386D0-9CF3-4562-AB0C-238E5D4C78CB

  Build configuration of the current instance of FHI-aims
  -------------------------------------------------------
  FHI-aims version      : 210914
  Commit number         : GITDIR-NOTFOUND
  CMake host system     : Linux-3.10.0-693.17.1.el7.x86_64
  CMake version         : 3.21.1
  Fortran compiler      : /shared/ucl/apps/intel/2018.Update3/impi/2018.3.222/intel64/bin/mpiifort (Intel) version 18.0.3.20180410
  Fortran compiler flags: -O3 -ip -fp-model precise
  C compiler            : /shared/ucl/apps/intel/2018.Update3/compilers_and_libraries_2018.3.222/linux/bin/intel64/icc (Intel) version 18.0.3.20180410
  C compiler flags      : -O3 -ip -fp-model precise -std=gnu99
  ELPA2 kernel          : AVX2
  Using MPI
  Using ScaLAPACK
  Using LibXC
  Using i-PI
  Using RLSY
  Linking against: /shared/ucl/apps/intel/2019.Update5/compilers_and_libraries_2019.5.281/linux/mkl/lib/intel64/libmkl_intel_lp64.so
                   /shared/ucl/apps/intel/2019.Update5/compilers_and_libraries_2019.5.281/linux/mkl/lib/intel64/libmkl_sequential.so
                   /shared/ucl/apps/intel/2019.Update5/compilers_and_libraries_2019.5.281/linux/mkl/lib/intel64/libmkl_core.so
                   /shared/ucl/apps/intel/2019.Update5/compilers_and_libraries_2019.5.281/linux/mkl/lib/intel64/libmkl_blacs_intelmpi_lp64.so
                   /shared/ucl/apps/intel/2019.Update5/compilers_and_libraries_2019.5.281/linux/mkl/lib/intel64/libmkl_scalapack_lp64.so

  Using       24 parallel tasks.
  Task        0 on host node-k98a-018 reporting.
  Task        1 on host node-k98a-018 reporting.
  Task        2 on host node-k98a-018 reporting.
  Task        3 on host node-k98a-018 reporting.
  Task        4 on host node-k98a-018 reporting.
  Task        5 on host node-k98a-018 reporting.
  Task        6 on host node-k98a-018 reporting.
  Task        7 on host node-k98a-018 reporting.
  Task        8 on host node-k98a-018 reporting.
  Task        9 on host node-k98a-018 reporting.
  Task       10 on host node-k98a-018 reporting.
  Task       11 on host node-k98a-018 reporting.
  Task       12 on host node-k98a-018 reporting.
  Task       13 on host node-k98a-018 reporting.
  Task       14 on host node-k98a-018 reporting.
  Task       15 on host node-k98a-018 reporting.
  Task       16 on host node-k98a-018 reporting.
  Task       17 on host node-k98a-018 reporting.
  Task       18 on host node-k98a-018 reporting.
  Task       19 on host node-k98a-018 reporting.
  Task       20 on host node-k98a-018 reporting.
  Task       21 on host node-k98a-018 reporting.
  Task       22 on host node-k98a-018 reporting.
  Task       23 on host node-k98a-018 reporting.

  Performing system and environment tests:
  | Environment variable OMP_NUM_THREADS correctly set to 1.
  | Checking for ScaLAPACK...
  | Testing pdtran()...
  | All pdtran() tests passed.

  Obtaining array dimensions for all initial allocations:
  
  -----------------------------------------------------------------------
  Parsing control.in (first pass over file, find array dimensions only).
  The contents of control.in will be repeated verbatim below
  unless switched off by setting 'verbatim_writeout .false.' .
  in the first line of control.in .
  -----------------------------------------------------------------------
  
  #########################################################################################  Physical model
  #########################################################################################
  xc                 pbesol
  spin               none
  relativistic       atomic_zora scalar
  charge             0.0
  #  SCF convergence
  occupation_type    gaussian 0.01
  mixer              pulay
  n_max_pulay        10
  charge_mix_param   0.5
  sc_accuracy_rho    1E-5
  sc_accuracy_eev    1E-3
  sc_accuracy_etot   1E-6
  sc_accuracy_forces 1E-4
  sc_iter_limit      1500
  #  Relaxation
  #relax_geometry   bfgs 1.e-3
  
  ################################################################################
  #
  #  FHI-aims code project
  #  VB, Fritz-Haber Institut, 2009
  #
  #  Suggested "light" defaults for Al atom (to be pasted into control.in file)
  #  Be sure to double-check any results obtained with these settings for post-processing,
  #  e.g., with the "tight" defaults and larger basis sets.
  #
  ################################################################################
    species        Al
  #     global species definitions
      nucleus             13
      mass                26.9815386
  #
      l_hartree           4
  #
      cut_pot             3.5          1.5  1.0
      basis_dep_cutoff    1e-4
  #
      radial_base         41 5.0
      radial_multiplier   1
      angular_grids       specified
        division   0.6594  110
        division   0.8170  194
        division   0.9059  302
  #      division   1.0363  434
  #      division   1.1443  590
  #      division   1.2621  770
  #      division   2.8177  974
  #      outer_grid   974
        outer_grid   302
  ################################################################################
  #
  #  Definition of "minimal" basis
  #
  ################################################################################
  #     valence basis states
      valence      3  s   2.
      valence      3  p   1.
  #     ion occupancy
      ion_occ      3  s   1.
      ion_occ      2  p   6.
  ################################################################################
  #
  #  Suggested additional basis functions. For production calculations,
  #  uncomment them one after another (the most important basis functions are
  #  listed first).
  #
  #  Constructed for dimers: 2.0 A, 2.5 A, 3.0 A, 3.75 A, 4.5 A
  #
  ################################################################################
  #  "First tier" - improvements: -199.47 meV to -10.63 meV
       ionic 3 d auto
       ionic 3 p auto
  #     hydro 4 f 4.7
       ionic 3 s auto
  #  "Second tier" - improvements: -5.35 meV to -1.57 meV
  #     hydro 5 g 7
  #     hydro 3 d 6
  #     hydro 2 s 11.6
  #     hydro 2 p 0.9
  #  "Third tier" - improvements: -0.63 meV to -0.20 meV
  #     hydro 5 f 7.6
  #     hydro 4 p 7.2
  #     hydro 4 s 3.7
  #     hydro 4 d 7.6
  #  "Fourth tier" - improvements: -0.17 meV to -0.08 meV
  #     hydro 4 d 13.6
  #     hydro 5 g 11.2
  #     hydro 4 d 0.9
  #     hydro 1 s 0.4
  #     hydro 4 p 0.1
  #     hydro 5 f 9.8
  #  Further basis functions that fell out of the optimization - noise level...
  #     hydro 4 p 5
  
  ################################################################################
  #
  #  FHI-aims code project
  #  VB, Fritz-Haber Institut, 2009
  #
  #  Suggested "light" defaults for F atom (to be pasted into control.in file)
  #  Be sure to double-check any results obtained with these settings for post-processing,
  #  e.g., with the "tight" defaults and larger basis sets.
  #
  ################################################################################
    species        F
  #     global species definitions
      nucleus             9
      mass                18.9984032
  #
      l_hartree           4
  #
      cut_pot             3.5  1.5  1.0
      basis_dep_cutoff    1e-4
  #
      radial_base         37 5.0
      radial_multiplier   1
      angular_grids specified
        division   0.4014  110
        division   0.5291  194
        division   0.6019  302
  #      division   0.6814  434
  #      division   0.7989  590
  #      division   0.8965  770
  #      division   1.3427  974
  #      outer_grid   974
        outer_grid   302
  ################################################################################
  #
  #  Definition of "minimal" basis
  #
  ################################################################################
  #     valence basis states
      valence      2  s   2.
      valence      2  p   5.
  #     ion occupancy
      ion_occ      2  s   1.
      ion_occ      2  p   4.
  ################################################################################
  #
  #  Suggested additional basis functions. For production calculations,
  #  uncomment them one after another (the most important basis functions are
  #  listed first).
  #
  #  Constructed for dimers: 1.2 A, 1.418 A, 1.75 A, 2.25 A, 3.25 A
  #
  ################################################################################
  #  "First tier" - improvements: -149.44 meV to -45.88 meV
       hydro 2 p 1.7
       hydro 3 d 7.4
       hydro 3 s 6.8
  #  "Second tier" - improvements: -12.96 meV to -1.56 meV
  #     hydro 4 f 11.2
  #     ionic 2 p auto
  #     hydro 1 s 0.75
  #     hydro 4 d 8.8
  #     hydro 5 g 16.8
  #  "Third tier" - improvements: -0.58 meV to -0.05 meV
  #     hydro 3 p 6.2
  #     hydro 3 s 3.2
  #     hydro 4 f 9.6
  #     hydro 3 s 19.6
  #     hydro 4 d 8.6
  #     hydro 5 g 14.4
  # Further basis functions: -0.05 meV and below
  #     hydro 3 p 4.2
  
  -----------------------------------------------------------------------
  Completed first pass over input file control.in .
  -----------------------------------------------------------------------
  
  
  -----------------------------------------------------------------------
  Parsing geometry.in (first pass over file, find array dimensions only).
  The contents of geometry.in will be repeated verbatim below
  unless switched off by setting 'verbatim_writeout .false.' .
  in the first line of geometry.in .
  -----------------------------------------------------------------------
  
  atom 0.053722387 1.519757572 2.265016620 Al
  atom 2.561047096 2.421444025 1.535020575 Al
  atom 1.156190684 2.929780584 -0.716156654 Al
  atom 1.151342378 3.065676536 2.643659863 F
  atom -1.269701883 2.857929522 2.263641186 F
  atom -0.714214471 -0.057456266 2.827264230 F
  atom 1.886910353 0.674301593 2.085865265 F
  atom 2.781551345 1.941808853 -0.150623416 F
  atom 1.206976809 2.990034933 -2.564247812 F
  atom 1.723004894 4.151979587 0.583171267 F
  atom 3.786655968 3.262384577 2.839519180 F
  atom 0.129832609 1.615552410 0.233175493 F
  
  -----------------------------------------------------------------------
  Completed first pass over input file geometry.in .
  -----------------------------------------------------------------------
  

  Basic array size parameters:
  | Number of species                 :        2
  | Number of atoms                   :       12
  | Max. basis fn. angular momentum   :        2
  | Max. atomic/ionic basis occupied n:        3
  | Max. number of basis fn. types    :        3
  | Max. radial fns per species/type  :        5
  | Max. logarithmic grid size        :     1340
  | Max. radial integration grid size :       41
  | Max. angular integration grid size:      302
  | Max. angular grid division number :        8
  | Radial grid for Hartree potential :     1340
  | Number of spin channels           :        1

------------------------------------------------------------
          Reading file control.in.
------------------------------------------------------------
  XC: Using PBEsol gradient-corrected functionals.
  Spin treatment: No spin polarisation.
  Scalar relativistic treatment of kinetic energy: on-site free-atom approximation to ZORA.
  Charge =   0.000000E+00: Neutral system requested explicitly.
  Occupation type: Gaussian broadening, width =   0.100000E-01 eV.
  Using pulay charge density mixing.
  Pulay mixing - number of memorized iterations:   10
  Charge density mixing - mixing parameter:     0.5000
  Convergence accuracy of self-consistent charge density:  0.1000E-04
  Convergence accuracy of sum of eigenvalues:  0.1000E-02
  Convergence accuracy of total energy:  0.1000E-05
  Convergence accuracy of forces:  0.1000E-03
  Maximum number of s.-c. iterations  :  1500
 
  Reading configuration options for species Al                  .
  | Found nuclear charge :  13.0000
  | Found atomic mass :    26.9815386000000      amu
  | Found l_max for Hartree potential  :   4
  | Found cutoff potl. onset [A], width [A], scale factor :    3.50000    1.50000    1.00000
  | Threshold for basis-dependent cutoff potential is   0.100000E-03
  | Found data for basic radial integration grid :    41 points, outermost radius =    5.000 A
  | Found multiplier for basic radial grid :   1
  | Found angular grid specification: user-specified.
  | Specified grid contains     4 separate shells.
  | Check grid settings after all constraints further below.
  | Found free-atom valence shell :  3 s   2.000
  | Found free-atom valence shell :  3 p   1.000
  | Found free-ion valence shell :  3 s   1.000
  | Found free-ion valence shell :  2 p   6.000
  | Found ionic basis function :  3 d , default cutoff radius.
  | Found ionic basis function :  3 p , default cutoff radius.
  | Found ionic basis function :  3 s , default cutoff radius.
  Species Al                  : Missing cutoff potential type.
  Defaulting to exp(1/x)/(1-x)^2 type cutoff potential.
  Species Al: No 'logarithmic' tag. Using default grid for free atom:
  | Default logarithmic grid data [bohr] : 0.1000E-03 0.1000E+03 0.1012E+01
  | Will include ionic basis functions of  2.0-fold positive Al                   ion.
  Species Al: On-site basis accuracy parameter (for Gram-Schmidt orthonormalisation) not specified.
  Using default value basis_acc =  0.1000000E-03.
  Species Al                  : Using default innermost maximum threshold i_radial=  2 for radial functions.
  Species Al                  : Default cutoff onset for free atom density etc. : 0.35000000E+01 AA.
  Species Al                  : Basic radial grid will be enhanced according to radial_multiplier =   1, to contain    41 grid points.
 
  Reading configuration options for species F                   .
  | Found nuclear charge :   9.0000
  | Found atomic mass :    18.9984032000000      amu
  | Found l_max for Hartree potential  :   4
  | Found cutoff potl. onset [A], width [A], scale factor :    3.50000    1.50000    1.00000
  | Threshold for basis-dependent cutoff potential is   0.100000E-03
  | Found data for basic radial integration grid :    37 points, outermost radius =    5.000 A
  | Found multiplier for basic radial grid :   1
  | Found angular grid specification: user-specified.
  | Specified grid contains     4 separate shells.
  | Check grid settings after all constraints further below.
  | Found free-atom valence shell :  2 s   2.000
  | Found free-atom valence shell :  2 p   5.000
  | Found free-ion valence shell :  2 s   1.000
  | Found free-ion valence shell :  2 p   4.000
  | Found hydrogenic basis function :  2 p   1.700
  | Found hydrogenic basis function :  3 d   7.400
  | Found hydrogenic basis function :  3 s   6.800
  Species F                   : Missing cutoff potential type.
  Defaulting to exp(1/x)/(1-x)^2 type cutoff potential.
  Species F : No 'logarithmic' tag. Using default grid for free atom:
  | Default logarithmic grid data [bohr] : 0.1000E-03 0.1000E+03 0.1012E+01
  Species F : On-site basis accuracy parameter (for Gram-Schmidt orthonormalisation) not specified.
  Using default value basis_acc =  0.1000000E-03.
  Species F                   : Using default innermost maximum threshold i_radial=  2 for radial functions.
  Species F                   : Default cutoff onset for free atom density etc. : 0.35000000E+01 AA.
  Species F                   : Basic radial grid will be enhanced according to radial_multiplier =   1, to contain    37 grid points.
 
  Finished reading input file 'control.in'.
 
------------------------------------------------------------


------------------------------------------------------------
          Reading geometry description geometry.in.
------------------------------------------------------------
  | The smallest distance between any two atoms is         1.76637133 AA.
  | The first atom of this pair is atom number                      2 .
  | The second atom of this pair is atom number                     8 .
  Input structure read successfully.
  The structure contains       12 atoms,  and a total of        120.000 electrons.

  Input geometry:
  | No unit cell requested.
  | Atomic structure:
  |       Atom                x [A]            y [A]            z [A]
  |    1: Species Al            0.05372239        1.51975757        2.26501662
  |    2: Species Al            2.56104710        2.42144402        1.53502058
  |    3: Species Al            1.15619068        2.92978058       -0.71615665
  |    4: Species F             1.15134238        3.06567654        2.64365986
  |    5: Species F            -1.26970188        2.85792952        2.26364119
  |    6: Species F            -0.71421447       -0.05745627        2.82726423
  |    7: Species F             1.88691035        0.67430159        2.08586526
  |    8: Species F             2.78155135        1.94180885       -0.15062342
  |    9: Species F             1.20697681        2.99003493       -2.56424781
  |   10: Species F             1.72300489        4.15197959        0.58317127
  |   11: Species F             3.78665597        3.26238458        2.83951918
  |   12: Species F             0.12983261        1.61555241        0.23317549

 
  Finished reading input file 'control.in'.
 

------------------------------------------------------------
          Reading geometry description geometry.in.
------------------------------------------------------------
 
  Consistency checks for stacksize environment parameter are next.
 
  | Maximum stacksize for task 0: unlimited
  | Maximum stacksize for task 1: unlimited
  | Maximum stacksize for task 2: unlimited
  | Maximum stacksize for task 3: unlimited
  | Maximum stacksize for task 4: unlimited
  | Maximum stacksize for task 5: unlimited
  | Maximum stacksize for task 6: unlimited
  | Maximum stacksize for task 7: unlimited
  | Maximum stacksize for task 8: unlimited
  | Maximum stacksize for task 9: unlimited
  | Maximum stacksize for task 10: unlimited
  | Maximum stacksize for task 11: unlimited
  | Maximum stacksize for task 12: unlimited
  | Maximum stacksize for task 13: unlimited
  | Maximum stacksize for task 14: unlimited
  | Maximum stacksize for task 15: unlimited
  | Maximum stacksize for task 16: unlimited
  | Maximum stacksize for task 17: unlimited
  | Maximum stacksize for task 18: unlimited
  | Maximum stacksize for task 19: unlimited
  | Maximum stacksize for task 20: unlimited
  | Maximum stacksize for task 21: unlimited
  | Maximum stacksize for task 22: unlimited
  | Maximum stacksize for task 23: unlimited
  | Current stacksize for task 0: unlimited
  | Current stacksize for task 1: unlimited
  | Current stacksize for task 2: unlimited
  | Current stacksize for task 3: unlimited
  | Current stacksize for task 4: unlimited
  | Current stacksize for task 5: unlimited
  | Current stacksize for task 6: unlimited
  | Current stacksize for task 7: unlimited
  | Current stacksize for task 8: unlimited
  | Current stacksize for task 9: unlimited
  | Current stacksize for task 10: unlimited
  | Current stacksize for task 11: unlimited
  | Current stacksize for task 12: unlimited
  | Current stacksize for task 13: unlimited
  | Current stacksize for task 14: unlimited
  | Current stacksize for task 15: unlimited
  | Current stacksize for task 16: unlimited
  | Current stacksize for task 17: unlimited
  | Current stacksize for task 18: unlimited
  | Current stacksize for task 19: unlimited
  | Current stacksize for task 20: unlimited
  | Current stacksize for task 21: unlimited
  | Current stacksize for task 22: unlimited
  | Current stacksize for task 23: unlimited
 
  Consistency checks for the contents of control.in are next.
 
  MPI_IN_PLACE appears to work with this MPI implementation.
  | Keeping use_mpi_in_place .true. (see manual).
  Target number of points in a grid batch is not set. Defaulting to  100
  Method for grid partitioning is not set. Defaulting to parallel hash+maxmin partitioning.
  Batch size limit is not set. Defaulting to    200
  By default, will store active basis functions for each batch.
  If in need of memory, prune_basis_once .false. can be used to disable this option.
  communication_type for Hartree potential was not specified.
  Defaulting to calc_hartree .
  Pulay mixer: Number of initial linear mixing iterations not set.
  Defaulting to    0 iterations.
  Work space size for distributed Hartree potential not set.
  Defaulting to   0.200000E+03 MB.
  Algorithm-dependent basis array size parameters:
  | n_max_pulay                         :       10
  Presetting      1001 iterations before the initial mixing cycle
  is restarted anyway using the sc_init_iter criterion / keyword.
  Presetting a factor      1.000 between actual scf density residual
  and density convergence criterion sc_accuracy_rho below which sc_init_iter
  takes no effect.
  Geometry relaxation not requested: no relaxation will be performed.
  Forces evaluation will include force correction term due to incomplete self-consistency (default).
  Handling of forces: Unphysical translation and rotation will be removed from forces.
  No accuracy limit for integral partition fn. given. Defaulting to  0.1000E-14.
  No threshold value for u(r) in integrations given. Defaulting to  0.1000E-05.
  No accuracy for occupation numbers given. Defaulting to  0.1000E-12.
  No threshold value for occupation numbers given. Defaulting to  0.0000E+00.
  No accuracy for fermi level given. Defaulting to  0.1000E-19.
  Maximum # of iterations to find E_F not set. Defaulting to  200.
  Preferred method for the eigenvalue solver ('KS_method') not specified in 'control.in'.
  Calling BLACS routine to test compilation state
  Since ScaLAPACK support is enabled, defaulting to ELPA (via ELSI).
  Will not use alltoall communication since running on < 1024 CPUs.
  Threshold for basis singularities not set.
  Default threshold for basis singularities:  0.1000E-04
  partition_type (choice of integration weights) for integrals was not specified.
  | Using a version of the partition function of Stratmann and coworkers ('stratmann_sparse').
  | At each grid point, the set of atoms used to build the partition table is smoothly restricted to
  | only those atoms whose free-atom density would be non-zero at that grid point.
  Partitioning for Hartree potential was not defined. Using partition_type for integrals.
  | Adjusted default value of keyword multip_moments_threshold to:       0.10000000E-11
  | This value may affect high angular momentum components of the Hartree potential in periodic systems.
  No q(lm)/r^(l+1) cutoff set for long-range Hartree potential.
  | Using default value of  0.100000E-09 .
  | Verify using the multipole_threshold keyword.
  Defaulting to new monopole extrapolation.
  Density update method: automatic selection selected.
  Charge integration errors on the 3D integration grid will be compensated
  by explicit normalization and distribution of residual charges.
  Use the "compensate_multipole_errors" flag to change this behaviour.
  Set 'collect_eigenvectors' to be '.true.' for use_density_matrix .false.
 
  Consistency checks for the contents of geometry.in are next.
 
  Number of empty states per atom not set in control.in - providing a guess from actual geometry.
  | Total number of empty states used during s.c.f. cycle:       36
  If you use a very high smearing, use empty_states (per atom!) in control.in to increase this value.

  Structure-dependent array size parameters: 
  | Maximum number of distinct radial functions  :       14
  | Maximum number of basis functions            :      180
  | Number of Kohn-Sham states (occupied + empty):       96
------------------------------------------------------------

------------------------------------------------------------
          Preparing all fixed parts of the calculation.
------------------------------------------------------------
  Determining machine precision:
    2.225073858507201E-308
  Setting up grids for atomic and cluster calculations.

  Creating wave function, potential, and density for free atoms.

  Species: Al

  List of occupied orbitals and eigenvalues:
    n    l              occ      energy [Ha]    energy [eV]
    1    0           2.0000       -55.621123     -1513.5278
    2    0           2.0000        -3.957030      -107.6763
    3    0           2.0000        -0.272233        -7.4078
    2    1           6.0000        -2.540949       -69.1427
    3    1           1.0000        -0.083300        -2.2667


  Species: F

  List of occupied orbitals and eigenvalues:
    n    l              occ      energy [Ha]    energy [eV]
    1    0           2.0000       -24.399611      -663.9472
    2    0           2.0000        -1.098702       -29.8972
    2    1           5.0000        -0.408210       -11.1080


  Adding cutoff potential to free-atom effective potential.
  Creating fixed part of basis set: Ionic, confined, hydrogenic.
 
  Al                   ion:

  List of free ionic orbitals and eigenvalues:
    n    l      energy [Ha]    energy [eV]
    1    0       -56.418846     -1535.2349
    2    0        -4.732717      -128.7838
    3    0        -0.872690       -23.7471
    2    1        -3.317230       -90.2664


  List of ionic basis orbitals and eigenvalues:
    n    l      energy [Ha]    energy [eV]    outer radius [A]
    3    2        -0.346815        -9.4373       4.594041
    3    1        -0.631870       -17.1940       4.538221
    3    0        -0.872657       -23.7462       4.538221

 
  F                    hydrogenic:
 
  List of hydrogenic basis orbitals: 
    n    l      effective z      eigenvalue [eV]  inner max. [A]     outer max. [A]     outer radius [A]   
    2    1         1.700000        -9.7616           1.243167           1.243167           4.598524
    3    2         7.400000       -82.7828           0.642437           0.642437           3.305741
    3    0         6.800000       -69.9026           0.057798           1.022307           3.781556
 
  Creating atomic-like basis functions for current effective potential.

  Species Al                  :

  List of atomic basis orbitals and eigenvalues:
    n    l      energy [Ha]    energy [eV]    outer radius [A]
    1    0       -55.621123     -1513.5278       0.850197
    2    0        -3.957030      -107.6763       3.144911
    3    0        -0.272233        -7.4078       4.594041
    2    1        -2.540949       -69.1427       3.731966
    3    1        -0.083300        -2.2667       4.594041


  Species F                   :

  List of atomic basis orbitals and eigenvalues:
    n    l      energy [Ha]    energy [eV]    outer radius [A]
    1    0       -24.399611      -663.9472       1.258458
    2    0        -1.098702       -29.8972       4.325857
    2    1        -0.408210       -11.1080       4.487453

  Assembling full basis from fixed parts.
  | Species Al :   atomic orbital   1 s accepted.
  | Species Al :   atomic orbital   2 s accepted.
  | Species Al :    ionic orbital   3 s accepted.
  | Species Al :   atomic orbital   3 s accepted.
  | Species Al :   atomic orbital   2 p accepted.
  | Species Al :    ionic orbital   3 p accepted.
  | Species Al :   atomic orbital   3 p accepted.
  | Species Al :    ionic orbital   3 d accepted.
  | Species F :   atomic orbital   1 s accepted.
  | Species F :    hydro orbital   3 s accepted.
  | Species F :   atomic orbital   2 s accepted.
  | Species F :   atomic orbital   2 p accepted.
  | Species F :    hydro orbital   2 p accepted.
  | Species F :    hydro orbital   3 d accepted.
 
  Basis size parameters after reduction:
  | Total number of radial functions:       14
  | Total number of basis functions :      180
 
  Per-task memory consumption for arrays in subroutine allocate_ext:
  |           4.807768MB.
  Testing on-site integration grid accuracy.
  |  Species  Function  <phi|h_atom|phi> (log., in eV)  <phi|h_atom|phi> (rad., in eV)
           1        1              -1513.5277717935              -1513.5271881332
           1        2               -107.6762691836               -107.6762662489
           1        3                 -6.9467474784                 -6.9471269649
           1        4                  5.5771951849                  5.4862107220 ***
           1        5                -69.1427313144                -69.1427312731
           1        6                 -1.5197375330                 -1.5230432022
           1        7                  6.8210948310                  6.5529872240 ***
           1        8                  4.3216540965                  4.2851170187 ***
           2        9               -663.9471986398               -663.9470363334
           2       10                 16.8514011578                 16.8512525338
           2       11                -28.4490593856                -28.4490661472
           2       12                -11.1080115307                -11.1080620173
           2       13                  7.1940182175                  7.1685154137
           2       14                 44.8544281765                 44.8543763625
 * Note: Onsite integrals marked "***" above are less accurate than
 * onsite_accuracy_threshold =    0.03000 eV. Usually, this is harmless.
 * When in doubt, tighten the "radial" and/or "radial_multiplier" flags to check.

  Preparing densities etc. for the partition functions (integrals / Hartree potential).

  Preparations completed.
  max(cpu_time)          :      0.183 s.
  Wall clock time (cpu1) :      0.185 s.
------------------------------------------------------------

------------------------------------------------------------
          Begin self-consistency loop: Initialization.

          Date     :  20220517, Time     :  120601.867
------------------------------------------------------------

  Initializing index lists of integration centers etc. from given atomic structure:
  | Number of centers in hartree potential         :        12
  | Number of centers in hartree multipole         :        12
  | Number of centers in electron density summation:        12
  | Number of centers in basis integrals           :        12
  | Number of centers in integrals                 :        12
  | Number of centers in hamiltonian               :        12
  * Using 24 tasks for Scalapack Eigenvalue solver.
  Detailed listing of tasks and assigned k-points:
  (for non-periodic systems, the "k-point" denotes an internal label only)
   Task     0 k-point     1 on node-k98a-018
   Task     1 k-point     1 on node-k98a-018
   Task     2 k-point     1 on node-k98a-018
   Task     3 k-point     1 on node-k98a-018
   Task     4 k-point     1 on node-k98a-018
   Task     5 k-point     1 on node-k98a-018
   Task     6 k-point     1 on node-k98a-018
   Task     7 k-point     1 on node-k98a-018
   Task     8 k-point     1 on node-k98a-018
   Task     9 k-point     1 on node-k98a-018
   Task    10 k-point     1 on node-k98a-018
   Task    11 k-point     1 on node-k98a-018
   Task    12 k-point     1 on node-k98a-018
   Task    13 k-point     1 on node-k98a-018
   Task    14 k-point     1 on node-k98a-018
   Task    15 k-point     1 on node-k98a-018
   Task    16 k-point     1 on node-k98a-018
   Task    17 k-point     1 on node-k98a-018
   Task    18 k-point     1 on node-k98a-018
   Task    19 k-point     1 on node-k98a-018
   Task    20 k-point     1 on node-k98a-018
   Task    21 k-point     1 on node-k98a-018
   Task    22 k-point     1 on node-k98a-018
   Task    23 k-point     1 on node-k98a-018
  Tasks:    24 split into      6 X      4 BLACS grid
  Calculating block size based on n_basis =          180  max_nprow =            6  max_npcol =            4
  ScaLAPACK block size set to:           16
  Allocating        0.012 MB for ovlp
  Allocating        0.012 MB for ham
  Allocating        0.012 MB for eigenvec
  Required Scalapack workspace - INTEGER:            1  REAL:             1
  Partitioning the integration grid into batches with parallel hashing+maxmin method.
  | Number of batches:     1077
  | Maximal batch size:     198
  | Minimal batch size:      20
  | Average batch size:      85.348
  | Standard deviation of batch sizes:      26.250

  Integration load balanced across    24 MPI tasks.
  Work distribution over tasks is as follows:
  Task     0 has       3817 integration points.
  Task     1 has       3852 integration points.
  Task     2 has       3837 integration points.
  Task     3 has       3846 integration points.
  Task     4 has       3767 integration points.
  Task     5 has       3786 integration points.
  Task     6 has       3842 integration points.
  Task     7 has       3780 integration points.
  Task     8 has       3840 integration points.
  Task     9 has       3832 integration points.
  Task    10 has       3844 integration points.
  Task    11 has       3783 integration points.
  Task    12 has       3775 integration points.
  Task    13 has       3917 integration points.
  Task    14 has       3770 integration points.
  Task    15 has       3824 integration points.
  Task    16 has       3930 integration points.
  Task    17 has       3829 integration points.
  Task    18 has       3765 integration points.
  Task    19 has       3775 integration points.
  Task    20 has       3926 integration points.
  Task    21 has       3839 integration points.
  Task    22 has       3952 integration points.
  Task    23 has       3792 integration points.
  Initializing partition tables, free-atom densities, potentials, etc. across the integration grid (initialize_grid_storage).
  | initialize_grid_storage: Actual outermost partition radius vs. multipole_radius_free
  | (-- VB: in principle, multipole_radius_free should be larger, hence this output)
  | Species        1: Confinement radius =              4.999999999999999 AA, multipole_radius_free =              5.004487022111096 AA.
  | Species        1: outer_partition_radius set to              5.004487022111096 AA .
  | Species        2: Confinement radius =              4.999999999999999 AA, multipole_radius_free =              5.009370088163274 AA.
  | Species        2: outer_partition_radius set to              5.009370088163274 AA .
  | The sparse table of interatomic distances needs          1.64 kbyte instead of         1.15 kbyte of memory.
  | Using the partition_type stratmann_smoother will reduce your memory usage.
  | Net number of integration points:    91920
  | of which are non-zero points    :    85147
  Renormalizing the initial density to the exact electron count on the 3D integration grid.
  | Initial density: Formal number of electrons (from input files) :     120.0000000000
  | Integrated number of electrons on 3D grid     :     120.0000039211
  | Charge integration error                      :       0.0000039211
  | Normalization factor for density and gradient :       0.9999999673
  Renormalizing the free-atom superposition density to the exact electron count on the 3D integration grid.
  | Formal number of electrons (from input files) :     120.0000000000
  | Integrated number of electrons on 3D grid     :     120.0000039211
  | Charge integration error                      :       0.0000039211
  | Normalization factor for density and gradient :       0.9999999673
  Obtaining max. number of non-zero basis functions in each batch (get_n_compute_maxes).
  | Maximal number of non-zero basis functions:      165 in task     0
  | Maximal number of non-zero basis functions:      165 in task     1
  | Maximal number of non-zero basis functions:      167 in task     2
  | Maximal number of non-zero basis functions:      171 in task     3
  | Maximal number of non-zero basis functions:      165 in task     4
  | Maximal number of non-zero basis functions:      165 in task     5
  | Maximal number of non-zero basis functions:      164 in task     6
  | Maximal number of non-zero basis functions:      165 in task     7
  | Maximal number of non-zero basis functions:      167 in task     8
  | Maximal number of non-zero basis functions:      165 in task     9
  | Maximal number of non-zero basis functions:      171 in task    10
  | Maximal number of non-zero basis functions:      165 in task    11
  | Maximal number of non-zero basis functions:      163 in task    12
  | Maximal number of non-zero basis functions:      165 in task    13
  | Maximal number of non-zero basis functions:      163 in task    14
  | Maximal number of non-zero basis functions:      166 in task    15
  | Maximal number of non-zero basis functions:      164 in task    16
  | Maximal number of non-zero basis functions:      170 in task    17
  | Maximal number of non-zero basis functions:      165 in task    18
  | Maximal number of non-zero basis functions:      170 in task    19
  | Maximal number of non-zero basis functions:      171 in task    20
  | Maximal number of non-zero basis functions:      165 in task    21
  | Maximal number of non-zero basis functions:      171 in task    22
  | Maximal number of non-zero basis functions:      171 in task    23
  Selecting the method for density update.
  Loop over occupied states selected for charge density update.
  Allocating        0.132 MB for KS_eigenvector
  Integrating Hamiltonian matrix: batch-based integration.
  Time summed over all CPUs for integration: real work        0.758 s, elapsed        0.810 s
  Integrating overlap matrix.
  Time summed over all CPUs for integration: real work        0.285 s, elapsed        0.310 s
  Deallocating overlap matrix.

  Updating Kohn-Sham eigenvalues and eigenvectors using ELSI and the ELPA eigensolver.
  Overlap matrix is not singular
  | Lowest and highest eigenvalues :  0.3366E-02,  0.5723E+01
  Finished singularity check of overlap matrix
  | Time :     0.022 s
  Starting ELPA eigensolver
  Finished Cholesky decomposition
  | Time :     0.013 s
  Finished transformation to standard eigenproblem
  | Time :     0.005 s
  Finished solving standard eigenproblem
  | Time :     0.005 s
  Finished back-transformation of eigenvectors
  | Time :     0.001 s

  Obtaining occupation numbers and chemical potential using ELSI.
  | Chemical potential (Fermi level):    -7.77766404 eV
  Writing Kohn-Sham eigenvalues.

  State    Occupation    Eigenvalue [Ha]    Eigenvalue [eV]
      1       2.00000         -55.485952        -1509.84958
      2       2.00000         -55.483698        -1509.78823
      3       2.00000         -55.483608        -1509.78580
      4       2.00000         -24.370304         -663.14971
      5       2.00000         -24.359031         -662.84295
      6       2.00000         -24.351327         -662.63331
      7       2.00000         -24.348919         -662.56779
      8       2.00000         -24.348072         -662.54474
      9       2.00000         -24.337633         -662.26070
     10       2.00000         -24.336796         -662.23791
     11       2.00000         -24.333631         -662.15179
     12       2.00000         -24.325504         -661.93064
     13       2.00000          -3.951535         -107.52673
     14       2.00000          -3.948436         -107.44240
     15       2.00000          -3.948421         -107.44201
     16       2.00000          -2.544749          -69.24614
     17       2.00000          -2.543088          -69.20095
     18       2.00000          -2.542366          -69.18129
     19       2.00000          -2.541561          -69.15940
     20       2.00000          -2.541262          -69.15125
     21       2.00000          -2.540384          -69.12737
     22       2.00000          -2.539789          -69.11118
     23       2.00000          -2.539202          -69.09520
     24       2.00000          -2.539051          -69.09111
     25       2.00000          -1.197887          -32.59617
     26       2.00000          -1.184372          -32.22840
     27       2.00000          -1.167561          -31.77096
     28       2.00000          -1.163577          -31.66254
     29       2.00000          -1.159082          -31.54023
     30       2.00000          -1.144984          -31.15659
     31       2.00000          -1.143589          -31.11864
     32       2.00000          -1.138095          -30.96914
     33       2.00000          -1.127103          -30.67004
     34       2.00000          -0.560491          -15.25174
     35       2.00000          -0.549205          -14.94464
     36       2.00000          -0.546646          -14.87499
     37       2.00000          -0.527967          -14.36672
     38       2.00000          -0.519507          -14.13650
     39       2.00000          -0.509357          -13.86032
     40       2.00000          -0.502365          -13.67004
     41       2.00000          -0.499685          -13.59713
     42       2.00000          -0.494255          -13.44937
     43       2.00000          -0.489453          -13.31869
     44       2.00000          -0.484655          -13.18814
     45       2.00000          -0.475417          -12.93676
     46       2.00000          -0.472288          -12.85162
     47       2.00000          -0.468316          -12.74352
     48       2.00000          -0.465131          -12.65685
     49       2.00000          -0.463287          -12.60669
     50       2.00000          -0.461815          -12.56663
     51       2.00000          -0.455797          -12.40286
     52       2.00000          -0.449314          -12.22646
     53       2.00000          -0.447835          -12.18622
     54       2.00000          -0.447610          -12.18010
     55       2.00000          -0.446874          -12.16006
     56       2.00000          -0.444206          -12.08746
     57       2.00000          -0.438560          -11.93383
     58       2.00000          -0.437236          -11.89780
     59       2.00000          -0.433902          -11.80708
     60       2.00000          -0.427782          -11.64055
     61       0.00000          -0.154339           -4.19978
     62       0.00000          -0.107629           -2.92873
     63       0.00000          -0.089115           -2.42493
     64       0.00000          -0.039309           -1.06964
     65       0.00000          -0.016817           -0.45761
     66       0.00000          -0.010380           -0.28245
     67       0.00000           0.013945            0.37945
     68       0.00000           0.026521            0.72167
     69       0.00000           0.062371            1.69721
     70       0.00000           0.072329            1.96818
     71       0.00000           0.088821            2.41695
     72       0.00000           0.100764            2.74192
     73       0.00000           0.141668            3.85499
     74       0.00000           0.162389            4.41883
     75       0.00000           0.164714            4.48209
     76       0.00000           0.181627            4.94232
     77       0.00000           0.187043            5.08969
     78       0.00000           0.196372            5.34357
     79       0.00000           0.201021            5.47006
     80       0.00000           0.214308            5.83163
     81       0.00000           0.224387            6.10588
     82       0.00000           0.227001            6.17702
     83       0.00000           0.229792            6.25295
     84       0.00000           0.234388            6.37801
     85       0.00000           0.256443            6.97817
     86       0.00000           0.262031            7.13024
     87       0.00000           0.268545            7.30747
     88       0.00000           0.282017            7.67406
     89       0.00000           0.285166            7.75976
     90       0.00000           0.289820            7.88640
     91       0.00000           0.301466            8.20332
     92       0.00000           0.326869            8.89457
     93       0.00000           0.331263            9.01413
     94       0.00000           0.353672            9.62392
     95       0.00000           0.358809            9.76368
     96       0.00000           0.368723           10.03347

  Highest occupied state (VBM) at    -11.64054925 eV
  | Occupation number:      2.00000000

  Lowest unoccupied state (CBM) at    -4.19978035 eV
  | Occupation number:      0.00000000

  Overall HOMO-LUMO gap:      7.44076890 eV.
  Calculating total energy contributions from superposition of free atom densities.

  Total energy components:
  | Sum of eigenvalues            :        -887.25905741 Ha      -24143.54736240 eV
  | XC energy correction          :        -144.34497004 Ha       -3927.82648051 eV
  | XC potential correction       :         187.94620000 Ha        5114.27631343 eV
  | Free-atom electrostatic energy:        -781.65702389 Ha      -21269.96982411 eV
  | Hartree energy correction     :           0.00000000 Ha           0.00000000 eV
  | Entropy correction            :           0.00000000 Ha           0.00000000 eV
  | ---------------------------
  | Total energy                  :       -1625.31485135 Ha      -44227.06735358 eV
  | Total energy, T -> 0          :       -1625.31485135 Ha      -44227.06735358 eV  <-- do not rely on this value for anything but (periodic) metals
  | Electronic free energy        :       -1625.31485135 Ha      -44227.06735358 eV

  Derived energy quantities:
  | Kinetic energy                :        1627.64747604 Ha       44290.54130100 eV
  | Electrostatic energy          :       -3108.61735734 Ha      -84589.78217407 eV
  | Energy correction for multipole
  | error in Hartree potential    :           0.00000000 Ha           0.00000000 eV
  | Sum of eigenvalues per atom                           :       -2011.96228020 eV
  | Total energy (T->0) per atom                          :       -3685.58894613 eV  <-- do not rely on this value for anything but (periodic) metals
  | Electronic free energy per atom                       :       -3685.58894613 eV
  Initialize hartree_potential_storage
  Max. number of atoms included in rho_multipole:           12

  End scf initialization - timings             :  max(cpu_time)    wall_clock(cpu1)
  | Time for scf. initialization                :        0.180 s           0.181 s
  | Boundary condition initialization           :        0.000 s           0.001 s
  | Integration                                 :        0.055 s           0.054 s
  | Solution of K.-S. eqns.                     :        0.049 s           0.050 s
  | Grid partitioning                           :        0.040 s           0.040 s
  | Preloading free-atom quantities on grid     :        0.017 s           0.017 s
  | Free-atom superposition energy              :        0.006 s           0.006 s
  | Total energy evaluation                     :        0.000 s           0.000 s

  Partial memory accounting:
  | Current value for overall tracked memory usage:
  |   Minimum:        0.273 MB (on task 23)
  |   Maximum:        0.292 MB (on task  0)
  |   Average:        0.287 MB
  | Peak value for overall tracked memory usage:
  |   Minimum:        1.361 MB (on task 12 after allocating wave)
  |   Maximum:        1.418 MB (on task 10 after allocating wave)
  |   Average:        1.383 MB
  | Largest tracked array allocation so far:
  |   Minimum:        0.246 MB (H_times_psi on task 12)
  |   Maximum:        0.458 MB (all_coords on task 14)
  |   Average:        0.272 MB
  Note:  These values currently only include a subset of arrays which are explicitly tracked.
  The "true" memory usage will be greater.
------------------------------------------------------------
  Evaluating new KS density.
  Integration grid: deviation in total charge (<rho> - N_e) =   2.842171E-14

  Time for density update prior                :  max(cpu_time)    wall_clock(cpu1)
  | self-consistency iterative process          :        0.030 s           0.031 s

------------------------------------------------------------
          Begin self-consistency iteration #    1

  Date     :  20220517, Time     :  120602.083
------------------------------------------------------------
  Pulay mixing of updated and previous charge densities.
  Renormalizing the density to the exact electron count on the 3D integration grid.
  | Formal number of electrons (from input files) :     120.0000000000
  | Integrated number of electrons on 3D grid     :     120.0000000000
  | Charge integration error                      :       0.0000000000
  | Normalization factor for density and gradient :       1.0000000000

  Evaluating partitioned Hartree potential by multipole expansion.
  | Original multipole sum: apparent total charge =   0.173845E-13
  | Sum of charges compensated after spline to logarithmic grids =   0.140193E-03
  | Analytical far-field extrapolation by fixed multipoles:
  | Hartree multipole sum: apparent total charge =   0.185897E-13
  Summing up the Hartree potential.
  Time summed over all CPUs for potential: real work        0.381 s, elapsed        0.397 s
  | RMS charge density error from multipole expansion :   0.103204E-01

  Integrating Hamiltonian matrix: batch-based integration.
  Time summed over all CPUs for integration: real work        0.703 s, elapsed        0.769 s

  Updating Kohn-Sham eigenvalues and eigenvectors using ELSI and the ELPA eigensolver.
  Starting ELPA eigensolver
  Finished transformation to standard eigenproblem
  | Time :     0.005 s
  Finished solving standard eigenproblem
  | Time :     0.021 s
  Finished back-transformation of eigenvectors
  | Time :     0.002 s

  Obtaining occupation numbers and chemical potential using ELSI.
  | Chemical potential (Fermi level):    -6.15922226 eV
  Writing Kohn-Sham eigenvalues.

  State    Occupation    Eigenvalue [Ha]    Eigenvalue [eV]
      1       2.00000         -55.698624        -1515.63667
      2       2.00000         -55.667110        -1514.77913
      3       2.00000         -55.626458        -1513.67294
      4       2.00000         -24.258334         -660.10285
      5       2.00000         -24.236563         -659.51044
      6       2.00000         -24.198518         -658.47517
      7       2.00000         -24.185185         -658.11237
      8       2.00000         -24.178971         -657.94327
      9       2.00000         -24.092836         -655.59943
     10       2.00000         -24.042012         -654.21643
     11       2.00000         -24.019808         -653.61223
     12       2.00000         -24.019775         -653.61134
     13       2.00000          -4.133874         -112.48844
     14       2.00000          -4.104635         -111.69279
     15       2.00000          -4.063471         -110.57267
     16       2.00000          -2.727817          -74.22768
     17       2.00000          -2.726408          -74.18934
     18       2.00000          -2.725682          -74.16959
     19       2.00000          -2.698577          -73.43201
     20       2.00000          -2.697717          -73.40860
     21       2.00000          -2.695770          -73.35563
     22       2.00000          -2.657530          -72.31508
     23       2.00000          -2.656578          -72.28917
     24       2.00000          -2.654313          -72.22753
     25       2.00000          -1.187102          -32.30268
     26       2.00000          -1.147873          -31.23520
     27       2.00000          -1.125410          -30.62397
     28       2.00000          -1.113269          -30.29360
     29       2.00000          -1.097496          -29.86439
     30       2.00000          -1.035494          -28.17722
     31       2.00000          -0.988558          -26.90004
     32       2.00000          -0.970845          -26.41804
     33       2.00000          -0.964864          -26.25528
     34       2.00000          -0.560752          -15.25884
     35       2.00000          -0.550906          -14.99091
     36       2.00000          -0.525084          -14.28827
     37       2.00000          -0.500550          -13.62065
     38       2.00000          -0.490005          -13.33372
     39       2.00000          -0.481164          -13.09313
     40       2.00000          -0.466778          -12.70167
     41       2.00000          -0.461516          -12.55850
     42       2.00000          -0.446974          -12.16277
     43       2.00000          -0.439663          -11.96384
     44       2.00000          -0.433649          -11.80019
     45       2.00000          -0.421139          -11.45978
     46       2.00000          -0.408885          -11.12632
     47       2.00000          -0.404462          -11.00598
     48       2.00000          -0.398048          -10.83144
     49       2.00000          -0.379480          -10.32618
     50       2.00000          -0.363450           -9.88997
     51       2.00000          -0.346439           -9.42708
     52       2.00000          -0.346336           -9.42428
     53       2.00000          -0.334345           -9.09799
     54       2.00000          -0.323139           -8.79306
     55       2.00000          -0.303247           -8.25176
     56       2.00000          -0.297438           -8.09370
     57       2.00000          -0.282683           -7.69220
     58       2.00000          -0.281543           -7.66118
     59       2.00000          -0.279701           -7.61106
     60       2.00000          -0.270303           -7.35531
     61       0.00000          -0.185192           -5.03934
     62       0.00000          -0.127494           -3.46929
     63       0.00000          -0.087847           -2.39044
     64       0.00000          -0.069415           -1.88888
     65       0.00000          -0.052016           -1.41543
     66       0.00000          -0.043102           -1.17287
     67       0.00000           0.004288            0.11667
     68       0.00000           0.017237            0.46904
     69       0.00000           0.039243            1.06787
     70       0.00000           0.075807            2.06281
     71       0.00000           0.084855            2.30901
     72       0.00000           0.089513            2.43577
     73       0.00000           0.124473            3.38708
     74       0.00000           0.131077            3.56680
     75       0.00000           0.155062            4.21944
     76       0.00000           0.172444            4.69245
     77       0.00000           0.181022            4.92585
     78       0.00000           0.188386            5.12625
     79       0.00000           0.193717            5.27129
     80       0.00000           0.205177            5.58315
     81       0.00000           0.211046            5.74286
     82       0.00000           0.215060            5.85207
     83       0.00000           0.221656            6.03156
     84       0.00000           0.231741            6.30600
     85       0.00000           0.248361            6.75826
     86       0.00000           0.251789            6.85153
     87       0.00000           0.258719            7.04010
     88       0.00000           0.263470            7.16937
     89       0.00000           0.283348            7.71029
     90       0.00000           0.287661            7.82767
     91       0.00000           0.291879            7.94244
     92       0.00000           0.330553            8.99480
     93       0.00000           0.341517            9.29315
     94       0.00000           0.355551            9.67505
     95       0.00000           0.373651           10.16755
     96       0.00000           0.376017           10.23194

  Highest occupied state (VBM) at     -7.35531181 eV
  | Occupation number:      2.00000000

  Lowest unoccupied state (CBM) at    -5.03934068 eV
  | Occupation number:      0.00000000

  Overall HOMO-LUMO gap:      2.31597114 eV.

  Total energy components:
  | Sum of eigenvalues            :        -882.39030938 Ha      -24011.06198756 eV
  | XC energy correction          :        -145.64886695 Ha       -3963.30732052 eV
  | XC potential correction       :         189.66023605 Ha        5160.91760761 eV
  | Free-atom electrostatic energy:        -781.65702389 Ha      -21269.96982411 eV
  | Hartree energy correction     :          -5.04546914 Ha        -137.29420072 eV
  | Entropy correction            :           0.00000000 Ha           0.00000000 eV
  | ---------------------------
  | Total energy                  :       -1625.08143330 Ha      -44220.71572531 eV
  | Total energy, T -> 0          :       -1625.08143330 Ha      -44220.71572531 eV  <-- do not rely on this value for anything but (periodic) metals
  | Electronic free energy        :       -1625.08143330 Ha      -44220.71572531 eV

  Derived energy quantities:
  | Kinetic energy                :        1633.78941873 Ha       44457.67206510 eV
  | Electrostatic energy          :       -3113.22198508 Ha      -84715.08046988 eV
  | Energy correction for multipole
  | error in Hartree potential    :           0.02894984 Ha           0.78776527 eV
  | Sum of eigenvalues per atom                           :       -2000.92183230 eV
  | Total energy (T->0) per atom                          :       -3685.05964378 eV  <-- do not rely on this value for anything but (periodic) metals
  | Electronic free energy per atom                       :       -3685.05964378 eV
  Evaluating new KS density.
  Integration grid: deviation in total charge (<rho> - N_e) =  -2.842171E-14

  Self-consistency convergence accuracy:
  | Change of charge density      :  0.6004E+00
  | Change of sum of eigenvalues  :  0.1325E+03 eV
  | Change of total energy        :  0.6352E+01 eV


------------------------------------------------------------
  End self-consistency iteration #     1       :  max(cpu_time)    wall_clock(cpu1)
  | Time for this iteration                     :        0.127 s           0.127 s
  | Charge density update                       :        0.029 s           0.029 s
  | Density mixing                              :        0.002 s           0.002 s
  | Hartree multipole update                    :        0.008 s           0.008 s
  | Hartree multipole summation                 :        0.020 s           0.020 s
  | Integration                                 :        0.036 s           0.036 s
  | Solution of K.-S. eqns.                     :        0.030 s           0.030 s
  | Total energy evaluation                     :        0.001 s           0.001 s

  Partial memory accounting:
  | Current value for overall tracked memory usage:
  |   Minimum:        0.273 MB (on task 23)
  |   Maximum:        0.292 MB (on task  0)
  |   Average:        0.287 MB
  | Peak value for overall tracked memory usage:
  |   Minimum:        1.361 MB (on task 12 after allocating wave)
  |   Maximum:        1.418 MB (on task 10 after allocating wave)
  |   Average:        1.383 MB
  | Largest tracked array allocation so far:
  |   Minimum:        0.739 MB (gradient_basis_wave on task 12)
  |   Maximum:        0.775 MB (gradient_basis_wave on task  3)
  |   Average:        0.755 MB
  Note:  These values currently only include a subset of arrays which are explicitly tracked.
  The "true" memory usage will be greater.
------------------------------------------------------------

------------------------------------------------------------
          Begin self-consistency iteration #    2

  Date     :  20220517, Time     :  120602.218
------------------------------------------------------------
  Pulay mixing of updated and previous charge densities.
  Renormalizing the density to the exact electron count on the 3D integration grid.
  | Formal number of electrons (from input files) :     120.0000000000
  | Integrated number of electrons on 3D grid     :     120.0000000000
  | Charge integration error                      :      -0.0000000000
  | Normalization factor for density and gradient :       1.0000000000

  Evaluating partitioned Hartree potential by multipole expansion.
  | Original multipole sum: apparent total charge =  -0.629702E-14
  | Sum of charges compensated after spline to logarithmic grids =   0.107755E-03
  | Analytical far-field extrapolation by fixed multipoles:
  | Hartree multipole sum: apparent total charge =  -0.477196E-14
  Summing up the Hartree potential.
  Time summed over all CPUs for potential: real work        0.380 s, elapsed        0.388 s
  | RMS charge density error from multipole expansion :   0.118573E-01

  Integrating Hamiltonian matrix: batch-based integration.
  Time summed over all CPUs for integration: real work        0.701 s, elapsed        0.763 s

  Updating Kohn-Sham eigenvalues and eigenvectors using ELSI and the ELPA eigensolver.
  Starting ELPA eigensolver
  Finished transformation to standard eigenproblem
  | Time :     0.001 s
  Finished solving standard eigenproblem
  | Time :     0.003 s
  Finished back-transformation of eigenvectors
  | Time :     0.000 s

  Obtaining occupation numbers and chemical potential using ELSI.
  | Chemical potential (Fermi level):    -7.89541728 eV
  Highest occupied state (VBM) at     -8.40348160 eV
  | Occupation number:      2.00000000

  Lowest unoccupied state (CBM) at    -5.31827722 eV
  | Occupation number:      0.00000000

  Overall HOMO-LUMO gap:      3.08520438 eV.

  Checking to see if s.c.f. parameters should be adjusted.

  Total energy components:
  | Sum of eigenvalues            :        -885.35684964 Ha      -24091.78565517 eV
  | XC energy correction          :        -145.14880167 Ha       -3949.69985196 eV
  | XC potential correction       :         189.00240746 Ha        5143.01718072 eV
  | Free-atom electrostatic energy:        -781.65702389 Ha      -21269.96982411 eV
  | Hartree energy correction     :          -1.85038914 Ha         -50.35165033 eV
  | Entropy correction            :           0.00000000 Ha           0.00000000 eV
  | ---------------------------
  | Total energy                  :       -1625.01065688 Ha      -44218.78980085 eV
  | Total energy, T -> 0          :       -1625.01065688 Ha      -44218.78980085 eV  <-- do not rely on this value for anything but (periodic) metals
  | Electronic free energy        :       -1625.01065688 Ha      -44218.78980085 eV

  Derived energy quantities:
  | Kinetic energy                :        1629.91874446 Ha       44352.34565922 eV
  | Electrostatic energy          :       -3109.78059966 Ha      -84621.43560811 eV
  | Energy correction for multipole
  | error in Hartree potential    :           0.03189870 Ha           0.86800787 eV
  | Sum of eigenvalues per atom                           :       -2007.64880460 eV
  | Total energy (T->0) per atom                          :       -3684.89915007 eV  <-- do not rely on this value for anything but (periodic) metals
  | Electronic free energy per atom                       :       -3684.89915007 eV
  Evaluating new KS density.
  Integration grid: deviation in total charge (<rho> - N_e) =  -1.421085E-14

  Self-consistency convergence accuracy:
  | Change of charge density      :  0.5018E+00
  | Change of sum of eigenvalues  : -0.8072E+02 eV
  | Change of total energy        :  0.1926E+01 eV


------------------------------------------------------------
  End self-consistency iteration #     2       :  max(cpu_time)    wall_clock(cpu1)
  | Time for this iteration                     :        0.090 s           0.085 s
  | Charge density update                       :        0.029 s           0.029 s
  | Density mixing                              :        0.006 s           0.001 s
  | Hartree multipole update                    :        0.001 s           0.001 s
  | Hartree multipole summation                 :        0.016 s           0.017 s
  | Integration                                 :        0.032 s           0.032 s
  | Solution of K.-S. eqns.                     :        0.004 s           0.004 s
  | Total energy evaluation                     :        0.000 s           0.000 s

  Partial memory accounting:
  | Current value for overall tracked memory usage:
  |   Minimum:        0.274 MB (on task 23)
  |   Maximum:        0.293 MB (on task  0)
  |   Average:        0.288 MB
  | Peak value for overall tracked memory usage:
  |   Minimum:        1.361 MB (on task 12 after allocating wave)
  |   Maximum:        1.418 MB (on task 10 after allocating wave)
  |   Average:        1.383 MB
  | Largest tracked array allocation so far:
  |   Minimum:        0.739 MB (gradient_basis_wave on task 12)
  |   Maximum:        0.775 MB (gradient_basis_wave on task  3)
  |   Average:        0.755 MB
  Note:  These values currently only include a subset of arrays which are explicitly tracked.
  The "true" memory usage will be greater.
------------------------------------------------------------

------------------------------------------------------------
          Begin self-consistency iteration #    3

  Date     :  20220517, Time     :  120602.309
------------------------------------------------------------
  Pulay mixing of updated and previous charge densities.
  Renormalizing the density to the exact electron count on the 3D integration grid.
  | Formal number of electrons (from input files) :     120.0000000000
  | Integrated number of electrons on 3D grid     :     120.0000000000
  | Charge integration error                      :       0.0000000000
  | Normalization factor for density and gradient :       1.0000000000

  Evaluating partitioned Hartree potential by multipole expansion.
  | Original multipole sum: apparent total charge =   0.103003E-13
  | Sum of charges compensated after spline to logarithmic grids =   0.137703E-03
  | Analytical far-field extrapolation by fixed multipoles:
  | Hartree multipole sum: apparent total charge =   0.115425E-13
  Summing up the Hartree potential.
  Time summed over all CPUs for potential: real work        0.380 s, elapsed        0.387 s
  | RMS charge density error from multipole expansion :   0.154421E-01

  Integrating Hamiltonian matrix: batch-based integration.
  Time summed over all CPUs for integration: real work        0.701 s, elapsed        0.764 s

  Updating Kohn-Sham eigenvalues and eigenvectors using ELSI and the ELPA eigensolver.
  Starting ELPA eigensolver
  Finished transformation to standard eigenproblem
  | Time :     0.001 s
  Finished solving standard eigenproblem
  | Time :     0.003 s
  Finished back-transformation of eigenvectors
  | Time :     0.000 s

  Obtaining occupation numbers and chemical potential using ELSI.
  | Chemical potential (Fermi level):    -7.91351690 eV
  Highest occupied state (VBM) at     -8.14358647 eV
  | Occupation number:      2.00000000

  Lowest unoccupied state (CBM) at    -5.56259075 eV
  | Occupation number:      0.00000000

  Overall HOMO-LUMO gap:      2.58099572 eV.

  Total energy components:
  | Sum of eigenvalues            :        -886.29180530 Ha      -24117.22709331 eV
  | XC energy correction          :        -145.11185946 Ha       -3948.69460333 eV
  | XC potential correction       :         188.95295931 Ha        5141.67162806 eV
  | Free-atom electrostatic energy:        -781.65702389 Ha      -21269.96982411 eV
  | Hartree energy correction     :          -0.90130182 Ha         -24.52567029 eV
  | Entropy correction            :          -0.00000000 Ha          -0.00000000 eV
  | ---------------------------
  | Total energy                  :       -1625.00903116 Ha      -44218.74556298 eV
  | Total energy, T -> 0          :       -1625.00903116 Ha      -44218.74556298 eV  <-- do not rely on this value for anything but (periodic) metals
  | Electronic free energy        :       -1625.00903116 Ha      -44218.74556298 eV

  Derived energy quantities:
  | Kinetic energy                :        1628.44042856 Ha       44312.11863677 eV
  | Electrostatic energy          :       -3108.33760026 Ha      -84582.16959642 eV
  | Energy correction for multipole
  | error in Hartree potential    :           0.04142175 Ha           1.12714319 eV
  | Sum of eigenvalues per atom                           :       -2009.76892444 eV
  | Total energy (T->0) per atom                          :       -3684.89546358 eV  <-- do not rely on this value for anything but (periodic) metals
  | Electronic free energy per atom                       :       -3684.89546358 eV
  Evaluating new KS density.
  Integration grid: deviation in total charge (<rho> - N_e) =   2.842171E-14

  Self-consistency convergence accuracy:
  | Change of charge density      :  0.1336E+00
  | Change of sum of eigenvalues  : -0.2544E+02 eV
  | Change of total energy        :  0.4424E-01 eV


------------------------------------------------------------
  End self-consistency iteration #     3       :  max(cpu_time)    wall_clock(cpu1)
  | Time for this iteration                     :        0.087 s           0.085 s
  | Charge density update                       :        0.029 s           0.029 s
  | Density mixing                              :        0.004 s           0.001 s
  | Hartree multipole update                    :        0.001 s           0.001 s
  | Hartree multipole summation                 :        0.016 s           0.017 s
  | Integration                                 :        0.032 s           0.032 s
  | Solution of K.-S. eqns.                     :        0.004 s           0.004 s
  | Total energy evaluation                     :        0.000 s           0.000 s

  Partial memory accounting:
  | Current value for overall tracked memory usage:
  |   Minimum:        0.274 MB (on task 23)
  |   Maximum:        0.293 MB (on task  0)
  |   Average:        0.288 MB
  | Peak value for overall tracked memory usage:
  |   Minimum:        1.361 MB (on task 12 after allocating wave)
  |   Maximum:        1.418 MB (on task 10 after allocating wave)
  |   Average:        1.383 MB
  | Largest tracked array allocation so far:
  |   Minimum:        0.739 MB (gradient_basis_wave on task 12)
  |   Maximum:        0.775 MB (gradient_basis_wave on task  3)
  |   Average:        0.755 MB
  Note:  These values currently only include a subset of arrays which are explicitly tracked.
  The "true" memory usage will be greater.
------------------------------------------------------------

------------------------------------------------------------
          Begin self-consistency iteration #    4

  Date     :  20220517, Time     :  120602.399
------------------------------------------------------------
  Pulay mixing of updated and previous charge densities.
  Renormalizing the density to the exact electron count on the 3D integration grid.
  | Formal number of electrons (from input files) :     120.0000000000
  | Integrated number of electrons on 3D grid     :     120.0000000000
  | Charge integration error                      :       0.0000000000
  | Normalization factor for density and gradient :       1.0000000000

  Evaluating partitioned Hartree potential by multipole expansion.
  | Original multipole sum: apparent total charge =   0.296895E-13
  | Sum of charges compensated after spline to logarithmic grids =   0.157663E-03
  | Analytical far-field extrapolation by fixed multipoles:
  | Hartree multipole sum: apparent total charge =   0.261966E-13
  Summing up the Hartree potential.
  Time summed over all CPUs for potential: real work        0.380 s, elapsed        0.388 s
  | RMS charge density error from multipole expansion :   0.181012E-01

  Integrating Hamiltonian matrix: batch-based integration.
  Time summed over all CPUs for integration: real work        0.702 s, elapsed        0.763 s

  Updating Kohn-Sham eigenvalues and eigenvectors using ELSI and the ELPA eigensolver.
  Starting ELPA eigensolver
  Finished transformation to standard eigenproblem
  | Time :     0.001 s
  Finished solving standard eigenproblem
  | Time :     0.003 s
  Finished back-transformation of eigenvectors
  | Time :     0.000 s

  Obtaining occupation numbers and chemical potential using ELSI.
  | Chemical potential (Fermi level):    -7.92446683 eV
  Highest occupied state (VBM) at     -8.01658604 eV
  | Occupation number:      2.00000000

  Lowest unoccupied state (CBM) at    -5.61719279 eV
  | Occupation number:      0.00000000

  Overall HOMO-LUMO gap:      2.39939325 eV.

  Total energy components:
  | Sum of eigenvalues            :        -886.56510397 Ha      -24124.66392829 eV
  | XC energy correction          :        -145.08553506 Ha       -3947.97827985 eV
  | XC potential correction       :         188.91748606 Ha        5140.70635194 eV
  | Free-atom electrostatic energy:        -781.65702389 Ha      -21269.96982411 eV
  | Hartree energy correction     :          -0.61574020 Ha         -16.75514322 eV
  | Entropy correction            :          -0.00000000 Ha          -0.00000000 eV
  | ---------------------------
  | Total energy                  :       -1625.00591705 Ha      -44218.66082353 eV
  | Total energy, T -> 0          :       -1625.00591705 Ha      -44218.66082353 eV  <-- do not rely on this value for anything but (periodic) metals
  | Electronic free energy        :       -1625.00591705 Ha      -44218.66082353 eV

  Derived energy quantities:
  | Kinetic energy                :        1627.46656417 Ha       44285.61843855 eV
  | Electrostatic energy          :       -3107.38694616 Ha      -84556.30098223 eV
  | Energy correction for multipole
  | error in Hartree potential    :           0.04790860 Ha           1.30365939 eV
  | Sum of eigenvalues per atom                           :       -2010.38866069 eV
  | Total energy (T->0) per atom                          :       -3684.88840196 eV  <-- do not rely on this value for anything but (periodic) metals
  | Electronic free energy per atom                       :       -3684.88840196 eV
  Evaluating new KS density.
  Integration grid: deviation in total charge (<rho> - N_e) =   2.842171E-14

  Self-consistency convergence accuracy:
  | Change of charge density      :  0.1078E+00
  | Change of sum of eigenvalues  : -0.7437E+01 eV
  | Change of total energy        :  0.8474E-01 eV


------------------------------------------------------------
  End self-consistency iteration #     4       :  max(cpu_time)    wall_clock(cpu1)
  | Time for this iteration                     :        0.087 s           0.086 s
  | Charge density update                       :        0.029 s           0.029 s
  | Density mixing                              :        0.003 s           0.002 s
  | Hartree multipole update                    :        0.001 s           0.001 s
  | Hartree multipole summation                 :        0.016 s           0.017 s
  | Integration                                 :        0.032 s           0.032 s
  | Solution of K.-S. eqns.                     :        0.004 s           0.004 s
  | Total energy evaluation                     :        0.000 s           0.001 s

  Partial memory accounting:
  | Current value for overall tracked memory usage:
  |   Minimum:        0.274 MB (on task 23)
  |   Maximum:        0.293 MB (on task  0)
  |   Average:        0.288 MB
  | Peak value for overall tracked memory usage:
  |   Minimum:        1.361 MB (on task 12 after allocating wave)
  |   Maximum:        1.418 MB (on task 10 after allocating wave)
  |   Average:        1.383 MB
  | Largest tracked array allocation so far:
  |   Minimum:        0.739 MB (gradient_basis_wave on task 12)
  |   Maximum:        0.775 MB (gradient_basis_wave on task  3)
  |   Average:        0.755 MB
  Note:  These values currently only include a subset of arrays which are explicitly tracked.
  The "true" memory usage will be greater.
------------------------------------------------------------

------------------------------------------------------------
          Begin self-consistency iteration #    5

  Date     :  20220517, Time     :  120602.491
------------------------------------------------------------
  Pulay mixing of updated and previous charge densities.
  Renormalizing the density to the exact electron count on the 3D integration grid.
  | Formal number of electrons (from input files) :     120.0000000000
  | Integrated number of electrons on 3D grid     :     120.0000000000
  | Charge integration error                      :       0.0000000000
  | Normalization factor for density and gradient :       1.0000000000

  Evaluating partitioned Hartree potential by multipole expansion.
  | Original multipole sum: apparent total charge =   0.477381E-13
  | Sum of charges compensated after spline to logarithmic grids =   0.157702E-03
  | Analytical far-field extrapolation by fixed multipoles:
  | Hartree multipole sum: apparent total charge =   0.463544E-13
  Summing up the Hartree potential.
  Time summed over all CPUs for potential: real work        0.380 s, elapsed        0.389 s
  | RMS charge density error from multipole expansion :   0.179696E-01

  Integrating Hamiltonian matrix: batch-based integration.
  Time summed over all CPUs for integration: real work        0.701 s, elapsed        0.763 s

  Updating Kohn-Sham eigenvalues and eigenvectors using ELSI and the ELPA eigensolver.
  Starting ELPA eigensolver
  Finished transformation to standard eigenproblem
  | Time :     0.000 s
  Finished solving standard eigenproblem
  | Time :     0.003 s
  Finished back-transformation of eigenvectors
  | Time :     0.000 s

  Obtaining occupation numbers and chemical potential using ELSI.
  | Chemical potential (Fermi level):    -7.90166658 eV
  Highest occupied state (VBM) at     -8.10919971 eV
  | Occupation number:      2.00000000

  Lowest unoccupied state (CBM) at    -5.56100918 eV
  | Occupation number:      0.00000000

  Overall HOMO-LUMO gap:      2.54819053 eV.

  Total energy components:
  | Sum of eigenvalues            :        -886.40452754 Ha      -24120.29442154 eV
  | XC energy correction          :        -145.08204145 Ha       -3947.88321400 eV
  | XC potential correction       :         188.91301842 Ha        5140.58478135 eV
  | Free-atom electrostatic energy:        -781.65702389 Ha      -21269.96982411 eV
  | Hartree energy correction     :          -0.77508966 Ha         -21.09126265 eV
  | Entropy correction            :          -0.00000000 Ha          -0.00000000 eV
[...]
   Total forces(   7)            : -0.397006E+00  0.247539E+01 -0.659069E+00
  atom #    8
   Hellmann-Feynman              :  0.346041E+00 -0.992765E+00 -0.190578E+01
   Ionic forces                  :  0.000000E+00  0.000000E+00  0.000000E+00
   Multipole                     : -0.510772E-02 -0.231443E+00 -0.692273E+00
   Hartree pot. SCF incomplete   :  0.100984E-04 -0.438422E-05 -0.638651E-05
   Pulay + GGA                   : -0.124233E+01  0.198638E+01  0.239823E+01
   ----------------------------------------------------------------
   Total forces(   8)            : -0.901386E+00  0.762163E+00 -0.199829E+00
  atom #    9
   Hellmann-Feynman              : -0.270416E-01  0.227840E+00 -0.288660E+01
   Ionic forces                  :  0.000000E+00  0.000000E+00  0.000000E+00
   Multipole                     :  0.189193E+00 -0.143825E+00 -0.817365E+00
   Hartree pot. SCF incomplete   : -0.739458E-06 -0.140723E-05 -0.922045E-05
   Pulay + GGA                   : -0.480127E+00 -0.399940E-01  0.767942E+01
   ----------------------------------------------------------------
   Total forces(   9)            : -0.317977E+00  0.440198E-01  0.397545E+01
  atom #   10
   Hellmann-Feynman              :  0.294172E+00  0.518419E+00  0.119945E+01
   Ionic forces                  :  0.000000E+00  0.000000E+00  0.000000E+00
   Multipole                     :  0.211059E+00  0.312631E+00  0.470966E+00
   Hartree pot. SCF incomplete   :  0.158007E-05  0.138672E-04  0.332349E-05
   Pulay + GGA                   : -0.866652E+00 -0.305720E+01 -0.363446E+01
   ----------------------------------------------------------------
   Total forces(  10)            : -0.361420E+00 -0.222613E+01 -0.196404E+01
  atom #   11
   Hellmann-Feynman              :  0.136330E+01  0.102752E+01  0.167364E+01
   Ionic forces                  :  0.000000E+00  0.000000E+00  0.000000E+00
   Multipole                     :  0.194177E+00  0.294390E+00  0.411573E+00
   Hartree pot. SCF incomplete   :  0.512141E-05  0.572084E-05  0.906832E-05
   Pulay + GGA                   : -0.349021E+01 -0.331110E+01 -0.527913E+01
   ----------------------------------------------------------------
   Total forces(  11)            : -0.193273E+01 -0.198919E+01 -0.319391E+01
  atom #   12
   Hellmann-Feynman              :  0.637285E+00 -0.300718E+00  0.252103E-01
   Ionic forces                  :  0.000000E+00  0.000000E+00  0.000000E+00
   Multipole                     : -0.207360E+00 -0.461254E+00  0.176788E+00
   Hartree pot. SCF incomplete   : -0.900332E-05 -0.594787E-05  0.508498E-07
   Pulay + GGA                   :  0.848782E+00  0.245689E+01 -0.680914E+00
   ----------------------------------------------------------------
   Total forces(  12)            :  0.127870E+01  0.169491E+01 -0.478916E+00


  Self-consistency convergence accuracy:
  | Change of charge density      :  0.5438E-06
  | Change of sum of eigenvalues  : -0.1893E-04 eV
  | Change of total energy        : -0.1448E-08 eV
  | Change of forces              :  0.3125E-05 eV/A

  Writing Kohn-Sham eigenvalues.

  State    Occupation    Eigenvalue [Ha]    Eigenvalue [eV]
      1       2.00000         -55.692457        -1515.46887
      2       2.00000         -55.645320        -1514.18619
      3       2.00000         -55.600136        -1512.95669
      4       2.00000         -24.331666         -662.09831
      5       2.00000         -24.309964         -661.50776
      6       2.00000         -24.302306         -661.29938
      7       2.00000         -24.269534         -660.40763
      8       2.00000         -24.259384         -660.13142
      9       2.00000         -24.257084         -660.06884
     10       2.00000         -24.184106         -658.08301
     11       2.00000         -24.174937         -657.83351
     12       2.00000         -24.154859         -657.28716
     13       2.00000          -4.141782         -112.70363
     14       2.00000          -4.096582         -111.47367
     15       2.00000          -4.049630         -110.19605
     16       2.00000          -2.736114          -74.45345
     17       2.00000          -2.733407          -74.37979
     18       2.00000          -2.730746          -74.30738
     19       2.00000          -2.689958          -73.19749
     20       2.00000          -2.688632          -73.16139
     21       2.00000          -2.685897          -73.08696
     22       2.00000          -2.644736          -71.96693
     23       2.00000          -2.640905          -71.86269
     24       2.00000          -2.637965          -71.78267
     25       2.00000          -1.210477          -32.93877
     26       2.00000          -1.168579          -31.79866
     27       2.00000          -1.158804          -31.53265
     28       2.00000          -1.133205          -30.83609
     29       2.00000          -1.117340          -30.40436
     30       2.00000          -1.098595          -29.89430
     31       2.00000          -1.019222          -27.73444
     32       2.00000          -1.014844          -27.61532
     33       2.00000          -0.997743          -27.14997
     34       2.00000          -0.581107          -15.81273
     35       2.00000          -0.571986          -15.56453
     36       2.00000          -0.543353          -14.78537
     37       2.00000          -0.520825          -14.17237
     38       2.00000          -0.516032          -14.04194
     39       2.00000          -0.502444          -13.67220
     40       2.00000          -0.487512          -13.26589
     41       2.00000          -0.483878          -13.16700
     42       2.00000          -0.469000          -12.76214
     43       2.00000          -0.462107          -12.57458
     44       2.00000          -0.460629          -12.53436
     45       2.00000          -0.457814          -12.45775
     46       2.00000          -0.449291          -12.22584
     47       2.00000          -0.428156          -11.65072
     48       2.00000          -0.422853          -11.50643
     49       2.00000          -0.404857          -11.01671
     50       2.00000          -0.404254          -11.00032
     51       2.00000          -0.400572          -10.90012
     52       2.00000          -0.387866          -10.55437
     53       2.00000          -0.375962          -10.23046
     54       2.00000          -0.349926           -9.52198
     55       2.00000          -0.330307           -8.98812
     56       2.00000          -0.326220           -8.87689
     57       2.00000          -0.324475           -8.82941
     58       2.00000          -0.320822           -8.73001
     59       2.00000          -0.307851           -8.37705
     60       2.00000          -0.297497           -8.09530
     61       0.00000          -0.203576           -5.53959
     62       0.00000          -0.139893           -3.80669
     63       0.00000          -0.095867           -2.60867
     64       0.00000          -0.072393           -1.96991
     65       0.00000          -0.063484           -1.72750
     66       0.00000          -0.052477           -1.42798
     67       0.00000          -0.000590           -0.01606
     68       0.00000           0.016179            0.44024
     69       0.00000           0.033014            0.89835
     70       0.00000           0.073030            1.98725
     71       0.00000           0.083808            2.28054
     72       0.00000           0.089249            2.42859
     73       0.00000           0.115811            3.15139
     74       0.00000           0.123478            3.36000
     75       0.00000           0.147259            4.00711
     76       0.00000           0.160967            4.38014
     77       0.00000           0.176387            4.79974
     78       0.00000           0.185673            5.05241
     79       0.00000           0.189975            5.16948
     80       0.00000           0.197628            5.37773
     81       0.00000           0.204769            5.57206
     82       0.00000           0.211875            5.76540
     83       0.00000           0.219845            5.98227
     84       0.00000           0.229768            6.25231
     85       0.00000           0.239711            6.52286
     86       0.00000           0.246286            6.70178
     87       0.00000           0.256861            6.98956
     88       0.00000           0.259267            7.05502
     89       0.00000           0.282059            7.67523
     90       0.00000           0.284830            7.75063
     91       0.00000           0.288135            7.84055
     92       0.00000           0.328225            8.93146
     93       0.00000           0.332212            9.03994
     94       0.00000           0.343104            9.33634
     95       0.00000           0.363640            9.89514
     96       0.00000           0.366797            9.98105

  Highest occupied state (VBM) at     -8.09530251 eV
  | Occupation number:      2.00000000

  Lowest unoccupied state (CBM) at    -5.53959150 eV
  | Occupation number:      0.00000000

  Overall HOMO-LUMO gap:      2.55571100 eV.
  | Chemical Potential                          :    -7.89531919 eV

  Self-consistency cycle converged.


------------------------------------------------------------
  End self-consistency iteration #    14       :  max(cpu_time)    wall_clock(cpu1)
  | Time for this iteration                     :        0.280 s           0.277 s
  | Charge density & force component update     :        0.155 s           0.155 s
  | Density mixing                              :        0.005 s           0.002 s
  | Hartree multipole update                    :        0.001 s           0.001 s
  | Hartree multipole summation                 :        0.049 s           0.050 s
  | Hartree pot. SCF incomplete forces          :        0.032 s           0.033 s
  | Integration                                 :        0.032 s           0.032 s
  | Solution of K.-S. eqns.                     :        0.004 s           0.004 s
  | Total energy evaluation                     :        0.000 s           0.000 s

  Partial memory accounting:
  | Current value for overall tracked memory usage:
  |   Minimum:        0.274 MB (on task 23)
  |   Maximum:        0.293 MB (on task  0)
  |   Average:        0.289 MB
  | Peak value for overall tracked memory usage:
  |   Minimum:        3.027 MB (on task 12 after allocating hessian_basis_wave)
  |   Maximum:        3.148 MB (on task 10 after allocating hessian_basis_wave)
  |   Average:        3.078 MB
  | Largest tracked array allocation so far:
  |   Minimum:        1.477 MB (hessian_basis_wave on task 12)
  |   Maximum:        1.550 MB (hessian_basis_wave on task  3)
  |   Average:        1.510 MB
  Note:  These values currently only include a subset of arrays which are explicitly tracked.
  The "true" memory usage will be greater.
------------------------------------------------------------
  Removing unitary transformations (pure translations, rotations) from forces on atoms.
  Atomic forces before filtering:
  | Net force on center of mass :  -0.662613E-02  0.479847E-02  0.807602E-03 eV/A
  | Net torque on center of mass:   0.110199E-01 -0.192087E-01  0.696371E-02 eV
  Atomic forces after filtering:
  | Net force on center of mass :   0.713624E-15  0.107044E-14  0.892031E-15 eV/A
  | Net torque on center of mass:   0.000000E+00 -0.481483E-14 -0.113290E-14 eV

  Energy and forces in a compact form:
  | Total energy uncorrected      :         -0.442186534269901E+05 eV
  | Total energy corrected        :         -0.442186534269901E+05 eV  <-- do not rely on this value for anything but (periodic) metals
  | Electronic free energy        :         -0.442186534269901E+05 eV
  Total atomic forces (unitary forces cleaned) [eV/Ang]:
  |    1         -0.343065091183843E+01         -0.225224580336868E+00          0.103482432552637E+01
  |    2          0.200414055977054E+01          0.187615863337676E+01          0.546270818065729E+01
  |    3          0.360585275723548E+00         -0.540818352567168E+00         -0.183890244095958E+01
  |    4          0.473025006165947E+00         -0.226754581620003E+01         -0.982636040964841E+00
  |    5          0.171695252767203E+01         -0.234939721488458E+01         -0.193245926818733E+00
  |    6          0.150561204863011E+01          0.274967727092011E+01         -0.960358839567446E+00
  |    7         -0.396482089496459E+00          0.247499676933627E+01         -0.659103471301428E+00
  |    8         -0.901367577186129E+00          0.761192264281303E+00         -0.200392935628473E+00
  |    9         -0.318575437215473E+00          0.429876747154227E-01          0.397525724998783E+01
  |   10         -0.360654020164443E+00         -0.222674386148945E+01         -0.196460718033570E+01
  |   11         -0.193136457015408E+01         -0.198987444778396E+01         -0.319505120002453E+01
  |   12          0.127877918809284E+01          0.169459166063220E+01         -0.478491720570759E+00

  ------------------------------------ 
  Start decomposition of the XC Energy 
  ------------------------------------ 
  X and C from original XC functional choice 
  Hartree-Fock Energy :          0.000000000 Ha              0.000000000 eV
  X Energy            :       -140.136091499 Ha          -3813.297068107 eV
  C Energy            :         -4.950154630 Ha           -134.700560979 eV
  Total XC Energy     :       -145.086246129 Ha          -3947.997629087 eV
  ------------------------------------ 
  LDA X and C from self-consistent density 
  X Energy LDA        :       -132.720461077 Ha          -3611.507497376 eV
  C Energy LDA        :         -8.823223431 Ha           -240.092125324 eV
  ------------------------------------ 
  End decomposition of the XC Energy 
  ------------------------------------ 

------------------------------------------------------------

------------------------------------------------------------------------------
  Final output of selected total energy values:

  The following output summarizes some interesting total energy values
  at the end of a run (AFTER all relaxation, molecular dynamics, etc.).

  | Total energy of the DFT / Hartree-Fock s.c.f. calculation      :         -44218.653426990 eV
  | Final zero-broadening corrected energy (caution - metals only) :         -44218.653426990 eV
  | For reference only, the value of 1 Hartree used in FHI-aims is :             27.211384500 eV

  Before relying on these values, please be sure to understand exactly which
  total energy value is referred to by a given number. Different objects may
  all carry the same name 'total energy'. Definitions:

  Total energy of the DFT / Hartree-Fock s.c.f. calculation:
  | Note that this energy does not include ANY quantities calculated after the
  | s.c.f. cycle, in particular not ANY RPA, MP2, etc. many-body perturbation terms.

  Final zero-broadening corrected energy:
  | For metallic systems only, a broadening of the occupation numbers at the Fermi
  | level can be extrapolated back to zero broadening by an electron-gas inspired
  | formula. For all systems that are not real metals, this value can be
  | meaningless and should be avoided.

------------------------------------------------------------------------------
  Methods described in the following list of references were used in this FHI-aims run.
  If you publish the results, please make sure to cite these reference if they apply.
  FHI-aims is an academic code, and for our developers (often, Ph.D. students
  and postdocs), scientific credit in the community is essential.
  Thank you for helping us!

  For any use of FHI-aims, please cite:

    Volker Blum, Ralf Gehrke, Felix Hanke, Paula Havu, Ville Havu,
    Xinguo Ren, Karsten Reuter, and Matthias Scheffler
    'Ab initio molecular simulations with numeric atom-centered orbitals'
    Computer Physics Communications 180, 2175-2196 (2009)
    http://dx.doi.org/10.1016/j.cpc.2009.06.022


  The ELSI infrastructure was used in your run to solve the Kohn-Sham electronic structure.
  Please check out http://elsi-interchange.org to learn more.
  If scalability is important for your project, please acknowledge ELSI by citing:

    V. W-z. Yu, F. Corsetti, A. Garcia, W. P. Huhn, M. Jacquelin, W. Jia,
    B. Lange, L. Lin, J. Lu, W. Mi, A. Seifitokaldani, A. Vazquez-Mayagoitia,
    C. Yang, H. Yang, and V. Blum
    'ELSI: A unified software interface for Kohn-Sham electronic structure solvers'
    Computer Physics Communications 222, 267-285 (2018).
    http://dx.doi.org/10.1016/j.cpc.2017.09.007


  For the real-space grid partitioning and parallelization used in this calculation, please cite:

    Ville Havu, Volker Blum, Paula Havu, and Matthias Scheffler,
    'Efficient O(N) integration for all-electron electronic structure calculation'
    'using numerically tabulated basis functions'
    Journal of Computational Physics 228, 8367-8379 (2009).
    http://dx.doi.org/10.1016/j.jcp.2009.08.008

  Of course, there are many other important community references, e.g., those cited in the
  above references. Our list is limited to references that describe implementations in the
  FHI-aims code. The reason is purely practical (length of this list) - please credit others as well.

------------------------------------------------------------
          Leaving FHI-aims.
          Date     :  20220517, Time     :  120603.804

          Computational steps:
          | Number of self-consistency cycles          :           14
          | Number of SCF (re)initializations          :            1

          Detailed time accounting                     :  max(cpu_time)    wall_clock(cpu1)
          | Total time                                  :        2.110 s           2.177 s
          | Preparation time                            :        0.183 s           0.185 s
          | Boundary condition initalization            :        0.000 s           0.001 s
          | Grid partitioning                           :        0.040 s           0.040 s
          | Preloading free-atom quantities on grid     :        0.017 s           0.017 s
          | Free-atom superposition energy              :        0.006 s           0.006 s
          | Total time for integrations                 :        0.511 s           0.508 s
          | Total time for solution of K.-S. equations  :        0.133 s           0.134 s
          | Total time for density & force components   :        0.687 s           0.687 s
          | Total time for mixing                       :        0.062 s           0.028 s
          | Total time for Hartree multipole update     :        0.025 s           0.024 s
          | Total time for Hartree multipole sum        :        0.300 s           0.302 s
          | Total time for total energy evaluation      :        0.002 s           0.003 s
          | Total time NSC force correction             :        0.064 s           0.065 s
          | Total time for scaled ZORA corrections      :        0.000 s           0.000 s

          Partial memory accounting:
          | Residual value for overall tracked memory usage across tasks:     0.000000 MB (should be 0.000000 MB)
          | Peak values for overall tracked memory usage:
          |   Minimum:        3.027 MB (on task 12 after allocating hessian_basis_wave)
          |   Maximum:        3.148 MB (on task 10 after allocating hessian_basis_wave)
          |   Average:        3.078 MB
          | Largest tracked array allocation:
          |   Minimum:        1.477 MB (hessian_basis_wave on task 12)
          |   Maximum:        1.550 MB (hessian_basis_wave on task  3)
          |   Average:        1.510 MB
          Note:  These values currently only include a subset of arrays which are explicitly tracked.
          The "true" memory usage will be greater.

          Have a nice day.
------------------------------------------------------------
