********************************************************************************
*                       GENERAL UTILITY LATTICE PROGRAM                        *
*                                 Julian Gale                                  *
*                       Curtin Institute for Computation                       *
*                           Department of Chemistry                            *
*                    Curtin University, Western Australia                      *
********************************************************************************
* Version = 5.1.1 * Last modified =  24th November 2018                        *
********************************************************************************
*  optimise     - perform optimisation run                                     *
*  conp         - constant pressure calculation                                *
*  shell        - only shells and radii to be optimised                        *
*  phonon       - calculate phonons for final geometry                         *
*  eigenvectors - output phonon eigenvectors                                   *
********************************************************************************

  Job Started  at 14:39.48 25th May        2022                               

  Number of CPUs =     1

  Host name      = login03                                 


  Total number of configurations input =      1

********************************************************************************
*  Input for Configuration =   1                                               *
********************************************************************************

  Formula = Al3F9                                                       

  Number of irreducible atoms/shells =      21


  Total number atoms/shells =      21

  Dimensionality = 0               :  Cluster


  Charge on cluster =  -0.000000


  Initial cluster dipoles : x =      0.630522 e.Angs
                            y =      0.110735 e.Angs
                            z =     -1.509784 e.Angs

  Temperature of configuration =  0.000     K 

  Symmetry number =      1

  Cartesian coordinates of cluster :

--------------------------------------------------------------------------------
   No.  Atomic       x           y          z         Charge      Occupancy
        Label      (Angs)      (Angs)     (Angs)        (e)         (Frac)  
--------------------------------------------------------------------------------
      1 Al    c      0.0537      1.5198      2.2650     3.00000    1.000000    
      2 Al    c      2.5610      2.4214      1.5350     3.00000    1.000000    
      3 Al    c      1.1562      2.9298     -0.7162     3.00000    1.000000    
      4 F     c      1.1513      3.0657      2.6437     0.59000    1.000000    
      5 F     c     -1.2697      2.8579      2.2636     0.59000    1.000000    
      6 F     c     -0.7142     -0.0575      2.8273     0.59000    1.000000    
      7 F     c      1.8869      0.6743      2.0859     0.59000    1.000000    
      8 F     c      2.7816      1.9418     -0.1506     0.59000    1.000000    
      9 F     c      1.2070      2.9900     -2.5642     0.59000    1.000000    
     10 F     c      1.7230      4.1520      0.5832     0.59000    1.000000    
     11 F     c      3.7867      3.2624      2.8395     0.59000    1.000000    
     12 F     c      0.1298      1.6156      0.2332     0.59000    1.000000    
     13 F     s      1.1513 *    3.0657 *    2.6437 *  -1.59000    1.000000    
     14 F     s     -1.2697 *    2.8579 *    2.2636 *  -1.59000    1.000000    
     15 F     s     -0.7142 *   -0.0575 *    2.8273 *  -1.59000    1.000000    
     16 F     s      1.8869 *    0.6743 *    2.0859 *  -1.59000    1.000000    
     17 F     s      2.7816 *    1.9418 *   -0.1506 *  -1.59000    1.000000    
     18 F     s      1.2070 *    2.9900 *   -2.5642 *  -1.59000    1.000000    
     19 F     s      1.7230 *    4.1520 *    0.5832 *  -1.59000    1.000000    
     20 F     s      3.7867 *    3.2624 *    2.8395 *  -1.59000    1.000000    
     21 F     s      0.1298 *    1.6156 *    0.2332 *  -1.59000    1.000000    
--------------------------------------------------------------------------------


  Brillouin zone sampling points :

--------------------------------------------------------------------------------
  Point number          x          y          z            Weight
--------------------------------------------------------------------------------
        1           0.000000   0.000000   0.000000     1.00000000
--------------------------------------------------------------------------------


********************************************************************************
*  General input information                                                   *
********************************************************************************

  Species output for all configurations : 

--------------------------------------------------------------------------------
  Species    Type    Atomic    Atomic    Charge       Radii (Angs)     Library
                     Number     Mass       (e)     Cova   Ionic  VDW   Symbol
--------------------------------------------------------------------------------
    Al       Core       13      26.98   3.000000   1.350  0.000  2.050          
    F        Core        9      19.00   0.590000   0.710  0.000  1.300          
    F        Shell       9       0.00  -1.590000   0.710  0.000  1.300          
--------------------------------------------------------------------------------


  Accuracy factor for short range sums = 12.000

  Time limit = Infinity

  Maximum range for interatomic potentials =    100000.000000 Angstroms

  General interatomic potentials :

--------------------------------------------------------------------------------
Atom  Types   Potential      Parameter       Value         Units   Cutoffs(Ang)
  1     2                                                            Min /  Max 
--------------------------------------------------------------------------------
Al   c F    s Buckingham    Buckingham A     3760.0008    eV        0.000 10.000
                            Buckingham rho  0.22200000    Ang       
                            Buckingham C     0.0000000    eV*Ang^6  
--------------------------------------------------------------------------------
F    s F    s Buck 4 range  Buck4 A          1127.7000    eV        0.000 12.000
                            Buck4 rho       0.27530000    Ang       
                            Buck4 C          15.830000    eV*Ang^6  
                            Buck4 minimum    2.7900000    Ang       
--------------------------------------------------------------------------------
F    c F    s Spring (c-s)  Spring k 2       20.770000    eV*Ang^-2 0.000  0.800
                            Spring k 4       0.0000000    eV*Ang^-4 
--------------------------------------------------------------------------------

********************************************************************************
*  Output for configuration   1                                                *
********************************************************************************


  Components of energy : 

--------------------------------------------------------------------------------
  Interatomic potentials     =           9.26509740 eV    
  Monopole - monopole (real) =        -174.58212846 eV    
--------------------------------------------------------------------------------
  Total lattice energy       =        -165.31703106 eV    
--------------------------------------------------------------------------------
  Total lattice energy       =          -15950.5664 kJ/mol
--------------------------------------------------------------------------------


  Number of variables =       27

  Maximum number of calculations  =          2000
  Maximum Hessian update interval =            10
  Maximum step size               =   1.000000000
  Maximum parameter tolerance     =   0.000001000
  Maximum function  tolerance     =   0.000010000
  Maximum gradient  tolerance     =   0.000000010
  Maximum gradient  component     =   0.010000000

  Symmetry not applied to optimisation

  Newton-Raphson optimiser to be used

  BFGS hessian update to be used

  Lower half triangular hessian to be used

  Minimiser to switch to RFO
  When gradient norm is less than     0.010000

  Shell only optimisation

  Start of cluster optimisation :

  Cycle:      0 Energy:      -165.317031  Gnorm:      1.484250  CPU:    0.004
  ** Hessian calculated **
  Cycle:      1 Energy:      -183.044542  Gnorm:      0.637534  CPU:    0.006
  ** Hessian calculated **
  Cycle:      2 Energy:      -184.748116  Gnorm:      0.046948  CPU:    0.008
  Cycle:      3 Energy:      -184.761108  Gnorm:      0.009161  CPU:    0.009
  ** Hessian has required structure
  Cycle:      4 Energy:      -184.761706  Gnorm:      0.003182  CPU:    0.011
  ** Hessian has required structure
  Cycle:      5 Energy:      -184.761780  Gnorm:      0.001050  CPU:    0.013
  ** Hessian has required structure
  Cycle:      6 Energy:      -184.761790  Gnorm:      0.000411  CPU:    0.014
  ** Hessian has required structure
  Cycle:      7 Energy:      -184.761791  Gnorm:      0.000287  CPU:    0.016
  ** Hessian has required structure
  Cycle:      8 Energy:      -184.761791  Gnorm:      0.000210  CPU:    0.017
  ** Hessian has required structure
  Cycle:      9 Energy:      -184.761791  Gnorm:      0.000160  CPU:    0.019
  ** Hessian has required structure
  Cycle:     10 Energy:      -184.761791  Gnorm:      0.000144  CPU:    0.020
  ** Hessian has required structure
  Cycle:     11 Energy:      -184.761791  Gnorm:      0.000136  CPU:    0.021
  ** Hessian has required structure
  Cycle:     12 Energy:      -184.761791  Gnorm:      0.000000  CPU:    0.023
  ** Hessian has required structure

  XYZ File written as 004/2/sp_mod_-100/sp_mod_-100_eig.xyz



  **** Optimisation achieved ****


  Final energy =    -184.76179149 eV
  Final Gnorm  =       0.00000000

  Components of energy : 

--------------------------------------------------------------------------------
  Interatomic potentials     =          37.03549229 eV    
  Monopole - monopole (real) =        -221.79728379 eV    
--------------------------------------------------------------------------------
  Total lattice energy       =        -184.76179149 eV    
--------------------------------------------------------------------------------
  Total lattice energy       =          -17826.6885 kJ/mol
--------------------------------------------------------------------------------

  Final cartesian coordinates of atoms :

--------------------------------------------------------------------------------
   No.  Atomic        x           y          z          Radius
        Label       (Angs)      (Angs)     (Angs)       (Angs) 
--------------------------------------------------------------------------------
     1  Al    c     0.053722    1.519758    2.265017    0.000000
     2  Al    c     2.561047    2.421444    1.535021    0.000000
     3  Al    c     1.156191    2.929781   -0.716157    0.000000
     4  F     c     1.151342    3.065677    2.643660    0.000000
     5  F     c    -1.269702    2.857930    2.263641    0.000000
     6  F     c    -0.714214   -0.057456    2.827264    0.000000
     7  F     c     1.886910    0.674302    2.085865    0.000000
     8  F     c     2.781551    1.941809   -0.150623    0.000000
     9  F     c     1.206977    2.990035   -2.564248    0.000000
    10  F     c     1.723005    4.151980    0.583171    0.000000
    11  F     c     3.786656    3.262385    2.839519    0.000000
    12  F     c     0.129833    1.615552    0.233176    0.000000
    13  F     s     1.183391    2.811976    2.478412    0.000000
    14  F     s    -1.099088    2.638339    2.252092    0.000000
    15  F     s    -0.570265    0.175148    2.738903    0.000000
    16  F     s     1.819243    0.933613    2.005528    0.000000
    17  F     s     2.626883    2.085297   -0.046373    0.000000
    18  F     s     1.179565    2.993676   -2.243086    0.000000
    19  F     s     1.695690    3.905067    0.436308    0.000000
    20  F     s     3.612603    3.085219    2.547867    0.000000
    21  F     s     0.280399    1.822854    0.234925    0.000000
--------------------------------------------------------------------------------


  Final Cartesian derivatives :

--------------------------------------------------------------------------------
   No.  Atomic          x             y             z           Radius
        Label       (eV/Angs)     (eV/Angs)    (eV/Angs)      (eV/Angs)
--------------------------------------------------------------------------------
      1 Al    c       0.000000      0.000000      0.000000      0.000000
      2 Al    c       0.000000      0.000000      0.000000      0.000000
      3 Al    c       0.000000      0.000000      0.000000      0.000000
      4 F     c       0.000000      0.000000      0.000000      0.000000
      5 F     c       0.000000      0.000000      0.000000      0.000000
      6 F     c       0.000000      0.000000      0.000000      0.000000
      7 F     c       0.000000      0.000000      0.000000      0.000000
      8 F     c       0.000000      0.000000      0.000000      0.000000
      9 F     c       0.000000      0.000000      0.000000      0.000000
     10 F     c       0.000000      0.000000      0.000000      0.000000
     11 F     c       0.000000      0.000000      0.000000      0.000000
     12 F     c       0.000000      0.000000      0.000000      0.000000
     13 F     s      -0.000000     -0.000000      0.000000      0.000000
     14 F     s      -0.000000     -0.000000      0.000000      0.000000
     15 F     s       0.000000     -0.000000      0.000000      0.000000
     16 F     s       0.000000     -0.000000     -0.000000      0.000000
     17 F     s      -0.000000     -0.000000      0.000000      0.000000
     18 F     s       0.000000     -0.000000      0.000000      0.000000
     19 F     s       0.000000     -0.000000     -0.000000      0.000000
     20 F     s       0.000000     -0.000000     -0.000000      0.000000
     21 F     s      -0.000000      0.000000      0.000000      0.000000
--------------------------------------------------------------------------------
  Maximum abs         0.000000      0.000000      0.000000      0.000000
--------------------------------------------------------------------------------


  Born effective charge tensors : 

-------------------------------------------------------------------------------
  Atom             x           y             z
-------------------------------------------------------------------------------
    1 Al    x       1.2555     -0.0293     -0.1366
            y      -0.0142      0.6206      0.0503
            z      -0.1344     -0.0163      1.7859
-------------------------------------------------------------------------------
    2 Al    x       1.1727     -0.1023      0.1196
            y      -0.1771      1.3865     -0.4326
            z       0.1947     -0.3761      0.8734
-------------------------------------------------------------------------------
    3 Al    x       1.4586     -0.1943     -0.0041
            y      -0.1741      1.1860     -0.1457
            z      -0.0327     -0.1481      0.7197
-------------------------------------------------------------------------------
    4 F     x      -0.2638      0.0253     -0.0166
            y      -0.0408     -0.3603      0.0575
            z      -0.0060      0.0425     -0.4157
-------------------------------------------------------------------------------
    5 F     x      -0.3525     -0.2064      0.0620
            y      -0.1944     -0.3099     -0.0021
            z       0.0466      0.0078     -0.5813
-------------------------------------------------------------------------------
    6 F     x      -0.4663      0.1653     -0.0408
            y       0.1580     -0.1162     -0.1257
            z      -0.0525     -0.1449     -0.5027
-------------------------------------------------------------------------------
    7 F     x      -0.5893      0.0360      0.0171
            y       0.0825     -0.3013      0.0198
            z      -0.0133      0.0049     -0.3798
-------------------------------------------------------------------------------
    8 F     x      -0.4765      0.0505     -0.0833
            y       0.0669     -0.3671      0.0771
            z      -0.0523      0.1391     -0.0835
-------------------------------------------------------------------------------
    9 F     x      -0.5475      0.0019     -0.0051
            y       0.0097     -0.5290     -0.0240
            z      -0.0049      0.0012      0.0611
-------------------------------------------------------------------------------
   10 F     x      -0.4052      0.1604     -0.0149
            y       0.2245     -0.4785      0.3635
            z      -0.0437      0.3137     -0.3716
-------------------------------------------------------------------------------
   11 F     x      -0.3730      0.0903      0.1572
            y       0.0744     -0.4370      0.1203
            z       0.1225      0.1026     -0.3552
-------------------------------------------------------------------------------
   12 F     x      -0.4125      0.0025     -0.0545
            y      -0.0153     -0.2939      0.0417
            z      -0.0239      0.0735     -0.7504
-------------------------------------------------------------------------------




  Moment of inertia tensor (10^-46 x kgm^2): 

-------------------------------------------------------------------------------
                x           y           z           Principal axis system
-------------------------------------------------------------------------------
       x        156.35      -22.33       10.64          113.741207
       y        -22.33      185.93       23.49          157.152534
       z         10.64       23.49      130.36          201.749215
-------------------------------------------------------------------------------
  Centre of mass (Ang) =     1.209436     2.281976     1.141820
-------------------------------------------------------------------------------


  Vibrational Frequency Calculation : 

--------------------------------------------------------------------------------

  Frequencies (cm-1) and Eigenvectors : 

  Frequency     -84.2585  -42.0711   -0.0000    0.0000    0.0000   22.2055
  IR Intensity    0.0091    0.0006    0.0000    0.0000    0.0000    0.0022
     in X         0.0005    0.0003    0.0000    0.0000    0.0000    0.0018
     in Y         0.0061    0.0000    0.0000    0.0000    0.0000    0.0004
     in Z         0.0024    0.0002    0.0000    0.0000    0.0000    0.0001
  Raman Intsty    1.5385    0.0030    0.0000    0.0000    0.0000    0.0724

     1 x       0.031700 -0.105752 -0.115128  0.301039 -0.056656  0.135703
     1 y      -0.032411 -0.174067  0.304028  0.119691  0.018168 -0.154524
     1 z       0.212108 -0.078523  0.037435 -0.046245 -0.321790  0.219052
     2 x      -0.218792 -0.163624 -0.115128  0.301039 -0.056656 -0.032954
     2 y       0.391231  0.007106  0.304028  0.119691  0.018168 -0.020743
     2 z      -0.134614  0.118539  0.037435 -0.046245 -0.321790 -0.231854
     3 x       0.166193  0.219471 -0.115128  0.301039 -0.056656 -0.169368
     3 y      -0.267034  0.150980  0.304028  0.119691  0.018168  0.182280
     3 z      -0.153109 -0.036188  0.037435 -0.046245 -0.321790 -0.014223
     4 x      -0.138380 -0.153465 -0.096614  0.252626 -0.047544  0.147707
     4 y       0.115554 -0.172170  0.255135  0.100442  0.015246 -0.174319
     4 z       0.112265  0.188475  0.031415 -0.038808 -0.270040  0.164195
     5 x      -0.065518 -0.131649 -0.096614  0.252626 -0.047544  0.070819
     5 y      -0.125090 -0.195812  0.255135  0.100442  0.015246 -0.179496
     5 z      -0.053763 -0.357006  0.031415 -0.038808 -0.270040  0.189035
     6 x       0.036370 -0.042548 -0.096614  0.252626 -0.047544  0.213183
     6 y      -0.017247 -0.122933  0.255135  0.100442  0.015246 -0.130488
     6 z       0.225706  0.054800  0.031415 -0.038808 -0.270040  0.316327
     7 x      -0.045191 -0.075061 -0.096614  0.252626 -0.047544  0.041553
     7 y       0.226119 -0.076938  0.255135  0.100442  0.015246 -0.082788
     7 z       0.019745 -0.132664  0.031415 -0.038808 -0.270040 -0.285559
     8 x       0.032132  0.296988 -0.096614  0.252626 -0.047544 -0.103052
     8 y      -0.384483  0.325410  0.255135  0.100442  0.015246  0.087526
     8 z       0.059567  0.063234  0.031415 -0.038808 -0.270040 -0.244268
     9 x       0.179108  0.283365 -0.096614  0.252626 -0.047544 -0.203833
     9 y       0.029634  0.201273  0.255135  0.100442  0.015246  0.374416
     9 z      -0.114167 -0.024972  0.031415 -0.038808 -0.270040 -0.004843
    10 x       0.219900 -0.152998 -0.096614  0.252626 -0.047544 -0.036370
    10 y      -0.271812  0.028486  0.255135  0.100442  0.015246 -0.034076
    10 z      -0.010294  0.221504  0.031415 -0.038808 -0.270040  0.150250
    11 x      -0.150541 -0.181472 -0.096614  0.252626 -0.047544  0.043377
    11 y       0.278442  0.015827  0.255135  0.100442  0.015246 -0.023020
    11 z      -0.106362  0.141184  0.031415 -0.038808 -0.270040 -0.260372
    12 x      -0.042977  0.216309 -0.096614  0.252626 -0.047544 -0.093998
    12 y       0.039507  0.015898  0.255135  0.100442  0.015246  0.153889
    12 z      -0.042592 -0.159117  0.031415 -0.038808 -0.270040  0.007441


  Frequency      42.3265   69.1177   90.5397  120.0346  156.4184  167.4810
  IR Intensity    0.0004    0.0022    0.0026    0.0014    0.0059    0.0125
     in X         0.0001    0.0003    0.0001    0.0012    0.0026    0.0005
     in Y         0.0002    0.0016    0.0011    0.0001    0.0032    0.0111
     in Z         0.0000    0.0002    0.0014    0.0000    0.0001    0.0010
  Raman Intsty    0.0095    0.1493    0.8848    0.0193    0.0691    0.0505

     1 x      -0.150519  0.015771  0.014399  0.026858  0.048838  0.046511
     1 y       0.160524  0.128514  0.102950 -0.039296 -0.015359 -0.041959
     1 z       0.046636  0.059837 -0.124976 -0.186181 -0.107325  0.268741
     2 x      -0.021812  0.021743  0.019884  0.100574  0.105936 -0.115773
     2 y      -0.278606 -0.040250  0.113767 -0.000488  0.006085 -0.037174
     2 z      -0.042836 -0.034533 -0.021960  0.051308  0.034065 -0.074096
     3 x       0.145631 -0.083039 -0.040247 -0.051492 -0.231616  0.006961
     3 y       0.085180 -0.144355 -0.167006  0.024234 -0.066856 -0.134959
     3 z      -0.015674 -0.069070  0.109859  0.143739  0.071025 -0.161488
     4 x       0.099609  0.100163  0.174036 -0.090081  0.008309 -0.030089
     4 y      -0.055792  0.022904 -0.184669  0.055359  0.019815  0.124029
     4 z       0.052997  0.047124  0.415253 -0.199337 -0.134048 -0.095527
     5 x       0.011095  0.061288  0.154432 -0.072026  0.076045  0.157274
     5 y       0.274849  0.159801  0.250322 -0.117807  0.025605  0.065533
     5 z      -0.106167 -0.318457 -0.180874 -0.447902 -0.062018  0.219079
     6 x      -0.306987  0.042198 -0.160314  0.126858  0.088452 -0.290877
     6 y       0.261882  0.304305  0.085103  0.023727  0.029083 -0.005515
     6 z       0.155776  0.628906 -0.373264  0.135180  0.080831 -0.100441
     7 x      -0.264202 -0.009247  0.068669  0.129980  0.065050 -0.019244
     7 y      -0.141462 -0.004271  0.032050  0.036723  0.004065  0.021352
     7 z      -0.067491 -0.029913 -0.151283  0.198580  0.038765  0.337558
     8 x      -0.033767  0.101438  0.020757 -0.119945 -0.314248  0.188739
     8 y      -0.240408  0.156970 -0.072904 -0.176834 -0.123358  0.094540
     8 z      -0.043752 -0.059125 -0.008376  0.059768  0.038957 -0.054847
     9 x       0.183216 -0.102863 -0.165918 -0.420564  0.648931 -0.044259
     9 y       0.227993 -0.318851  0.073908  0.427177  0.289906  0.427690
     9 z      -0.005843 -0.067171  0.101096  0.134836  0.093952 -0.128774
    10 x       0.338384 -0.286411 -0.139523  0.244218 -0.346105 -0.229336
    10 y      -0.118617 -0.022999 -0.273242 -0.014648 -0.001881 -0.056683
    10 z       0.089360 -0.079974  0.321628  0.027347  0.028865 -0.128986
    11 x       0.043585  0.047212  0.067242  0.005187  0.107000  0.009507
    11 y      -0.361606 -0.012845  0.218467  0.002412  0.029221 -0.128962
    11 z      -0.014700 -0.072381 -0.148578  0.124117 -0.000890 -0.122535
    12 x      -0.039118  0.100471 -0.012274  0.105878 -0.241866  0.332527
    12 y       0.192368 -0.218173 -0.188270 -0.217578 -0.181736 -0.286865
    12 z      -0.046031  0.003145  0.068581 -0.043155 -0.081753  0.034961


  Frequency     192.8646  197.8175  211.7879  227.8856  242.1304  255.3857
  IR Intensity    0.0079    0.0154    0.0158    0.0051    0.0293    0.0041
     in X         0.0037    0.0070    0.0001    0.0021    0.0105    0.0010
     in Y         0.0002    0.0051    0.0123    0.0014    0.0187    0.0000
     in Z         0.0040    0.0032    0.0034    0.0016    0.0001    0.0031
  Raman Intsty    0.0377    0.0843    0.0156    0.1158    0.4426    0.0164

     1 x       0.040382 -0.193587 -0.163084 -0.023966 -0.120859  0.037462
     1 y       0.106353  0.344372  0.063831  0.130560  0.011180  0.083107
     1 z      -0.063958 -0.001066 -0.172427  0.064411 -0.190239  0.136823
     2 x       0.047403 -0.031006  0.100660 -0.071623  0.077166  0.084930
     2 y       0.155938 -0.148991 -0.225651 -0.177909 -0.048522  0.080966
     2 z       0.026485 -0.096043 -0.001178 -0.007770  0.272946 -0.066464
     3 x       0.049311  0.060736  0.072031 -0.013686  0.227718 -0.245280
     3 y      -0.247975 -0.055122 -0.077859  0.039611 -0.168052 -0.155152
     3 z      -0.065737  0.004793  0.093272 -0.181139 -0.136180  0.097814
     4 x      -0.032575  0.006900 -0.053722  0.165411  0.058127  0.191439
     4 y       0.121905  0.107788 -0.121797 -0.148742 -0.142888 -0.026355
     4 z      -0.067012  0.009170 -0.292707  0.282769  0.216471  0.201266
     5 x       0.065859 -0.543359 -0.095440  0.083875 -0.195400 -0.322218
     5 y       0.120521 -0.048449  0.133281  0.229532 -0.074500 -0.264286
     5 z       0.192134  0.023741  0.374140 -0.077716  0.128649 -0.060007
     6 x       0.238083  0.428490 -0.005078  0.347168  0.029844 -0.208027
     6 y       0.021742 -0.002886  0.117229 -0.088686  0.035576  0.124060
     6 z      -0.011753 -0.122115  0.165163 -0.079065  0.090631 -0.085758
     7 x      -0.058386  0.045031  0.051097  0.091689 -0.097833  0.026204
     7 y       0.093764  0.101452 -0.192603 -0.114285 -0.094912  0.050581
     7 z      -0.359157  0.177053 -0.167524  0.119991 -0.049686 -0.270221
     8 x       0.216385  0.094056  0.173164 -0.239948  0.032550  0.029006
     8 y       0.048067  0.029493  0.040612 -0.168630 -0.129038  0.161082
     8 z       0.044965 -0.146955 -0.071216 -0.015218  0.332220 -0.102219
     9 x      -0.154089  0.080221  0.042915  0.027234 -0.154613  0.163940
     9 y       0.182078  0.017481  0.101846  0.077679  0.236175  0.093522
     9 z      -0.050850  0.008113  0.097800 -0.180888 -0.134251  0.122196
    10 x      -0.123221 -0.098893  0.138327 -0.063236 -0.183167  0.261285
    10 y      -0.203616 -0.176452 -0.086056  0.102925  0.155286  0.116179
    10 z       0.008087  0.213146  0.045812 -0.253620 -0.344509 -0.396816
    11 x      -0.089083  0.108828 -0.313190 -0.470797  0.373452 -0.033467
    11 y      -0.344999 -0.181382  0.497404  0.072852  0.146854 -0.040313
    11 z       0.497022 -0.221599 -0.050889  0.245648 -0.148289  0.144735
    12 x      -0.226343  0.073983  0.050478  0.188819 -0.082251  0.038276
    12 y      -0.056523 -0.014182 -0.204306  0.046575  0.112202 -0.225099
    12 z      -0.130447  0.169453 -0.004851  0.106457 -0.027515  0.246422


  Frequency     266.9609  267.9533  298.8963  318.1467  364.9140  372.8240
  IR Intensity    0.0234    0.0721    0.0731    0.0144    0.0927    0.0037
     in X         0.0025    0.0291    0.0217    0.0054    0.0035    0.0031
     in Y         0.0144    0.0083    0.0044    0.0028    0.0012    0.0002
     in Z         0.0064    0.0346    0.0470    0.0063    0.0881    0.0004
  Raman Intsty    0.2115    0.0003    0.0950    0.4174    1.9456    0.0000

     1 x      -0.053359 -0.134749 -0.163594 -0.081505 -0.228875  0.000350
     1 y       0.002139 -0.022305 -0.082708 -0.088149  0.090859  0.005774
     1 z      -0.153159  0.163809 -0.355530 -0.098650  0.525508  0.043899
     2 x      -0.137067 -0.148362 -0.134166 -0.121226  0.099657  0.058244
     2 y       0.177619 -0.052692  0.154880  0.080335  0.003698 -0.038785
     2 z      -0.001482  0.086221 -0.051424 -0.050271  0.029181  0.201836
     3 x       0.046922 -0.118344 -0.067183  0.095260  0.088158 -0.164296
     3 y       0.161347 -0.111363  0.003252 -0.171078  0.039577  0.014725
     3 z       0.047030  0.145959 -0.039257  0.063626 -0.012253 -0.215593
     4 x      -0.146560 -0.140738 -0.165059 -0.296987 -0.087081 -0.157065
     4 y       0.075017  0.085067 -0.318709 -0.065704 -0.173692  0.086633
     4 z       0.063863  0.005822  0.271773 -0.167216 -0.106449 -0.056841
     5 x      -0.001394  0.212981  0.041106  0.097992 -0.200106 -0.000541
     5 y       0.054148  0.316097  0.160558  0.148474  0.250202  0.021228
     5 z       0.232441 -0.179425  0.218465 -0.113626 -0.077353 -0.026750
     6 x       0.089342  0.322279  0.015594 -0.076258 -0.115216 -0.004759
     6 y       0.003871 -0.334574  0.024535 -0.028335 -0.207025 -0.010932
     6 z       0.048053 -0.058597  0.157628  0.060707 -0.024756 -0.006561
     7 x      -0.162382 -0.352642  0.289162  0.386870  0.452091  0.032869
     7 y       0.061555 -0.048664  0.192337 -0.054048  0.048857 -0.158299
     7 z      -0.362648 -0.071941  0.302571 -0.202247 -0.182038 -0.090522
     8 x      -0.303696  0.159409 -0.022670  0.061643 -0.084845 -0.345147
     8 y      -0.205014  0.182723  0.243130 -0.084578 -0.053398  0.361676
     8 z       0.075435  0.079491 -0.098094 -0.022047  0.046405  0.134591
     9 x       0.025273  0.053887  0.067833  0.031739 -0.039567  0.033728
     9 y      -0.091739  0.047381 -0.009006  0.071322 -0.036519  0.011111
     9 z       0.041252  0.169874 -0.043451  0.088856 -0.027829 -0.324614
    10 x       0.009146  0.244267  0.286678 -0.131027 -0.006684  0.191579
    10 y       0.176041  0.075294 -0.033534  0.081577  0.107349 -0.499827
    10 z       0.093172 -0.209116 -0.105735 -0.074358  0.012334  0.035646
    11 x       0.115772  0.101252  0.051018 -0.004174  0.158279  0.224950
    11 y      -0.158734  0.039754 -0.211390 -0.150578  0.014188  0.140751
    11 z      -0.050349 -0.249597 -0.032302 -0.074619  0.058839  0.113807
    12 x       0.545504 -0.122305 -0.128783  0.058266 -0.027943  0.150343
    12 y      -0.321620 -0.141004 -0.137800  0.295045 -0.109801  0.069449
    12 z      -0.012986  0.041615 -0.139133  0.606191 -0.345540  0.185326


  Frequency     388.9589  448.6429  483.1389  494.6252  502.7103  512.6803
  IR Intensity    0.0040    0.1006    0.0261    0.0110    0.0351    0.0277
     in X         0.0001    0.0697    0.0206    0.0003    0.0002    0.0094
     in Y         0.0000    0.0292    0.0001    0.0060    0.0223    0.0174
     in Z         0.0039    0.0017    0.0054    0.0047    0.0126    0.0010
  Raman Intsty    0.0353    0.7894    0.0063    3.0648    1.1122    0.0544

     1 x       0.227875 -0.024819  0.171209  0.117353 -0.007783  0.019155
     1 y       0.111284 -0.030144  0.110073  0.089623 -0.002153  0.002105
     1 z       0.041604  0.008881  0.193184  0.159232 -0.012510  0.037441
     2 x      -0.264142 -0.007867  0.110749 -0.092653  0.098653  0.191531
     2 y      -0.117483 -0.014926 -0.004905  0.133280 -0.236387 -0.437805
     2 z       0.105600  0.006782 -0.039313 -0.009388  0.075349  0.128293
     3 x       0.073898  0.591770  0.064177  0.023661 -0.036946  0.046867
     3 y       0.002072 -0.346097 -0.076787 -0.055106 -0.081794  0.115668
     3 z       0.017141  0.039836  0.021597 -0.002251  0.090427 -0.045836
     4 x      -0.192397  0.143244 -0.571306  0.115626 -0.098450 -0.238469
     4 y       0.359450  0.096891 -0.310076 -0.523885  0.068330  0.030074
     4 z       0.200822 -0.025781  0.084139 -0.343605  0.095347  0.113288
     5 x       0.043226  0.041691  0.072735  0.036410  0.070728  0.164881
     5 y      -0.127719 -0.035165 -0.087092 -0.089666 -0.056471 -0.133042
     5 z       0.018892 -0.027185 -0.006349 -0.020135  0.030096 -0.020627
     6 x       0.056635 -0.057291  0.151344  0.140935 -0.017449 -0.029257
     6 y       0.282909 -0.082786  0.327439  0.290662  0.020390  0.030260
     6 z      -0.101632  0.027241 -0.141182 -0.126949  0.001260 -0.006011
     7 x       0.351289 -0.085490 -0.201208 -0.098042  0.070360  0.007479
     7 y      -0.390476  0.062796 -0.134575  0.127496  0.329072  0.571927
     7 z      -0.089582  0.021574  0.085020 -0.002114 -0.077676 -0.158423
     8 x      -0.029750 -0.491707 -0.031090 -0.101650 -0.106313  0.039721
     8 y       0.057736  0.332292 -0.048318  0.162809  0.069743 -0.056339
     8 z       0.180756 -0.245409 -0.366108  0.457262  0.040212  0.043518
     9 x      -0.011650 -0.050125 -0.011851 -0.009345 -0.009853  0.001776
     9 y      -0.002368  0.027868 -0.004682 -0.001675 -0.007614  0.017246
     9 z       0.025561  0.082919  0.073477  0.000702  0.455043 -0.309720
    10 x       0.080922  0.016014 -0.043826  0.040234 -0.121965  0.042465
    10 y       0.069183  0.133458  0.073850 -0.000295 -0.337869  0.116953
    10 z      -0.004845  0.073477 -0.052656  0.044670 -0.297439  0.097964
    11 x      -0.161512 -0.070734  0.197946 -0.192936 -0.132695 -0.110519
    11 y      -0.118368 -0.000426  0.114329 -0.161235 -0.038953  0.006130
    11 z      -0.247544 -0.008458  0.168645 -0.216485 -0.129900 -0.102873
    12 x      -0.181606 -0.111828  0.024789  0.011139  0.281380 -0.184988
    12 y      -0.125428 -0.068798  0.035306 -0.004163  0.335094 -0.201849
    12 z      -0.178267  0.035485 -0.054081  0.030776 -0.299580  0.200010


  Frequency     639.8259  652.3943  715.3149  773.4973  808.4697  867.9320
  IR Intensity    0.0397    0.0926    0.0245    0.0352    0.0059    0.0005
     in X         0.0327    0.0591    0.0012    0.0000    0.0011    0.0001
     in Y         0.0068    0.0273    0.0229    0.0000    0.0048    0.0001
     in Z         0.0002    0.0062    0.0004    0.0352    0.0000    0.0003
  Raman Intsty    0.4423    0.0109    0.2946    0.0086    0.4044    0.5249

     1 x       0.285617  0.283687  0.495874  0.094114 -0.360343 -0.046244
     1 y      -0.049640 -0.036899 -0.359638  0.173382 -0.632557 -0.054753
     1 z      -0.063035  0.003316 -0.017966 -0.071925  0.142174  0.029380
     2 x       0.485907  0.222242 -0.405409 -0.091869  0.221146  0.135429
     2 y       0.081633  0.144040 -0.237116 -0.255876 -0.001655  0.114067
     2 z      -0.100274 -0.068727  0.137924 -0.567508 -0.275398  0.429430
     3 x      -0.169181  0.320583 -0.034222 -0.004983  0.046075 -0.125246
     3 y      -0.322072  0.479185 -0.067521 -0.058048  0.029464 -0.037692
     3 z       0.058169 -0.063201 -0.011280 -0.376867 -0.050625 -0.696173
     4 x      -0.208823 -0.119768  0.082366 -0.100335  0.023167  0.034246
     4 y       0.044865 -0.044050 -0.037964  0.008944  0.182589 -0.007811
     4 z       0.130706  0.039896 -0.079214  0.065047  0.095027 -0.029255
     5 x      -0.246154 -0.207606 -0.360828  0.026891 -0.055139 -0.004984
     5 y       0.230915  0.189485  0.351749 -0.028647  0.107135  0.007198
     5 z       0.014073 -0.015239  0.003646  0.008667 -0.006313 -0.002463
     6 x      -0.086549 -0.069188  0.030797 -0.069683  0.201875  0.017231
     6 y      -0.162631 -0.128030  0.104290 -0.138900  0.416140  0.033066
     6 z       0.061753  0.041961 -0.033146  0.052461 -0.144054 -0.012324
     7 x      -0.093977 -0.090478  0.005697 -0.002177 -0.002214  0.004362
     7 y      -0.093006 -0.068007  0.207661  0.024314 -0.016435 -0.006996
     7 z       0.049462  0.024642 -0.047594  0.019831  0.017972 -0.013288
     8 x      -0.031243 -0.025528  0.006244 -0.026203 -0.018756  0.033945
     8 y       0.069894 -0.001012 -0.016070  0.090596  0.040376 -0.056635
     8 z       0.141541  0.053721 -0.090937  0.362122  0.140915 -0.173076
     9 x       0.006656 -0.021686  0.001467 -0.006596 -0.003495 -0.009608
     9 y       0.022995 -0.030376  0.004910 -0.008169 -0.003198 -0.008106
     9 z      -0.172028  0.176442  0.010361  0.318161  0.037673  0.385703
    10 x       0.057156 -0.130764  0.025979  0.039347 -0.012882  0.089029
    10 y       0.205867 -0.303036  0.042689  0.120411  0.003637  0.124952
    10 z       0.183901 -0.263476  0.028614  0.119774  0.009528  0.177298
    11 x      -0.234607 -0.120484  0.132316  0.176839 -0.002551 -0.095904
    11 y      -0.127144 -0.075592  0.098940  0.130449  0.009976 -0.068791
    11 z      -0.185633 -0.089834  0.104417  0.213914  0.030413 -0.116179
    12 x       0.119766 -0.199400  0.008939 -0.034821 -0.019038 -0.025344
    12 y       0.153915 -0.238069  0.035368 -0.031523 -0.019579 -0.042644
    12 z      -0.098484  0.185146 -0.025650  0.051085  0.037919  0.066434




--------------------------------------------------------------------------------
  Vibrational properties (for cluster):  Temperature  =       0.000 K
--------------------------------------------------------------------------------
  Zero point energy            =        0.691320 eV
--------------------------------------------------------------------------------

  Phonon density of states : 

--------------------------------------------------------------------------------
 Frequency (cm-1) Density of States                                             
--------------------------------------------------------------------------------
    0.00000 |************************************************************  0.061
   13.56144 |******************************                                0.030
   27.12288 |                                                              0.000
   40.68432 |******************************                                0.030
   54.24576 |                                                              0.000
   67.80720 |******************************                                0.030
   81.36863 |******************************                                0.030
   94.93007 |                                                              0.000
  108.49151 |******************************                                0.030
  122.05295 |                                                              0.000
  135.61439 |                                                              0.000
  149.17583 |******************************                                0.030
  162.73727 |******************************                                0.030
  176.29871 |                                                              0.000
  189.86015 |************************************************************  0.061
  203.42159 |******************************                                0.030
  216.98303 |******************************                                0.030
  230.54446 |******************************                                0.030
  244.10590 |******************************                                0.030
  257.66734 |************************************************************  0.061
  271.22878 |                                                              0.000
  284.79022 |                                                              0.000
  298.35166 |******************************                                0.030
  311.91310 |******************************                                0.030
  325.47454 |                                                              0.000
  339.03598 |                                                              0.000
  352.59742 |******************************                                0.030
  366.15886 |******************************                                0.030
  379.72029 |******************************                                0.030
  393.28173 |                                                              0.000
  406.84317 |                                                              0.000
  420.40461 |                                                              0.000
  433.96605 |                                                              0.000
  447.52749 |******************************                                0.030
  461.08893 |                                                              0.000
  474.65037 |******************************                                0.030
  488.21181 |******************************                                0.030
  501.77325 |************************************************************  0.061
  515.33469 |                                                              0.000
  528.89612 |                                                              0.000
  542.45756 |                                                              0.000
  556.01900 |                                                              0.000
  569.58044 |                                                              0.000
  583.14188 |                                                              0.000
  596.70332 |                                                              0.000
  610.26476 |                                                              0.000
  623.82620 |                                                              0.000
  637.38764 |******************************                                0.030
  650.94908 |******************************                                0.030
  664.51052 |                                                              0.000
  678.07195 |                                                              0.000
  691.63339 |                                                              0.000
  705.19483 |******************************                                0.030
  718.75627 |                                                              0.000
  732.31771 |                                                              0.000
  745.87915 |                                                              0.000
  759.44059 |                                                              0.000
  773.00203 |******************************                                0.030
  786.56347 |                                                              0.000
  800.12491 |******************************                                0.030
  813.68635 |                                                              0.000
  827.24778 |                                                              0.000
  840.80922 |                                                              0.000
  854.37066 |******************************                                0.030
--------------------------------------------------------------------------------



  Time to end of optimisation =       0.0332 seconds


  Peak dynamic memory used =       0.65 MB 


  Timing analysis for GULP :

--------------------------------------------------------------------------------
  Task / Subroutine                                          Time (Seconds)
--------------------------------------------------------------------------------
  Calculation of real space energy and derivatives                0.0021
  Calculation of phonons                                          0.0017
  Calculation and manipulation of Hessian matrix                  0.0014
--------------------------------------------------------------------------------
  Total CPU time                                                  0.0332
--------------------------------------------------------------------------------


  Job Finished at 14:39.48 25th May        2022                               

