********************************************************************************
*                       GENERAL UTILITY LATTICE PROGRAM                        *
*                                 Julian Gale                                  *
*                       Curtin Institute for Computation                       *
*                           Department of Chemistry                            *
*                    Curtin University, Western Australia                      *
********************************************************************************
* Version = 5.1.1 * Last modified =  11th January 2019                         *
********************************************************************************
*  single       - perform a single point run                                   *
*  phonon       - calculate phonons for final geometry                         *
*  eigenvectors - output phonon eigenvectors                                   *
********************************************************************************

  Job Started  at 10:31.12 17th May        2022                               

  Number of CPUs =     1

  Host name      = login04                                 


  Total number of configurations input =      1

********************************************************************************
*  Input for Configuration =   1                                               *
********************************************************************************

  Formula = Al3F9                                                       

  Number of irreducible atoms/shells =      21


  Total number atoms/shells =      21

  Dimensionality = 0               :  Cluster


  Charge on cluster =  -0.000000


  Initial cluster dipoles : x =      0.077449 e.Angs
                            y =     -0.482014 e.Angs
                            z =     -0.489137 e.Angs

  Temperature of configuration =  0.000     K 

  Symmetry number =      1

  Cartesian coordinates of cluster :

--------------------------------------------------------------------------------
   No.  Atomic       x           y          z         Charge      Occupancy
        Label      (Angs)      (Angs)     (Angs)        (e)         (Frac)  
--------------------------------------------------------------------------------
      1 Al    c      0.3619     -0.6769      1.6631     3.00000    1.000000    
      2 Al    c      2.3892     -1.8062     -0.5449     3.00000    1.000000    
      3 Al    c     -0.9223     -1.8487     -1.0273     3.00000    1.000000    
      4 F     c      3.4579     -0.5158     -1.1031     0.59000    1.000000    
      5 F     c     -1.8194     -0.5835     -1.8719     0.59000    1.000000    
      6 F     c      2.7284     -3.5278     -0.4915     0.59000    1.000000    
      7 F     c     -1.2192     -3.5785     -1.0666     0.59000    1.000000    
      8 F     c      1.8531     -1.3888      1.2523     0.59000    1.000000    
      9 F     c      0.8327     -1.5056     -1.4956     0.59000    1.000000    
     10 F     c      0.0992     -1.1922      3.5117     0.59000    1.000000    
     11 F     c      0.4081      1.2032      1.1802     0.59000    1.000000    
     12 F     c     -0.9318     -1.4246      0.8466     0.59000    1.000000    
     13 F     s      3.4579     -0.5158     -1.1031    -1.59000    1.000000    
     14 F     s     -1.8194     -0.5835     -1.8719    -1.59000    1.000000    
     15 F     s      2.7284     -3.5278     -0.4915    -1.59000    1.000000    
     16 F     s     -1.2192     -3.5785     -1.0666    -1.59000    1.000000    
     17 F     s      1.8531     -1.3888      1.2523    -1.59000    1.000000    
     18 F     s      0.8327     -1.5056     -1.4956    -1.59000    1.000000    
     19 F     s      0.0992     -1.1922      3.5117    -1.59000    1.000000    
     20 F     s      0.4081      1.2032      1.1802    -1.59000    1.000000    
     21 F     s     -0.9318     -1.4246      0.8466    -1.59000    1.000000    
--------------------------------------------------------------------------------


  Brillouin zone sampling points :

--------------------------------------------------------------------------------
  Point number          x          y          z            Weight
--------------------------------------------------------------------------------
        1           0.000000   0.000000   0.000000     1.00000000
--------------------------------------------------------------------------------


********************************************************************************
*  General input information                                                   *
********************************************************************************

  Species output for all configurations : 

--------------------------------------------------------------------------------
  Species    Type    Atomic    Atomic    Charge       Radii (Angs)     Library
                     Number     Mass       (e)     Cova   Ionic  VDW   Symbol
--------------------------------------------------------------------------------
    Al       Core       13      26.98   3.000000   1.350  0.000  2.050          
    F        Core        9      19.00   0.590000   0.710  0.000  1.300          
    F        Shell       9       0.00  -1.590000   0.710  0.000  1.300          
--------------------------------------------------------------------------------


  Accuracy factor for short range sums = 12.000

  Time limit = Infinity

  Maximum range for interatomic potentials =    100000.000000 Angstroms

  General interatomic potentials :

--------------------------------------------------------------------------------
Atom  Types   Potential      Parameter       Value         Units   Cutoffs(Ang)
  1     2                                                            Min /  Max 
--------------------------------------------------------------------------------
Al   c F    s Buckingham    Buckingham A     3760.0008    eV        0.000 10.000
                            Buckingham rho  0.22200000    Ang       
                            Buckingham C     0.0000000    eV*Ang^6  
--------------------------------------------------------------------------------
F    s F    s Buck 4 range  Buck4 A          1127.7000    eV        0.000 12.000
                            Buck4 rho       0.27530000    Ang       
                            Buck4 C          15.830000    eV*Ang^6  
                            Buck4 minimum    2.7900000    Ang       
--------------------------------------------------------------------------------
F    c F    s Spring (c-s)  Spring k 2       20.770000    eV*Ang^-2 0.000  0.800
                            Spring k 4       0.0000000    eV*Ang^-4 
--------------------------------------------------------------------------------

********************************************************************************
*  Output for configuration   1                                                *
********************************************************************************


  Components of energy : 

--------------------------------------------------------------------------------
  Interatomic potentials     =          12.81092813 eV    
  Monopole - monopole (real) =        -183.00212208 eV    
--------------------------------------------------------------------------------
  Total lattice energy       =        -170.19119396 eV    
--------------------------------------------------------------------------------
  Total lattice energy       =          -16420.8486 kJ/mol
--------------------------------------------------------------------------------

  Born effective charge tensors : 

-------------------------------------------------------------------------------
  Atom             x           y             z
-------------------------------------------------------------------------------
    1 Al    x       1.3205      0.0551     -0.1453
            y       0.0682      2.4265     -0.5673
            z      -0.1465     -0.4772      2.3476
-------------------------------------------------------------------------------
    2 Al    x       2.0651     -0.1120      0.0440
            y      -0.0698      1.8169      0.1413
            z      -0.1167      0.0816      2.1201
-------------------------------------------------------------------------------
    3 Al    x       2.0468      0.0896     -0.0692
            y       0.0327      1.8209      0.1548
            z       0.0928      0.1137      2.1345
-------------------------------------------------------------------------------
    4 F     x      -0.7526     -0.1944      0.1141
            y      -0.1409     -0.6438      0.0668
            z       0.1202      0.0861     -0.5650
-------------------------------------------------------------------------------
    5 F     x      -0.6802      0.1603     -0.1495
            y       0.1145     -0.6360      0.1005
            z      -0.1563      0.1341     -0.6452
-------------------------------------------------------------------------------
    6 F     x      -0.6018      0.1523      0.0024
            y       0.1177     -0.7765     -0.0135
            z       0.0212     -0.0368     -0.5000
-------------------------------------------------------------------------------
    7 F     x      -0.5810     -0.1306     -0.0266
            y      -0.1042     -0.7830     -0.0463
            z      -0.0447     -0.0789     -0.5143
-------------------------------------------------------------------------------
    8 F     x      -0.3581      0.0257      0.0848
            y       0.0298     -0.3221     -0.1124
            z       0.0799     -0.1118     -0.7634
-------------------------------------------------------------------------------
    9 F     x      -1.0098     -0.0102     -0.0740
            y      -0.0084     -0.2973     -0.0064
            z      -0.0742      0.0061     -0.5119
-------------------------------------------------------------------------------
   10 F     x      -0.5679     -0.0415      0.1699
            y      -0.0356     -0.6270      0.2515
            z       0.1693      0.2924     -1.7318
-------------------------------------------------------------------------------
   11 F     x      -0.5344     -0.0010      0.0072
            y      -0.0071     -1.6559      0.1479
            z       0.0078      0.1058     -0.5961
-------------------------------------------------------------------------------
   12 F     x      -0.3463      0.0068      0.0423
            y       0.0030     -0.3227     -0.1168
            z       0.0472     -0.1150     -0.7746
-------------------------------------------------------------------------------




  Moment of inertia tensor (10^-46 x kgm^2): 

-------------------------------------------------------------------------------
                x           y           z           Principal axis system
-------------------------------------------------------------------------------
       x        154.44        2.83       -1.52          154.255149
       y          2.83      202.46      -23.67          154.968448
       z         -1.52      -23.67      166.75          214.426361
-------------------------------------------------------------------------------
  Centre of mass (Ang) =     0.603763    -1.407611     0.067212
-------------------------------------------------------------------------------


  Vibrational Frequency Calculation : 

--------------------------------------------------------------------------------

  Frequencies (cm-1) and Eigenvectors : 

  Frequency    -237.5403 -114.8217  -74.6129  -58.9300   -0.0000   -0.0000
  IR Intensity    0.3927    0.0067    0.0533    0.0000    0.0000    0.0000
     in X         0.0020    0.0066    0.0007    0.0000    0.0000    0.0000
     in Y         0.2650    0.0000    0.0175    0.0000    0.0000    0.0000
     in Z         0.1256    0.0001    0.0351    0.0000    0.0000    0.0000
  Raman Intsty    0.4156    0.0000    0.3153    0.0000    0.0000    0.0000

     1 x       0.063793 -0.270193  0.018364 -0.182035  0.320513 -0.064996
     1 y       0.636739 -0.003470  0.297655 -0.002338  0.061815  0.315642
     1 z      -0.494025 -0.039362 -0.152297 -0.026519 -0.023221 -0.056875
     2 x      -0.000996  0.098674 -0.013463  0.081355  0.320513 -0.064996
     2 y      -0.069223 -0.091089 -0.187642  0.406050  0.061815  0.315642
     2 z       0.087015  0.520961  0.130997  0.031378 -0.023221 -0.056875
     3 x      -0.022127  0.240862 -0.019751  0.097110  0.320513 -0.064996
     3 y      -0.069494  0.095450 -0.187723 -0.403758  0.061815  0.315642
     3 z       0.083937 -0.471497  0.130081 -0.005379 -0.023221 -0.056875
     4 x      -0.034597 -0.015864 -0.030155  0.090430  0.268969 -0.054544
     4 y      -0.007546 -0.075568 -0.134313  0.295962  0.051874  0.264881
     4 z       0.031371  0.241642  0.091527 -0.014605 -0.019487 -0.047728
     5 x       0.024389  0.051831  0.006160  0.089919  0.268969 -0.054544
     5 y      -0.006789  0.076030 -0.133847 -0.293646  0.051874  0.264881
     5 z       0.039964 -0.236402  0.096818  0.040879 -0.019487 -0.047728
     6 x       0.019508  0.048537  0.019984 -0.012772  0.268969 -0.054544
     6 y      -0.040226 -0.075634 -0.153331  0.308429  0.051874  0.264881
     6 z      -0.001628  0.206263  0.076962  0.035199 -0.019487 -0.047728
     7 x      -0.017215  0.103441 -0.037246  0.005560  0.268969 -0.054544
     7 y      -0.040698  0.077586 -0.154067 -0.308521  0.051874  0.264881
     7 z      -0.006978 -0.184123  0.068625 -0.036250 -0.019487 -0.047728
     8 x      -0.073292 -0.127111 -0.089212  0.014030  0.268969 -0.054544
     8 y      -0.049025  0.049998 -0.050110  0.316723  0.051874  0.264881
     8 z       0.008712  0.131506 -0.034332  0.002393 -0.019487 -0.047728
     9 x      -0.006978  0.148295 -0.014309  0.048201  0.268969 -0.054544
     9 y       0.005236  0.001905 -0.100071  0.000619  0.051874  0.264881
     9 z       0.047434  0.021604  0.107041  0.007022 -0.019487 -0.047728
    10 x      -0.042924 -0.103393  0.064590 -0.129686  0.268969 -0.054544
    10 y       0.044179 -0.001328  0.340649 -0.001666  0.051874  0.264881
    10 z       0.290748 -0.015063 -0.473396 -0.018893 -0.019487 -0.047728
    11 x       0.013675 -0.105350  0.001352 -0.123517  0.268969 -0.054544
    11 y      -0.451395 -0.001353  0.525417 -0.001587  0.051874  0.264881
    11 z      -0.054075 -0.015348 -0.055601 -0.017994 -0.019487 -0.047728
    12 x       0.068970 -0.083017  0.096530  0.022090  0.268969 -0.054544
    12 y      -0.047198 -0.052696 -0.047725 -0.316259  0.051874  0.264881
    12 z       0.029437 -0.162117 -0.007273  0.002869 -0.019487 -0.047728


  Frequency       0.0000   72.1878  108.2519  115.0165  127.0511  129.5010
  IR Intensity    0.0000    0.1324    0.0000    0.0108    0.0045    0.0029
     in X         0.0000    0.0026    0.0000    0.0002    0.0044    0.0001
     in Y         0.0000    0.0153    0.0000    0.0002    0.0000    0.0004
     in Z         0.0000    0.1145    0.0000    0.0104    0.0001    0.0025
  Raman Intsty    0.0000    8.5245    0.0000    0.0671    0.0000    0.2044

     1 x       0.011654 -0.010652 -0.051272 -0.014950 -0.199028 -0.001603
     1 y       0.060317  0.140964 -0.000658 -0.023546 -0.002556 -0.008026
     1 z       0.321427  0.060692 -0.007469  0.104695 -0.028995  0.011708
     2 x       0.011654 -0.047290  0.055963 -0.057032  0.060607 -0.085425
     2 y       0.060317 -0.108771  0.130770  0.090044 -0.085171  0.001127
     2 z       0.321427 -0.173167 -0.011286 -0.021722 -0.078478  0.001308
     3 x       0.011654  0.097443  0.053688  0.058575  0.033540  0.081447
     3 y       0.060317 -0.106912 -0.129361  0.091529  0.086380  0.003270
     3 z       0.321427 -0.152082  0.027260 -0.004881  0.092193  0.025619
     4 x       0.009780 -0.072190 -0.003900 -0.136563  0.178316  0.095177
     4 y       0.050617 -0.075453  0.215262  0.215207 -0.233120 -0.135835
     4 z       0.269735 -0.102240  0.120923  0.121998 -0.230638 -0.011753
     5 x       0.009780  0.100229  0.036171  0.090630  0.099194 -0.084421
     5 y       0.050617 -0.073238 -0.214848  0.218125  0.236685 -0.138139
     5 z       0.269735 -0.077122 -0.116222  0.155096  0.271066 -0.037915
     6 x       0.009780 -0.108120  0.233287  0.039837  0.397353 -0.542457
     6 y       0.050617 -0.081178  0.138365  0.085682 -0.015299 -0.084188
     6 z       0.269735 -0.099600 -0.126973 -0.193928 -0.090396 -0.077226
     7 x       0.009780  0.134046  0.190775  0.014998  0.354536  0.543887
     7 y       0.050617 -0.078068 -0.132919  0.085363  0.024955 -0.070236
     7 z       0.269735 -0.064321  0.188751 -0.197546  0.199933  0.081036
     8 x       0.009780 -0.110373 -0.273419 -0.251432 -0.153282 -0.007745
     8 y       0.050617 -0.030368 -0.498312 -0.509082  0.124411 -0.031219
     8 z       0.269735 -0.002901  0.026287  0.040570 -0.161227  0.014903
     9 x       0.009780  0.027658  0.039075  0.014114  0.033875 -0.021651
     9 y       0.050617 -0.055452  0.000502  0.111731  0.000433  0.528775
     9 z       0.269735 -0.184962  0.005693 -0.106729  0.004935  0.102006
    10 x       0.009780 -0.093156 -0.065879  0.012587 -0.266101  0.013002
    10 y       0.050617 -0.012420 -0.000846  0.149095 -0.003418  0.057451
    10 z       0.269735  0.640540 -0.009597 -0.099543 -0.038766 -0.094321
    11 x       0.009780 -0.032507  0.041323 -0.010325 -0.329185  0.006907
    11 y       0.050617  0.522787  0.000531 -0.041689 -0.004227 -0.091214
    11 z       0.269735  0.177048  0.006020  0.074551 -0.047956 -0.039375
    12 x       0.009780  0.107342 -0.267001  0.242131 -0.189726  0.003952
    12 y       0.050617 -0.027572  0.491372 -0.502743 -0.128816 -0.031069
    12 z       0.269735  0.028816 -0.105016  0.112474  0.111257  0.016608


  Frequency     133.4600  140.8695  146.9513  149.2698  158.9568  161.2308
  IR Intensity    0.0158    0.0002    0.0000    0.0061    0.0323    0.0137
     in X         0.0003    0.0002    0.0000    0.0001    0.0005    0.0003
     in Y         0.0026    0.0000    0.0000    0.0013    0.0102    0.0014
     in Z         0.0129    0.0000    0.0000    0.0047    0.0215    0.0120
  Raman Intsty    0.4666    0.0000    0.0000    0.0007    0.0000    0.3625

     1 x       0.017327 -0.060397 -0.001613  0.011882  0.032608 -0.006977
     1 y      -0.042538 -0.000776 -0.000021  0.000095 -0.053301  0.070078
     1 z      -0.115184 -0.008799 -0.000235 -0.081571 -0.219129  0.041715
     2 x       0.127484  0.073355 -0.015847  0.011969  0.003822 -0.038512
     2 y       0.005767  0.091891 -0.088205 -0.054187 -0.043323 -0.096310
     2 z       0.006924 -0.030447  0.012614  0.003118  0.008061  0.058651
     3 x      -0.124265  0.063907 -0.013804 -0.010995 -0.004872  0.022590
     3 y       0.002534 -0.090129  0.087824 -0.054483 -0.043435 -0.095525
     3 z      -0.029751  0.050444 -0.016933 -0.000228  0.006795  0.067552
     4 x       0.286655  0.484827 -0.027554  0.040516 -0.375511 -0.249046
     4 y      -0.136260 -0.204400  0.081874  0.127789  0.235299  0.007186
     4 z       0.031041  0.092338  0.378842  0.501119 -0.051339 -0.175158
     5 x      -0.280079  0.485722  0.083727 -0.184984  0.368512  0.288401
     5 y      -0.143539  0.216865 -0.081151  0.124894  0.244854  0.014088
     5 z      -0.051522  0.049054 -0.370656  0.468271  0.057052 -0.096861
     6 x       0.302548 -0.384251  0.051966 -0.084276 -0.076712  0.119261
     6 y       0.041780 -0.010587 -0.082432 -0.076628 -0.045949 -0.077402
     6 z      -0.145141 -0.109586 -0.523562 -0.363017  0.145944 -0.235675
     7 x      -0.249525 -0.399687 -0.101634  0.186230  0.033023 -0.045091
     7 y       0.034689  0.000519  0.081794 -0.073154 -0.044540 -0.079513
     7 z      -0.225568 -0.004620  0.516323 -0.323613  0.161930 -0.259619
     8 x       0.018493 -0.110550  0.078622  0.092307  0.085300  0.017087
     8 y      -0.123504 -0.116517  0.180540  0.166987 -0.059260  0.140613
     8 z       0.062561 -0.016838 -0.033455 -0.042009  0.051218 -0.052863
     9 x      -0.064653  0.079213 -0.006782  0.010157 -0.032373 -0.035762
     9 y       0.440668  0.001017 -0.000088 -0.154102  0.142730  0.211580
     9 z       0.404951  0.011540 -0.000988 -0.056137  0.209638  0.226826
    10 x      -0.020091 -0.132503  0.061898  0.004523  0.007875  0.029911
    10 y      -0.172775 -0.001702  0.000794 -0.224338 -0.472296 -0.124316
    10 z       0.153141 -0.019303  0.009017 -0.011270 -0.012421 -0.194358
    11 x       0.014627 -0.000712 -0.173313  0.000864  0.047129 -0.092647
    11 y       0.223901 -0.000009 -0.002226  0.073168  0.227636 -0.087479
    11 z      -0.120141 -0.000104 -0.025248 -0.012378 -0.343578  0.643665
    12 x      -0.032459 -0.113654  0.070325 -0.080657 -0.094848 -0.004828
    12 y      -0.124159  0.113637 -0.178625  0.164767 -0.061574  0.140332
    12 z       0.055138 -0.015824  0.055153 -0.067207  0.024974 -0.056055


  Frequency     169.0789  178.5124  184.2961  195.0000  205.3340  227.8891
  IR Intensity    0.0003    0.0310    0.0070    0.0201    0.0395    0.0949
     in X         0.0003    0.0003    0.0069    0.0196    0.0002    0.0929
     in Y         0.0000    0.0154    0.0000    0.0000    0.0340    0.0000
     in Z         0.0000    0.0154    0.0001    0.0004    0.0053    0.0020
  Raman Intsty    0.0000    0.0635    0.0000    0.0000    0.0926    0.0000

     1 x      -0.024240  0.017193  0.136857 -0.134325 -0.009359  0.080323
     1 y      -0.000311  0.126279  0.001758 -0.001725 -0.175147  0.001031
     1 z      -0.003531 -0.129150  0.019938 -0.019569  0.079681  0.011702
     2 x       0.012917  0.001636 -0.102754 -0.068400 -0.071392  0.328693
     2 y       0.026070  0.047210 -0.069962 -0.008993 -0.187557 -0.116079
     2 z      -0.010494 -0.074199 -0.289227 -0.012023 -0.120615 -0.034886
     3 x       0.010038  0.018411 -0.182716 -0.069191  0.107525  0.302056
     3 y      -0.025775  0.047426  0.066295  0.007226 -0.185259  0.124180
     3 z       0.013838 -0.071755  0.247639 -0.008022 -0.094550  0.126775
     4 x       0.049231  0.176536  0.109551  0.030958 -0.168767 -0.121058
     4 y       0.020442  0.001610  0.054679 -0.011326  0.013519  0.280285
     4 z       0.024843  0.130920  0.397392  0.161131  0.214092 -0.082143
     5 x       0.054769 -0.206529  0.219699  0.075342  0.100287 -0.132372
     5 y      -0.019107 -0.003310 -0.050451  0.012691  0.016974 -0.283540
     5 z      -0.009692  0.075114 -0.349426 -0.145645  0.253289  0.045223
     6 x      -0.043362 -0.011157  0.099001  0.060603  0.203225 -0.180707
     6 y       0.011277  0.054601 -0.014678  0.004252 -0.135486 -0.237597
     6 z       0.121123  0.304148  0.348435  0.075656  0.151482  0.028016
     7 x      -0.006711 -0.077445  0.193881  0.079753 -0.234519 -0.171122
     7 y      -0.011920  0.053750  0.018439 -0.002450 -0.141108  0.233078
     7 z      -0.128417  0.294492 -0.305768 -0.055209  0.087711 -0.079271
     8 x      -0.118010 -0.136363  0.094680 -0.231058  0.018154 -0.043005
     8 y      -0.041542 -0.065537 -0.005620  0.159011  0.107146 -0.019494
     8 z      -0.182930 -0.241533 -0.029896 -0.414137 -0.198542 -0.295130
     9 x       0.002916  0.036499 -0.089002 -0.094307  0.020379  0.316718
     9 y       0.000038  0.153831 -0.001143 -0.001211  0.490543  0.004067
     9 z       0.000425 -0.264104 -0.012966 -0.013739 -0.183128  0.046140
    10 x       0.752764  0.028477 -0.290253  0.135973 -0.026512 -0.263086
    10 y       0.009667 -0.481741 -0.003727  0.001747  0.324997 -0.003379
    10 z       0.109664 -0.153011 -0.042285  0.019809  0.153334 -0.038327
    11 x      -0.523769 -0.055595 -0.242510  0.602282  0.019299 -0.126825
    11 y      -0.006726  0.084748 -0.003115  0.007735 -0.130994 -0.001629
    11 z      -0.076303  0.374154 -0.035329  0.087741 -0.120926 -0.018476
    12 x      -0.166295  0.201201  0.082045 -0.335520  0.036549 -0.125883
    12 y       0.037891 -0.061202  0.007890 -0.166288  0.107383  0.017325
    12 z       0.141511 -0.192356  0.055642  0.331597 -0.195863  0.270526


  Frequency     238.9874  258.8386  346.5303  367.2494  395.4354  449.8572
  IR Intensity    0.1051    0.1031    0.0357    0.0061    0.2114    0.0028
     in X         0.0019    0.0021    0.0350    0.0001    0.0043    0.0027
     in Y         0.0195    0.0048    0.0000    0.0001    0.0009    0.0000
     in Z         0.0837    0.0961    0.0007    0.0059    0.2062    0.0001
  Raman Intsty    0.0264    0.7900    0.0000    4.9502    0.1971    0.0000

     1 x       0.042186  0.045551 -0.382012 -0.046521  0.022619  0.008479
     1 y      -0.240124 -0.040931 -0.004906  0.190758 -0.197359  0.000109
     1 z      -0.268405 -0.309066 -0.055652  0.302517 -0.137869  0.001235
     2 x       0.208583  0.070712  0.068482  0.249202  0.192439  0.004694
     2 y       0.006949 -0.039337 -0.102569 -0.087130  0.059591  0.021584
     2 z      -0.126867 -0.105633 -0.287911 -0.065754  0.520539  0.172335
     3 x      -0.163832 -0.036629 -0.019095 -0.217817 -0.334369  0.054201
     3 y       0.002166 -0.040715  0.103203 -0.093128  0.052825 -0.020828
     3 z      -0.181121 -0.121270  0.295104 -0.133790  0.443794 -0.163756
     4 x       0.077198  0.024111  0.076858  0.193819  0.012666  0.234618
     4 y       0.225122  0.030315  0.164960  0.319977  0.053871  0.257699
     4 z       0.027450  0.022941 -0.015282 -0.112315 -0.115567 -0.109912
     5 x      -0.087457 -0.030407  0.073428 -0.161709  0.019477  0.199919
     5 y       0.223008  0.029614 -0.163030  0.315412  0.053958 -0.252119
     5 z       0.003463  0.014998  0.037176 -0.164109 -0.114574  0.173216
     6 x      -0.134318  0.022672  0.021558  0.017919 -0.015829  0.054463
     6 y      -0.065096 -0.024936 -0.228276 -0.372897 -0.088152 -0.285916
     6 z       0.107777  0.052493  0.036972  0.020992 -0.080782  0.004684
     7 x       0.099585 -0.036070  0.025461 -0.013779  0.040427  0.046328
     7 y      -0.062092 -0.025690  0.228880 -0.373305 -0.087429  0.287211
     7 z       0.141853  0.043935 -0.030122  0.016374 -0.072586  0.010000
     8 x       0.102319  0.346036 -0.204596 -0.162709  0.049269  0.063716
     8 y      -0.101049 -0.091217  0.141727  0.076814 -0.038403 -0.033356
     8 z      -0.218485  0.408405  0.368638  0.145231 -0.183004 -0.018830
     9 x      -0.061137  0.052579  0.133253  0.008161  0.051836 -0.693404
     9 y      -0.173391  0.144502  0.001711  0.074297  0.112418 -0.008905
     9 z       0.434948 -0.373658  0.019413 -0.062566 -0.365731 -0.101016
    10 x      -0.025318  0.011900  0.200878  0.012404 -0.021563 -0.022949
    10 y       0.321486  0.117963  0.002580 -0.062975  0.034408 -0.000295
    10 z       0.145451 -0.092086  0.029264 -0.079595  0.144982 -0.003343
    11 x      -0.041302 -0.039964  0.156832  0.011397 -0.000073 -0.017814
    11 y       0.010081  0.065003  0.002014 -0.070182  0.099512 -0.000229
    11 z       0.282616  0.268597  0.022848 -0.072048 -0.008271 -0.002595
    12 x      -0.033167 -0.445753 -0.087304  0.112534  0.005965  0.054837
    12 y      -0.102789 -0.101386 -0.145476  0.080348 -0.038960  0.034879
    12 z      -0.238223  0.293055 -0.411162  0.185329 -0.189313  0.036102


  Frequency     517.7347  546.9753  590.1310  604.7788  622.4509  692.3697
  IR Intensity    0.3292    0.0690    0.0098    0.3532    0.0845    0.0619
     in X         0.3223    0.0011    0.0096    0.0002    0.0012    0.0606
     in Y         0.0001    0.0197    0.0000    0.3332    0.0334    0.0000
     in Z         0.0068    0.0482    0.0002    0.0198    0.0499    0.0013
  Raman Intsty    0.0000    0.0418    0.0000    0.0103    1.0843    0.0000

     1 x      -0.049941  0.000244  0.018383  0.005545  0.073850 -0.727690
     1 y      -0.000641 -0.044573  0.000236  0.016870 -0.430246 -0.009345
     1 z      -0.007276  0.002251  0.002678 -0.039550 -0.468996 -0.106011
     2 x       0.476306  0.527129 -0.104876  0.092741 -0.166400  0.018438
     2 y      -0.104734 -0.096185 -0.493834  0.509024  0.019142 -0.035624
     2 z      -0.110423 -0.072492  0.075825 -0.091084  0.015432 -0.048567
     3 x       0.422225 -0.481954 -0.091273 -0.075674  0.154548  0.002915
     3 y       0.116274 -0.109145  0.491322  0.506854  0.023264  0.035898
     3 z       0.241323 -0.219497 -0.104402 -0.115618  0.062189  0.051678
     4 x      -0.156585 -0.202357  0.185877 -0.169442  0.054561 -0.006780
     4 y      -0.155828 -0.184186  0.239808 -0.228538  0.050026 -0.003260
     4 z       0.086030  0.084134 -0.094224  0.089656 -0.023934  0.011161
     5 x      -0.129405  0.174514  0.157247  0.142515 -0.046707 -0.003395
     5 y       0.152155 -0.179346 -0.235405 -0.224529  0.048726  0.003129
     5 z      -0.127694  0.139037  0.144213  0.135101 -0.038687 -0.012643
     6 x      -0.071694 -0.085148 -0.066122  0.054337  0.024542 -0.005757
     6 y       0.220995  0.239037  0.364056 -0.360451 -0.051458  0.028367
     6 z       0.005015 -0.005011 -0.013634  0.014882 -0.002400  0.006729
     7 x      -0.061703  0.077000 -0.058087 -0.047241 -0.021535 -0.002883
     7 y      -0.222709  0.241119 -0.365656 -0.361751 -0.052050 -0.028478
     7 z      -0.024449  0.018612 -0.004460  0.000084 -0.009113 -0.007987
     8 x      -0.060690 -0.204687 -0.019792 -0.011583 -0.416091  0.406242
     8 y       0.028155  0.086665  0.021253 -0.011167  0.207081 -0.193250
     8 z       0.061246  0.076455  0.006978  0.007277  0.197880 -0.141525
     9 x      -0.504920  0.007326  0.022145 -0.002551  0.000939  0.027923
     9 y      -0.006485  0.044447  0.000284 -0.026376 -0.009396  0.000359
     9 z      -0.073558 -0.054211  0.003226  0.019838 -0.005614  0.004068
    10 x       0.010726  0.006711 -0.000181 -0.000152 -0.000196  0.039761
    10 y       0.000138  0.010478 -0.000002 -0.005007  0.042559  0.000511
    10 z       0.001563 -0.046987 -0.000026  0.001482 -0.002407  0.005792
    11 x       0.003030  0.000392  0.007183 -0.002132 -0.006400  0.042589
    11 y       0.000039 -0.051924  0.000092 -0.001945  0.009923  0.000547
    11 z       0.000441  0.001884  0.001046  0.014804  0.043059  0.006204
    12 x      -0.039970  0.172125 -0.016438  0.009303  0.337010  0.343997
    12 y      -0.029448  0.091504 -0.021719 -0.010898  0.216752  0.202885
    12 z      -0.075911  0.131349 -0.012256  0.010320  0.307593  0.250821




--------------------------------------------------------------------------------
  Vibrational properties (for cluster):  Temperature  =       0.000 K
--------------------------------------------------------------------------------
  Zero point energy            =        0.510458 eV
--------------------------------------------------------------------------------

  Phonon density of states : 

--------------------------------------------------------------------------------
 Frequency (cm-1) Density of States                                             
--------------------------------------------------------------------------------
    0.00000 |********************                                          0.033
   10.81828 |                                                              0.000
   21.63656 |                                                              0.000
   32.45483 |                                                              0.000
   43.27311 |                                                              0.000
   54.09139 |                                                              0.000
   64.90967 |********************                                          0.033
   75.72794 |                                                              0.000
   86.54622 |                                                              0.000
   97.36450 |                                                              0.000
  108.18278 |****************************************                      0.067
  119.00105 |****************************************                      0.067
  129.81933 |********************                                          0.033
  140.63761 |************************************************************  0.100
  151.45589 |****************************************                      0.067
  162.27417 |********************                                          0.033
  173.09244 |********************                                          0.033
  183.91072 |********************                                          0.033
  194.72900 |****************************************                      0.067
  205.54728 |                                                              0.000
  216.36555 |                                                              0.000
  227.18383 |********************                                          0.033
  238.00211 |********************                                          0.033
  248.82039 |********************                                          0.033
  259.63866 |                                                              0.000
  270.45694 |                                                              0.000
  281.27522 |                                                              0.000
  292.09350 |                                                              0.000
  302.91177 |                                                              0.000
  313.73005 |                                                              0.000
  324.54833 |                                                              0.000
  335.36661 |                                                              0.000
  346.18489 |********************                                          0.033
  357.00316 |********************                                          0.033
  367.82144 |                                                              0.000
  378.63972 |                                                              0.000
  389.45800 |********************                                          0.033
  400.27627 |                                                              0.000
  411.09455 |                                                              0.000
  421.91283 |                                                              0.000
  432.73111 |                                                              0.000
  443.54938 |********************                                          0.033
  454.36766 |                                                              0.000
  465.18594 |                                                              0.000
  476.00422 |                                                              0.000
  486.82250 |                                                              0.000
  497.64077 |                                                              0.000
  508.45905 |********************                                          0.033
  519.27733 |                                                              0.000
  530.09561 |                                                              0.000
  540.91388 |********************                                          0.033
  551.73216 |                                                              0.000
  562.55044 |                                                              0.000
  573.36872 |                                                              0.000
  584.18699 |********************                                          0.033
  595.00527 |********************                                          0.033
  605.82355 |                                                              0.000
  616.64183 |********************                                          0.033
  627.46010 |                                                              0.000
  638.27838 |                                                              0.000
  649.09666 |                                                              0.000
  659.91494 |                                                              0.000
  670.73322 |                                                              0.000
  681.55149 |********************                                          0.033
--------------------------------------------------------------------------------



  XYZ File written as 002/5/sp_mod_-20/sp_mod_-20_eig.xyz


  Time to end of properties =      12.4488 seconds


  Peak dynamic memory used =       0.64 MB 


  Timing analysis for GULP :

--------------------------------------------------------------------------------
  Task / Subroutine                                          Time (Seconds)
--------------------------------------------------------------------------------
  Calculation of phonons                                          0.0037
--------------------------------------------------------------------------------
  Total CPU time                                                 12.4488
--------------------------------------------------------------------------------


  Job Finished at 10:31.13 17th May        2022                               

