------------------------------------------------------------
          Invoking FHI-aims ...

          When using FHI-aims, please cite the following reference:

            Volker Blum, Ralf Gehrke, Felix Hanke, Paula Havu,
            Ville Havu, Xinguo Ren, Karsten Reuter, and Matthias Scheffler,
            'Ab Initio Molecular Simulations with Numeric Atom-Centered Orbitals',
            Computer Physics Communications 180, 2175-2196 (2009)

          In addition, many other developments in FHI-aims are likely important for
          your particular application. A partial list of references is given at the end of
          this file. Thank you for giving credit to the authors of these developments.

          For any questions about FHI-aims, please visit our slack channel at

            https://fhi-aims.slack.com

          and our main development and support site at

            https://aims-git.rz-berlin.mpg.de .

          The latter site, in particular, has a wiki to collect information, as well
          as an issue tracker to log discussions, suggest improvements, and report issues
          or bugs. https://aims-git.rz-berlin.mpg.de is also the main development site
          of the project and all new and updated code versions can be obtained there.
          Please send an email to aims-coordinators@fhi-berlin.mpg.de and we will add
          you to these sites. They are for you and everyone is welcome there.

------------------------------------------------------------



  Date     :  20220517, Time     :  111212.078
  Time zero on CPU 1             :   0.395300000000000E-01  s.
  Internal wall clock time zero  :           422017932.078  s.

  FHI-aims created a unique identifier for this run for later identification
  aims_uuid : DE2FA864-0C36-48F1-AA1A-3A4ECE085107

  Build configuration of the current instance of FHI-aims
  -------------------------------------------------------
  FHI-aims version      : 210914
  Commit number         : GITDIR-NOTFOUND
  CMake host system     : Linux-3.10.0-693.17.1.el7.x86_64
  CMake version         : 3.21.1
  Fortran compiler      : /shared/ucl/apps/intel/2018.Update3/impi/2018.3.222/intel64/bin/mpiifort (Intel) version 18.0.3.20180410
  Fortran compiler flags: -O3 -ip -fp-model precise
  C compiler            : /shared/ucl/apps/intel/2018.Update3/compilers_and_libraries_2018.3.222/linux/bin/intel64/icc (Intel) version 18.0.3.20180410
  C compiler flags      : -O3 -ip -fp-model precise -std=gnu99
  ELPA2 kernel          : AVX2
  Using MPI
  Using ScaLAPACK
  Using LibXC
  Using i-PI
  Using RLSY
  Linking against: /shared/ucl/apps/intel/2019.Update5/compilers_and_libraries_2019.5.281/linux/mkl/lib/intel64/libmkl_intel_lp64.so
                   /shared/ucl/apps/intel/2019.Update5/compilers_and_libraries_2019.5.281/linux/mkl/lib/intel64/libmkl_sequential.so
                   /shared/ucl/apps/intel/2019.Update5/compilers_and_libraries_2019.5.281/linux/mkl/lib/intel64/libmkl_core.so
                   /shared/ucl/apps/intel/2019.Update5/compilers_and_libraries_2019.5.281/linux/mkl/lib/intel64/libmkl_blacs_intelmpi_lp64.so
                   /shared/ucl/apps/intel/2019.Update5/compilers_and_libraries_2019.5.281/linux/mkl/lib/intel64/libmkl_scalapack_lp64.so

  Using       24 parallel tasks.
  Task        0 on host node-k98e-003 reporting.
  Task        1 on host node-k98e-003 reporting.
  Task        2 on host node-k98e-003 reporting.
  Task        3 on host node-k98e-003 reporting.
  Task        4 on host node-k98e-003 reporting.
  Task        5 on host node-k98e-003 reporting.
  Task        6 on host node-k98e-003 reporting.
  Task        7 on host node-k98e-003 reporting.
  Task        8 on host node-k98e-003 reporting.
  Task        9 on host node-k98e-003 reporting.
  Task       10 on host node-k98e-003 reporting.
  Task       11 on host node-k98e-003 reporting.
  Task       12 on host node-k98e-003 reporting.
  Task       13 on host node-k98e-003 reporting.
  Task       14 on host node-k98e-003 reporting.
  Task       15 on host node-k98e-003 reporting.
  Task       16 on host node-k98e-003 reporting.
  Task       17 on host node-k98e-003 reporting.
  Task       18 on host node-k98e-003 reporting.
  Task       19 on host node-k98e-003 reporting.
  Task       20 on host node-k98e-003 reporting.
  Task       21 on host node-k98e-003 reporting.
  Task       22 on host node-k98e-003 reporting.
  Task       23 on host node-k98e-003 reporting.

  Performing system and environment tests:
  | Environment variable OMP_NUM_THREADS correctly set to 1.
  | Checking for ScaLAPACK...
  | Testing pdtran()...
  | All pdtran() tests passed.

  Obtaining array dimensions for all initial allocations:
  
  -----------------------------------------------------------------------
  Parsing control.in (first pass over file, find array dimensions only).
  The contents of control.in will be repeated verbatim below
  unless switched off by setting 'verbatim_writeout .false.' .
  in the first line of control.in .
  -----------------------------------------------------------------------
  
  #########################################################################################  Physical model
  #########################################################################################
  xc                 pbesol
  spin               none
  relativistic       atomic_zora scalar
  charge             0.0
  #  SCF convergence
  occupation_type    gaussian 0.01
  mixer              pulay
  n_max_pulay        10
  charge_mix_param   0.5
  sc_accuracy_rho    1E-5
  sc_accuracy_eev    1E-3
  sc_accuracy_etot   1E-6
  sc_accuracy_forces 1E-4
  sc_iter_limit      1500
  #  Relaxation
  #relax_geometry   bfgs 1.e-3
  
  ################################################################################
  #
  #  FHI-aims code project
  #  VB, Fritz-Haber Institut, 2009
  #
  #  Suggested "light" defaults for Al atom (to be pasted into control.in file)
  #  Be sure to double-check any results obtained with these settings for post-processing,
  #  e.g., with the "tight" defaults and larger basis sets.
  #
  ################################################################################
    species        Al
  #     global species definitions
      nucleus             13
      mass                26.9815386
  #
      l_hartree           4
  #
      cut_pot             3.5          1.5  1.0
      basis_dep_cutoff    1e-4
  #
      radial_base         41 5.0
      radial_multiplier   1
      angular_grids       specified
        division   0.6594  110
        division   0.8170  194
        division   0.9059  302
  #      division   1.0363  434
  #      division   1.1443  590
  #      division   1.2621  770
  #      division   2.8177  974
  #      outer_grid   974
        outer_grid   302
  ################################################################################
  #
  #  Definition of "minimal" basis
  #
  ################################################################################
  #     valence basis states
      valence      3  s   2.
      valence      3  p   1.
  #     ion occupancy
      ion_occ      3  s   1.
      ion_occ      2  p   6.
  ################################################################################
  #
  #  Suggested additional basis functions. For production calculations,
  #  uncomment them one after another (the most important basis functions are
  #  listed first).
  #
  #  Constructed for dimers: 2.0 A, 2.5 A, 3.0 A, 3.75 A, 4.5 A
  #
  ################################################################################
  #  "First tier" - improvements: -199.47 meV to -10.63 meV
       ionic 3 d auto
       ionic 3 p auto
  #     hydro 4 f 4.7
       ionic 3 s auto
  #  "Second tier" - improvements: -5.35 meV to -1.57 meV
  #     hydro 5 g 7
  #     hydro 3 d 6
  #     hydro 2 s 11.6
  #     hydro 2 p 0.9
  #  "Third tier" - improvements: -0.63 meV to -0.20 meV
  #     hydro 5 f 7.6
  #     hydro 4 p 7.2
  #     hydro 4 s 3.7
  #     hydro 4 d 7.6
  #  "Fourth tier" - improvements: -0.17 meV to -0.08 meV
  #     hydro 4 d 13.6
  #     hydro 5 g 11.2
  #     hydro 4 d 0.9
  #     hydro 1 s 0.4
  #     hydro 4 p 0.1
  #     hydro 5 f 9.8
  #  Further basis functions that fell out of the optimization - noise level...
  #     hydro 4 p 5
  
  ################################################################################
  #
  #  FHI-aims code project
  #  VB, Fritz-Haber Institut, 2009
  #
  #  Suggested "light" defaults for F atom (to be pasted into control.in file)
  #  Be sure to double-check any results obtained with these settings for post-processing,
  #  e.g., with the "tight" defaults and larger basis sets.
  #
  ################################################################################
    species        F
  #     global species definitions
      nucleus             9
      mass                18.9984032
  #
      l_hartree           4
  #
      cut_pot             3.5  1.5  1.0
      basis_dep_cutoff    1e-4
  #
      radial_base         37 5.0
      radial_multiplier   1
      angular_grids specified
        division   0.4014  110
        division   0.5291  194
        division   0.6019  302
  #      division   0.6814  434
  #      division   0.7989  590
  #      division   0.8965  770
  #      division   1.3427  974
  #      outer_grid   974
        outer_grid   302
  ################################################################################
  #
  #  Definition of "minimal" basis
  #
  ################################################################################
  #     valence basis states
      valence      2  s   2.
      valence      2  p   5.
  #     ion occupancy
      ion_occ      2  s   1.
      ion_occ      2  p   4.
  ################################################################################
  #
  #  Suggested additional basis functions. For production calculations,
  #  uncomment them one after another (the most important basis functions are
  #  listed first).
  #
  #  Constructed for dimers: 1.2 A, 1.418 A, 1.75 A, 2.25 A, 3.25 A
  #
  ################################################################################
  #  "First tier" - improvements: -149.44 meV to -45.88 meV
       hydro 2 p 1.7
       hydro 3 d 7.4
       hydro 3 s 6.8
  #  "Second tier" - improvements: -12.96 meV to -1.56 meV
  #     hydro 4 f 11.2
  #     ionic 2 p auto
  #     hydro 1 s 0.75
  #     hydro 4 d 8.8
  #     hydro 5 g 16.8
  #  "Third tier" - improvements: -0.58 meV to -0.05 meV
  #     hydro 3 p 6.2
  #     hydro 3 s 3.2
  #     hydro 4 f 9.6
  #     hydro 3 s 19.6
  #     hydro 4 d 8.6
  #     hydro 5 g 14.4
  # Further basis functions: -0.05 meV and below
  #     hydro 3 p 4.2
  
  -----------------------------------------------------------------------
  Completed first pass over input file control.in .
  -----------------------------------------------------------------------
  
  
  -----------------------------------------------------------------------
  Parsing geometry.in (first pass over file, find array dimensions only).
  The contents of geometry.in will be repeated verbatim below
  unless switched off by setting 'verbatim_writeout .false.' .
  in the first line of geometry.in .
  -----------------------------------------------------------------------
  
  atom 1.289156062 0.130496116 2.276251437 Al
  atom 1.115551200 1.268447800 -0.562847000 Al
  atom -0.431054785 0.806029764 -2.468391473 Al
  atom -1.511476604 -0.228709344 -2.229312077 F
  atom 2.106964592 -0.468201554 0.899129113 F
  atom 0.010681384 1.716455654 -3.641428394 F
  atom -0.220046626 1.905955281 -0.642403895 F
  atom 2.590745353 2.419536909 -0.311819444 F
  atom 1.323381423 0.105875928 -1.458277977 F
  atom 0.406720471 1.514765823 1.797897902 F
  atom 2.677401130 0.653079019 3.749480209 F
  atom -0.126978041 -1.347508859 2.858227986 F
  
  -----------------------------------------------------------------------
  Completed first pass over input file geometry.in .
  -----------------------------------------------------------------------
  

  Basic array size parameters:
  | Number of species                 :        2
  | Number of atoms                   :       12
  | Max. basis fn. angular momentum   :        2
  | Max. atomic/ionic basis occupied n:        3
  | Max. number of basis fn. types    :        3
  | Max. radial fns per species/type  :        5
  | Max. logarithmic grid size        :     1340
  | Max. radial integration grid size :       41
  | Max. angular integration grid size:      302
  | Max. angular grid division number :        8
  | Radial grid for Hartree potential :     1340
  | Number of spin channels           :        1

------------------------------------------------------------
          Reading file control.in.
------------------------------------------------------------
  XC: Using PBEsol gradient-corrected functionals.
  Spin treatment: No spin polarisation.
  Scalar relativistic treatment of kinetic energy: on-site free-atom approximation to ZORA.
  Charge =   0.000000E+00: Neutral system requested explicitly.
  Occupation type: Gaussian broadening, width =   0.100000E-01 eV.
  Using pulay charge density mixing.
  Pulay mixing - number of memorized iterations:   10
  Charge density mixing - mixing parameter:     0.5000
  Convergence accuracy of self-consistent charge density:  0.1000E-04
  Convergence accuracy of sum of eigenvalues:  0.1000E-02
  Convergence accuracy of total energy:  0.1000E-05
  Convergence accuracy of forces:  0.1000E-03
  Maximum number of s.-c. iterations  :  1500
 
  Reading configuration options for species Al                  .
  | Found nuclear charge :  13.0000
  | Found atomic mass :    26.9815386000000      amu
  | Found l_max for Hartree potential  :   4
  | Found cutoff potl. onset [A], width [A], scale factor :    3.50000    1.50000    1.00000
  | Threshold for basis-dependent cutoff potential is   0.100000E-03
  | Found data for basic radial integration grid :    41 points, outermost radius =    5.000 A
  | Found multiplier for basic radial grid :   1
  | Found angular grid specification: user-specified.
  | Specified grid contains     4 separate shells.
  | Check grid settings after all constraints further below.
  | Found free-atom valence shell :  3 s   2.000
  | Found free-atom valence shell :  3 p   1.000
  | Found free-ion valence shell :  3 s   1.000
  | Found free-ion valence shell :  2 p   6.000
  | Found ionic basis function :  3 d , default cutoff radius.
  | Found ionic basis function :  3 p , default cutoff radius.
  | Found ionic basis function :  3 s , default cutoff radius.
  Species Al                  : Missing cutoff potential type.
  Defaulting to exp(1/x)/(1-x)^2 type cutoff potential.
  Species Al: No 'logarithmic' tag. Using default grid for free atom:
  | Default logarithmic grid data [bohr] : 0.1000E-03 0.1000E+03 0.1012E+01
  | Will include ionic basis functions of  2.0-fold positive Al                   ion.
  Species Al: On-site basis accuracy parameter (for Gram-Schmidt orthonormalisation) not specified.
  Using default value basis_acc =  0.1000000E-03.
  Species Al                  : Using default innermost maximum threshold i_radial=  2 for radial functions.
  Species Al                  : Default cutoff onset for free atom density etc. : 0.35000000E+01 AA.
  Species Al                  : Basic radial grid will be enhanced according to radial_multiplier =   1, to contain    41 grid points.
 
  Reading configuration options for species F                   .
  | Found nuclear charge :   9.0000
  | Found atomic mass :    18.9984032000000      amu
  | Found l_max for Hartree potential  :   4
  | Found cutoff potl. onset [A], width [A], scale factor :    3.50000    1.50000    1.00000
  | Threshold for basis-dependent cutoff potential is   0.100000E-03
  | Found data for basic radial integration grid :    37 points, outermost radius =    5.000 A
  | Found multiplier for basic radial grid :   1
  | Found angular grid specification: user-specified.
  | Specified grid contains     4 separate shells.
  | Check grid settings after all constraints further below.
  | Found free-atom valence shell :  2 s   2.000
  | Found free-atom valence shell :  2 p   5.000
  | Found free-ion valence shell :  2 s   1.000
  | Found free-ion valence shell :  2 p   4.000
  | Found hydrogenic basis function :  2 p   1.700
  | Found hydrogenic basis function :  3 d   7.400
  | Found hydrogenic basis function :  3 s   6.800
  Species F                   : Missing cutoff potential type.
  Defaulting to exp(1/x)/(1-x)^2 type cutoff potential.
  Species F : No 'logarithmic' tag. Using default grid for free atom:
  | Default logarithmic grid data [bohr] : 0.1000E-03 0.1000E+03 0.1012E+01
  Species F : On-site basis accuracy parameter (for Gram-Schmidt orthonormalisation) not specified.
  Using default value basis_acc =  0.1000000E-03.
  Species F                   : Using default innermost maximum threshold i_radial=  2 for radial functions.
  Species F                   : Default cutoff onset for free atom density etc. : 0.35000000E+01 AA.
  Species F                   : Basic radial grid will be enhanced according to radial_multiplier =   1, to contain    37 grid points.
 
  Finished reading input file 'control.in'.
 
------------------------------------------------------------


------------------------------------------------------------
          Reading geometry description geometry.in.
------------------------------------------------------------
  | The smallest distance between any two atoms is         1.48208076 AA.
  | The first atom of this pair is atom number                      2 .
  | The second atom of this pair is atom number                     9 .
  Input structure read successfully.
  The structure contains       12 atoms,  and a total of        120.000 electrons.

  Input geometry:
  | No unit cell requested.
  | Atomic structure:
  |       Atom                x [A]            y [A]            z [A]
  |    1: Species Al            1.28915606        0.13049612        2.27625144
  |    2: Species Al            1.11555120        1.26844780       -0.56284700
  |    3: Species Al           -0.43105478        0.80602976       -2.46839147
  |    4: Species F            -1.51147660       -0.22870934       -2.22931208
  |    5: Species F             2.10696459       -0.46820155        0.89912911
  |    6: Species F             0.01068138        1.71645565       -3.64142839
  |    7: Species F            -0.22004663        1.90595528       -0.64240389
  |    8: Species F             2.59074535        2.41953691       -0.31181944
  |    9: Species F             1.32338142        0.10587593       -1.45827798
  |   10: Species F             0.40672047        1.51476582        1.79789790
  |   11: Species F             2.67740113        0.65307902        3.74948021
  |   12: Species F            -0.12697804       -1.34750886        2.85822799

 
  Finished reading input file 'control.in'.
 

------------------------------------------------------------
          Reading geometry description geometry.in.
------------------------------------------------------------
 
  Consistency checks for stacksize environment parameter are next.
 
  | Maximum stacksize for task 0: unlimited
  | Maximum stacksize for task 1: unlimited
  | Maximum stacksize for task 2: unlimited
  | Maximum stacksize for task 3: unlimited
  | Maximum stacksize for task 4: unlimited
  | Maximum stacksize for task 5: unlimited
  | Maximum stacksize for task 6: unlimited
  | Maximum stacksize for task 7: unlimited
  | Maximum stacksize for task 8: unlimited
  | Maximum stacksize for task 9: unlimited
  | Maximum stacksize for task 10: unlimited
  | Maximum stacksize for task 11: unlimited
  | Maximum stacksize for task 12: unlimited
  | Maximum stacksize for task 13: unlimited
  | Maximum stacksize for task 14: unlimited
  | Maximum stacksize for task 15: unlimited
  | Maximum stacksize for task 16: unlimited
  | Maximum stacksize for task 17: unlimited
  | Maximum stacksize for task 18: unlimited
  | Maximum stacksize for task 19: unlimited
  | Maximum stacksize for task 20: unlimited
  | Maximum stacksize for task 21: unlimited
  | Maximum stacksize for task 22: unlimited
  | Maximum stacksize for task 23: unlimited
  | Current stacksize for task 0: unlimited
  | Current stacksize for task 1: unlimited
  | Current stacksize for task 2: unlimited
  | Current stacksize for task 3: unlimited
  | Current stacksize for task 4: unlimited
  | Current stacksize for task 5: unlimited
  | Current stacksize for task 6: unlimited
  | Current stacksize for task 7: unlimited
  | Current stacksize for task 8: unlimited
  | Current stacksize for task 9: unlimited
  | Current stacksize for task 10: unlimited
  | Current stacksize for task 11: unlimited
  | Current stacksize for task 12: unlimited
  | Current stacksize for task 13: unlimited
  | Current stacksize for task 14: unlimited
  | Current stacksize for task 15: unlimited
  | Current stacksize for task 16: unlimited
  | Current stacksize for task 17: unlimited
  | Current stacksize for task 18: unlimited
  | Current stacksize for task 19: unlimited
  | Current stacksize for task 20: unlimited
  | Current stacksize for task 21: unlimited
  | Current stacksize for task 22: unlimited
  | Current stacksize for task 23: unlimited
 
  Consistency checks for the contents of control.in are next.
 
  MPI_IN_PLACE appears to work with this MPI implementation.
  | Keeping use_mpi_in_place .true. (see manual).
  Target number of points in a grid batch is not set. Defaulting to  100
  Method for grid partitioning is not set. Defaulting to parallel hash+maxmin partitioning.
  Batch size limit is not set. Defaulting to    200
  By default, will store active basis functions for each batch.
  If in need of memory, prune_basis_once .false. can be used to disable this option.
  communication_type for Hartree potential was not specified.
  Defaulting to calc_hartree .
  Pulay mixer: Number of initial linear mixing iterations not set.
  Defaulting to    0 iterations.
  Work space size for distributed Hartree potential not set.
  Defaulting to   0.200000E+03 MB.
  Algorithm-dependent basis array size parameters:
  | n_max_pulay                         :       10
  Presetting      1001 iterations before the initial mixing cycle
  is restarted anyway using the sc_init_iter criterion / keyword.
  Presetting a factor      1.000 between actual scf density residual
  and density convergence criterion sc_accuracy_rho below which sc_init_iter
  takes no effect.
  Geometry relaxation not requested: no relaxation will be performed.
  Forces evaluation will include force correction term due to incomplete self-consistency (default).
  Handling of forces: Unphysical translation and rotation will be removed from forces.
  No accuracy limit for integral partition fn. given. Defaulting to  0.1000E-14.
  No threshold value for u(r) in integrations given. Defaulting to  0.1000E-05.
  No accuracy for occupation numbers given. Defaulting to  0.1000E-12.
  No threshold value for occupation numbers given. Defaulting to  0.0000E+00.
  No accuracy for fermi level given. Defaulting to  0.1000E-19.
  Maximum # of iterations to find E_F not set. Defaulting to  200.
  Preferred method for the eigenvalue solver ('KS_method') not specified in 'control.in'.
  Calling BLACS routine to test compilation state
  Since ScaLAPACK support is enabled, defaulting to ELPA (via ELSI).
  Will not use alltoall communication since running on < 1024 CPUs.
  Threshold for basis singularities not set.
  Default threshold for basis singularities:  0.1000E-04
  partition_type (choice of integration weights) for integrals was not specified.
  | Using a version of the partition function of Stratmann and coworkers ('stratmann_sparse').
  | At each grid point, the set of atoms used to build the partition table is smoothly restricted to
  | only those atoms whose free-atom density would be non-zero at that grid point.
  Partitioning for Hartree potential was not defined. Using partition_type for integrals.
  | Adjusted default value of keyword multip_moments_threshold to:       0.10000000E-11
  | This value may affect high angular momentum components of the Hartree potential in periodic systems.
  No q(lm)/r^(l+1) cutoff set for long-range Hartree potential.
  | Using default value of  0.100000E-09 .
  | Verify using the multipole_threshold keyword.
  Defaulting to new monopole extrapolation.
  Density update method: automatic selection selected.
  Charge integration errors on the 3D integration grid will be compensated
  by explicit normalization and distribution of residual charges.
  Use the "compensate_multipole_errors" flag to change this behaviour.
  Set 'collect_eigenvectors' to be '.true.' for use_density_matrix .false.
 
  Consistency checks for the contents of geometry.in are next.
 
  Number of empty states per atom not set in control.in - providing a guess from actual geometry.
  | Total number of empty states used during s.c.f. cycle:       36
  If you use a very high smearing, use empty_states (per atom!) in control.in to increase this value.

  Structure-dependent array size parameters: 
  | Maximum number of distinct radial functions  :       14
  | Maximum number of basis functions            :      180
  | Number of Kohn-Sham states (occupied + empty):       96
------------------------------------------------------------

------------------------------------------------------------
          Preparing all fixed parts of the calculation.
------------------------------------------------------------
  Determining machine precision:
    2.225073858507201E-308
  Setting up grids for atomic and cluster calculations.

  Creating wave function, potential, and density for free atoms.

  Species: Al

  List of occupied orbitals and eigenvalues:
    n    l              occ      energy [Ha]    energy [eV]
    1    0           2.0000       -55.621123     -1513.5278
    2    0           2.0000        -3.957030      -107.6763
    3    0           2.0000        -0.272233        -7.4078
    2    1           6.0000        -2.540949       -69.1427
    3    1           1.0000        -0.083300        -2.2667


  Species: F

  List of occupied orbitals and eigenvalues:
    n    l              occ      energy [Ha]    energy [eV]
    1    0           2.0000       -24.399611      -663.9472
    2    0           2.0000        -1.098702       -29.8972
    2    1           5.0000        -0.408210       -11.1080


  Adding cutoff potential to free-atom effective potential.
  Creating fixed part of basis set: Ionic, confined, hydrogenic.
 
  Al                   ion:

  List of free ionic orbitals and eigenvalues:
    n    l      energy [Ha]    energy [eV]
    1    0       -56.418846     -1535.2349
    2    0        -4.732717      -128.7838
    3    0        -0.872690       -23.7471
    2    1        -3.317230       -90.2664


  List of ionic basis orbitals and eigenvalues:
    n    l      energy [Ha]    energy [eV]    outer radius [A]
    3    2        -0.346815        -9.4373       4.594041
    3    1        -0.631870       -17.1940       4.538221
    3    0        -0.872657       -23.7462       4.538221

 
  F                    hydrogenic:
 
  List of hydrogenic basis orbitals: 
    n    l      effective z      eigenvalue [eV]  inner max. [A]     outer max. [A]     outer radius [A]   
    2    1         1.700000        -9.7616           1.243167           1.243167           4.598524
    3    2         7.400000       -82.7828           0.642437           0.642437           3.305741
    3    0         6.800000       -69.9026           0.057798           1.022307           3.781556
 
  Creating atomic-like basis functions for current effective potential.

  Species Al                  :

  List of atomic basis orbitals and eigenvalues:
    n    l      energy [Ha]    energy [eV]    outer radius [A]
    1    0       -55.621123     -1513.5278       0.850197
    2    0        -3.957030      -107.6763       3.144911
    3    0        -0.272233        -7.4078       4.594041
    2    1        -2.540949       -69.1427       3.731966
    3    1        -0.083300        -2.2667       4.594041


  Species F                   :

  List of atomic basis orbitals and eigenvalues:
    n    l      energy [Ha]    energy [eV]    outer radius [A]
    1    0       -24.399611      -663.9472       1.258458
    2    0        -1.098702       -29.8972       4.325857
    2    1        -0.408210       -11.1080       4.487453

  Assembling full basis from fixed parts.
  | Species Al :   atomic orbital   1 s accepted.
  | Species Al :   atomic orbital   2 s accepted.
  | Species Al :    ionic orbital   3 s accepted.
  | Species Al :   atomic orbital   3 s accepted.
  | Species Al :   atomic orbital   2 p accepted.
  | Species Al :    ionic orbital   3 p accepted.
  | Species Al :   atomic orbital   3 p accepted.
  | Species Al :    ionic orbital   3 d accepted.
  | Species F :   atomic orbital   1 s accepted.
  | Species F :    hydro orbital   3 s accepted.
  | Species F :   atomic orbital   2 s accepted.
  | Species F :   atomic orbital   2 p accepted.
  | Species F :    hydro orbital   2 p accepted.
  | Species F :    hydro orbital   3 d accepted.
 
  Basis size parameters after reduction:
  | Total number of radial functions:       14
  | Total number of basis functions :      180
 
  Per-task memory consumption for arrays in subroutine allocate_ext:
  |           4.807768MB.
  Testing on-site integration grid accuracy.
  |  Species  Function  <phi|h_atom|phi> (log., in eV)  <phi|h_atom|phi> (rad., in eV)
           1        1              -1513.5277717935              -1513.5271881332
           1        2               -107.6762691836               -107.6762662489
           1        3                 -6.9467474784                 -6.9471269649
           1        4                  5.5771951849                  5.4862107220 ***
           1        5                -69.1427313144                -69.1427312731
           1        6                 -1.5197375330                 -1.5230432022
           1        7                  6.8210948310                  6.5529872240 ***
           1        8                  4.3216540965                  4.2851170187 ***
           2        9               -663.9471986398               -663.9470363334
           2       10                 16.8514011578                 16.8512525338
           2       11                -28.4490593856                -28.4490661472
           2       12                -11.1080115307                -11.1080620173
           2       13                  7.1940182175                  7.1685154137
           2       14                 44.8544281765                 44.8543763625
 * Note: Onsite integrals marked "***" above are less accurate than
 * onsite_accuracy_threshold =    0.03000 eV. Usually, this is harmless.
 * When in doubt, tighten the "radial" and/or "radial_multiplier" flags to check.

  Preparing densities etc. for the partition functions (integrals / Hartree potential).

  Preparations completed.
  max(cpu_time)          :      0.185 s.
  Wall clock time (cpu1) :      0.185 s.
------------------------------------------------------------

------------------------------------------------------------
          Begin self-consistency loop: Initialization.

          Date     :  20220517, Time     :  111215.426
------------------------------------------------------------

  Initializing index lists of integration centers etc. from given atomic structure:
  | Number of centers in hartree potential         :        12
  | Number of centers in hartree multipole         :        12
  | Number of centers in electron density summation:        12
  | Number of centers in basis integrals           :        12
  | Number of centers in integrals                 :        12
  | Number of centers in hamiltonian               :        12
  * Using 24 tasks for Scalapack Eigenvalue solver.
  Detailed listing of tasks and assigned k-points:
  (for non-periodic systems, the "k-point" denotes an internal label only)
   Task     0 k-point     1 on node-k98e-003
   Task     1 k-point     1 on node-k98e-003
   Task     2 k-point     1 on node-k98e-003
   Task     3 k-point     1 on node-k98e-003
   Task     4 k-point     1 on node-k98e-003
   Task     5 k-point     1 on node-k98e-003
   Task     6 k-point     1 on node-k98e-003
   Task     7 k-point     1 on node-k98e-003
   Task     8 k-point     1 on node-k98e-003
   Task     9 k-point     1 on node-k98e-003
   Task    10 k-point     1 on node-k98e-003
   Task    11 k-point     1 on node-k98e-003
   Task    12 k-point     1 on node-k98e-003
   Task    13 k-point     1 on node-k98e-003
   Task    14 k-point     1 on node-k98e-003
   Task    15 k-point     1 on node-k98e-003
   Task    16 k-point     1 on node-k98e-003
   Task    17 k-point     1 on node-k98e-003
   Task    18 k-point     1 on node-k98e-003
   Task    19 k-point     1 on node-k98e-003
   Task    20 k-point     1 on node-k98e-003
   Task    21 k-point     1 on node-k98e-003
   Task    22 k-point     1 on node-k98e-003
   Task    23 k-point     1 on node-k98e-003
  Tasks:    24 split into      6 X      4 BLACS grid
  Calculating block size based on n_basis =          180  max_nprow =            6  max_npcol =            4
  ScaLAPACK block size set to:           16
  Allocating        0.012 MB for ovlp
  Allocating        0.012 MB for ham
  Allocating        0.012 MB for eigenvec
  Required Scalapack workspace - INTEGER:            1  REAL:             1
  Partitioning the integration grid into batches with parallel hashing+maxmin method.
  | Number of batches:     1063
  | Maximal batch size:     188
  | Minimal batch size:      23
  | Average batch size:      86.472
  | Standard deviation of batch sizes:      25.760

  Integration load balanced across    24 MPI tasks.
  Work distribution over tasks is as follows:
  Task     0 has       3751 integration points.
  Task     1 has       3874 integration points.
  Task     2 has       3766 integration points.
  Task     3 has       3867 integration points.
  Task     4 has       3743 integration points.
  Task     5 has       3889 integration points.
  Task     6 has       3755 integration points.
  Task     7 has       3886 integration points.
  Task     8 has       3749 integration points.
  Task     9 has       3883 integration points.
  Task    10 has       3860 integration points.
  Task    11 has       3878 integration points.
  Task    12 has       3885 integration points.
  Task    13 has       3884 integration points.
  Task    14 has       3881 integration points.
  Task    15 has       3881 integration points.
  Task    16 has       3748 integration points.
  Task    17 has       3880 integration points.
  Task    18 has       3818 integration points.
  Task    19 has       3876 integration points.
  Task    20 has       3807 integration points.
  Task    21 has       3817 integration points.
  Task    22 has       3799 integration points.
  Task    23 has       3743 integration points.
  Initializing partition tables, free-atom densities, potentials, etc. across the integration grid (initialize_grid_storage).
  | initialize_grid_storage: Actual outermost partition radius vs. multipole_radius_free
  | (-- VB: in principle, multipole_radius_free should be larger, hence this output)
  | Species        1: Confinement radius =              4.999999999999999 AA, multipole_radius_free =              5.004487022111096 AA.
  | Species        1: outer_partition_radius set to              5.004487022111096 AA .
  | Species        2: Confinement radius =              4.999999999999999 AA, multipole_radius_free =              5.009370088163274 AA.
  | Species        2: outer_partition_radius set to              5.009370088163274 AA .
  | The sparse table of interatomic distances needs          1.64 kbyte instead of         1.15 kbyte of memory.
  | Using the partition_type stratmann_smoother will reduce your memory usage.
  | Net number of integration points:    91920
  | of which are non-zero points    :    85762
  Renormalizing the initial density to the exact electron count on the 3D integration grid.
  | Initial density: Formal number of electrons (from input files) :     120.0000000000
  | Integrated number of electrons on 3D grid     :     119.9999946838
  | Charge integration error                      :      -0.0000053162
  | Normalization factor for density and gradient :       1.0000000443
  Renormalizing the free-atom superposition density to the exact electron count on the 3D integration grid.
  | Formal number of electrons (from input files) :     120.0000000000
  | Integrated number of electrons on 3D grid     :     119.9999946838
  | Charge integration error                      :      -0.0000053162
  | Normalization factor for density and gradient :       1.0000000443
  Obtaining max. number of non-zero basis functions in each batch (get_n_compute_maxes).
  | Maximal number of non-zero basis functions:      164 in task     0
  | Maximal number of non-zero basis functions:      161 in task     1
  | Maximal number of non-zero basis functions:      161 in task     2
  | Maximal number of non-zero basis functions:      165 in task     3
  | Maximal number of non-zero basis functions:      158 in task     4
  | Maximal number of non-zero basis functions:      165 in task     5
  | Maximal number of non-zero basis functions:      162 in task     6
  | Maximal number of non-zero basis functions:      163 in task     7
  | Maximal number of non-zero basis functions:      158 in task     8
  | Maximal number of non-zero basis functions:      164 in task     9
  | Maximal number of non-zero basis functions:      155 in task    10
  | Maximal number of non-zero basis functions:      160 in task    11
  | Maximal number of non-zero basis functions:      159 in task    12
  | Maximal number of non-zero basis functions:      163 in task    13
  | Maximal number of non-zero basis functions:      160 in task    14
  | Maximal number of non-zero basis functions:      160 in task    15
  | Maximal number of non-zero basis functions:      166 in task    16
  | Maximal number of non-zero basis functions:      160 in task    17
  | Maximal number of non-zero basis functions:      158 in task    18
  | Maximal number of non-zero basis functions:      165 in task    19
  | Maximal number of non-zero basis functions:      159 in task    20
  | Maximal number of non-zero basis functions:      158 in task    21
  | Maximal number of non-zero basis functions:      160 in task    22
  | Maximal number of non-zero basis functions:      159 in task    23
  Selecting the method for density update.
  Loop over occupied states selected for charge density update.
  Allocating        0.132 MB for KS_eigenvector
  Integrating Hamiltonian matrix: batch-based integration.
  Time summed over all CPUs for integration: real work        0.678 s, elapsed        0.717 s
  Integrating overlap matrix.
  Time summed over all CPUs for integration: real work        0.260 s, elapsed        0.273 s
  Deallocating overlap matrix.

  Updating Kohn-Sham eigenvalues and eigenvectors using ELSI and the ELPA eigensolver.
  Overlap matrix is not singular
  | Lowest and highest eigenvalues :  0.3208E-02,  0.4861E+01
  Finished singularity check of overlap matrix
  | Time :     0.004 s
  Starting ELPA eigensolver
  Finished Cholesky decomposition
  | Time :     0.001 s
  Finished transformation to standard eigenproblem
  | Time :     0.001 s
  Finished solving standard eigenproblem
  | Time :     0.004 s
  Finished back-transformation of eigenvectors
  | Time :     0.000 s

  Obtaining occupation numbers and chemical potential using ELSI.
  | Chemical potential (Fermi level):    -7.63348947 eV
  Writing Kohn-Sham eigenvalues.

  State    Occupation    Eigenvalue [Ha]    Eigenvalue [eV]
      1       2.00000         -55.496590        -1510.13905
      2       2.00000         -55.492982        -1510.04086
      3       2.00000         -55.483448        -1509.78143
      4       2.00000         -24.420843         -664.52495
      5       2.00000         -24.420842         -664.52493
      6       2.00000         -24.396805         -663.87084
      7       2.00000         -24.387787         -663.62544
      8       2.00000         -24.359961         -662.86827
      9       2.00000         -24.359961         -662.86827
     10       2.00000         -24.332998         -662.13457
     11       2.00000         -24.318441         -661.73844
     12       2.00000         -24.316581         -661.68785
     13       2.00000          -3.968934         -108.00020
     14       2.00000          -3.962839         -107.83432
     15       2.00000          -3.948671         -107.44880
     16       2.00000          -2.568422          -69.89033
     17       2.00000          -2.562704          -69.73472
     18       2.00000          -2.562404          -69.72655
     19       2.00000          -2.554996          -69.52498
     20       2.00000          -2.553813          -69.49279
     21       2.00000          -2.549899          -69.38628
     22       2.00000          -2.542103          -69.17414
     23       2.00000          -2.540845          -69.13992
     24       2.00000          -2.538814          -69.08465
     25       2.00000          -1.264405          -34.40622
     26       2.00000          -1.248306          -33.96814
     27       2.00000          -1.223227          -33.28570
     28       2.00000          -1.209598          -32.91483
     29       2.00000          -1.181393          -32.14733
     30       2.00000          -1.173839          -31.94179
     31       2.00000          -1.138349          -30.97606
     32       2.00000          -1.116619          -30.38475
     33       2.00000          -1.113709          -30.30556
     34       2.00000          -0.600176          -16.33161
     35       2.00000          -0.591474          -16.09483
     36       2.00000          -0.571902          -15.56226
     37       2.00000          -0.556596          -15.14574
     38       2.00000          -0.554707          -15.09436
     39       2.00000          -0.546684          -14.87602
     40       2.00000          -0.537897          -14.63692
     41       2.00000          -0.536382          -14.59569
     42       2.00000          -0.533821          -14.52602
     43       2.00000          -0.513309          -13.96785
     44       2.00000          -0.511651          -13.92273
     45       2.00000          -0.504928          -13.73980
     46       2.00000          -0.500616          -13.62246
     47       2.00000          -0.500518          -13.61978
     48       2.00000          -0.496724          -13.51655
     49       2.00000          -0.483868          -13.16672
     50       2.00000          -0.476592          -12.96872
     51       2.00000          -0.472193          -12.84903
     52       2.00000          -0.470122          -12.79268
     53       2.00000          -0.454911          -12.37876
     54       2.00000          -0.445072          -12.11103
     55       2.00000          -0.442463          -12.04004
     56       2.00000          -0.442155          -12.03165
     57       2.00000          -0.427179          -11.62413
     58       2.00000          -0.425811          -11.58692
     59       2.00000          -0.423078          -11.51252
     60       2.00000          -0.422410          -11.49436
     61       0.00000          -0.153968           -4.18968
     62       0.00000          -0.121830           -3.31517
     63       0.00000          -0.072455           -1.97159
     64       0.00000          -0.039518           -1.07534
     65       0.00000          -0.028703           -0.78105
     66       0.00000          -0.015729           -0.42800
     67       0.00000           0.010152            0.27625
     68       0.00000           0.018828            0.51232
     69       0.00000           0.053677            1.46062
     70       0.00000           0.073730            2.00629
     71       0.00000           0.079765            2.17052
     72       0.00000           0.095272            2.59248
     73       0.00000           0.128723            3.50273
     74       0.00000           0.153927            4.18856
     75       0.00000           0.167550            4.55928
     76       0.00000           0.169323            4.60752
     77       0.00000           0.180150            4.90214
     78       0.00000           0.183730            4.99954
     79       0.00000           0.190332            5.17920
     80       0.00000           0.201729            5.48932
     81       0.00000           0.203342            5.53322
     82       0.00000           0.221644            6.03124
     83       0.00000           0.224045            6.09656
     84       0.00000           0.229062            6.23310
     85       0.00000           0.235064            6.39641
     86       0.00000           0.259102            7.05051
     87       0.00000           0.272811            7.42356
     88       0.00000           0.280526            7.63350
     89       0.00000           0.281665            7.66450
     90       0.00000           0.292658            7.96362
     91       0.00000           0.304070            8.27418
     92       0.00000           0.331048            9.00828
     93       0.00000           0.351596            9.56743
     94       0.00000           0.353198            9.61099
     95       0.00000           0.363876            9.90158
     96       0.00000           0.374210           10.18278

  Highest occupied state (VBM) at    -11.49435636 eV
  | Occupation number:      2.00000000

  Lowest unoccupied state (CBM) at    -4.18968267 eV
  | Occupation number:      0.00000000

  Overall HOMO-LUMO gap:      7.30467369 eV.
  Calculating total energy contributions from superposition of free atom densities.

  Total energy components:
  | Sum of eigenvalues            :        -889.50873510 Ha      -24204.76420703 eV
  | XC energy correction          :        -144.45794488 Ha       -3930.90068218 eV
  | XC potential correction       :         188.10004557 Ha        5118.46266453 eV
  | Free-atom electrostatic energy:        -779.32125141 Ha      -21206.41022104 eV
  | Hartree energy correction     :           0.00000000 Ha           0.00000000 eV
  | Entropy correction            :           0.00000000 Ha           0.00000000 eV
  | ---------------------------
  | Total energy                  :       -1625.18788582 Ha      -44223.61244571 eV
  | Total energy, T -> 0          :       -1625.18788582 Ha      -44223.61244571 eV  <-- do not rely on this value for anything but (periodic) metals
  | Electronic free energy        :       -1625.18788582 Ha      -44223.61244571 eV

  Derived energy quantities:
  | Kinetic energy                :        1628.16414780 Ha       44304.60065491 eV
  | Electrostatic energy          :       -3108.89408874 Ha      -84597.31241844 eV
  | Energy correction for multipole
  | error in Hartree potential    :           0.00000000 Ha           0.00000000 eV
  | Sum of eigenvalues per atom                           :       -2017.06368392 eV
  | Total energy (T->0) per atom                          :       -3685.30103714 eV  <-- do not rely on this value for anything but (periodic) metals
  | Electronic free energy per atom                       :       -3685.30103714 eV
  Initialize hartree_potential_storage
  Max. number of atoms included in rho_multipole:           12

  End scf initialization - timings             :  max(cpu_time)    wall_clock(cpu1)
  | Time for scf. initialization                :        0.108 s           0.108 s
  | Boundary condition initialization           :        0.000 s           0.000 s
  | Integration                                 :        0.043 s           0.043 s
  | Solution of K.-S. eqns.                     :        0.011 s           0.011 s
  | Grid partitioning                           :        0.033 s           0.033 s
  | Preloading free-atom quantities on grid     :        0.014 s           0.014 s
  | Free-atom superposition energy              :        0.005 s           0.005 s
  | Total energy evaluation                     :        0.000 s           0.000 s

  Partial memory accounting:
  | Current value for overall tracked memory usage:
  |   Minimum:        0.273 MB (on task 23)
  |   Maximum:        0.292 MB (on task  0)
  |   Average:        0.287 MB
  | Peak value for overall tracked memory usage:
  |   Minimum:        1.270 MB (on task 10 after allocating wave)
  |   Maximum:        1.344 MB (on task 16 after allocating wave)
  |   Average:        1.306 MB
  | Largest tracked array allocation so far:
  |   Minimum:        0.227 MB (H_times_psi on task  4)
  |   Maximum:        0.414 MB (all_coords on task 14)
  |   Average:        0.256 MB
  Note:  These values currently only include a subset of arrays which are explicitly tracked.
  The "true" memory usage will be greater.
------------------------------------------------------------
  Evaluating new KS density.
  Integration grid: deviation in total charge (<rho> - N_e) =  -1.421085E-14

  Time for density update prior                :  max(cpu_time)    wall_clock(cpu1)
  | self-consistency iterative process          :        0.027 s           0.028 s

------------------------------------------------------------
          Begin self-consistency iteration #    1

  Date     :  20220517, Time     :  111215.562
------------------------------------------------------------
  Pulay mixing of updated and previous charge densities.
  Renormalizing the density to the exact electron count on the 3D integration grid.
  | Formal number of electrons (from input files) :     120.0000000000
  | Integrated number of electrons on 3D grid     :     120.0000000000
  | Charge integration error                      :      -0.0000000000
  | Normalization factor for density and gradient :       1.0000000000

  Evaluating partitioned Hartree potential by multipole expansion.
  | Original multipole sum: apparent total charge =  -0.518028E-13
  | Sum of charges compensated after spline to logarithmic grids =   0.109581E-03
  | Analytical far-field extrapolation by fixed multipoles:
  | Hartree multipole sum: apparent total charge =  -0.521472E-13
  Summing up the Hartree potential.
  Time summed over all CPUs for potential: real work        0.380 s, elapsed        0.388 s
  | RMS charge density error from multipole expansion :   0.127158E-01

  Integrating Hamiltonian matrix: batch-based integration.
  Time summed over all CPUs for integration: real work        0.633 s, elapsed        0.672 s

  Updating Kohn-Sham eigenvalues and eigenvectors using ELSI and the ELPA eigensolver.
  Starting ELPA eigensolver
  Finished transformation to standard eigenproblem
  | Time :     0.001 s
  Finished solving standard eigenproblem
  | Time :     0.003 s
  Finished back-transformation of eigenvectors
  | Time :     0.000 s

  Obtaining occupation numbers and chemical potential using ELSI.
  | Chemical potential (Fermi level):    -6.05402857 eV
  Writing Kohn-Sham eigenvalues.

  State    Occupation    Eigenvalue [Ha]    Eigenvalue [eV]
      1       2.00000         -55.665013        -1514.72207
      2       2.00000         -55.631672        -1513.81483
      3       2.00000         -55.603503        -1513.04829
      4       2.00000         -24.274202         -660.53465
      5       2.00000         -24.274191         -660.53434
      6       2.00000         -24.170220         -657.70516
      7       2.00000         -24.166007         -657.59052
      8       2.00000         -24.150119         -657.15816
      9       2.00000         -24.150109         -657.15791
     10       2.00000         -24.055928         -654.59509
     11       2.00000         -23.973361         -652.34834
     12       2.00000         -23.972550         -652.32629
     13       2.00000          -4.118378         -112.06676
     14       2.00000          -4.093323         -111.38500
     15       2.00000          -4.043963         -110.04184
     16       2.00000          -2.712277          -73.80483
     17       2.00000          -2.711143          -73.77395
     18       2.00000          -2.709475          -73.72856
     19       2.00000          -2.688401          -73.15512
     20       2.00000          -2.687268          -73.12429
     21       2.00000          -2.682412          -72.99215
     22       2.00000          -2.637490          -71.76975
     23       2.00000          -2.636925          -71.75438
     24       2.00000          -2.635454          -71.71434
     25       2.00000          -1.245576          -33.89386
     26       2.00000          -1.224830          -33.32932
     27       2.00000          -1.147585          -31.22738
     28       2.00000          -1.135763          -30.90567
     29       2.00000          -1.093443          -29.75411
     30       2.00000          -1.082544          -29.45752
     31       2.00000          -0.999187          -27.18927
     32       2.00000          -0.918332          -24.98909
     33       2.00000          -0.916660          -24.94358
     34       2.00000          -0.597604          -16.26164
     35       2.00000          -0.579432          -15.76716
     36       2.00000          -0.555150          -15.10639
     37       2.00000          -0.539621          -14.68382
     38       2.00000          -0.520331          -14.15892
     39       2.00000          -0.508593          -13.83952
     40       2.00000          -0.494928          -13.46766
     41       2.00000          -0.467853          -12.73092
     42       2.00000          -0.465141          -12.65713
     43       2.00000          -0.447680          -12.18199
     44       2.00000          -0.444772          -12.10286
     45       2.00000          -0.431359          -11.73788
     46       2.00000          -0.428837          -11.66924
     47       2.00000          -0.425361          -11.57465
     48       2.00000          -0.423117          -11.51360
     49       2.00000          -0.400227          -10.89072
     50       2.00000          -0.382902          -10.41931
     51       2.00000          -0.380936          -10.36580
     52       2.00000          -0.362223           -9.85660
     53       2.00000          -0.313177           -8.52197
     54       2.00000          -0.309574           -8.42393
     55       2.00000          -0.301311           -8.19908
     56       2.00000          -0.271888           -7.39845
     57       2.00000          -0.243114           -6.61546
     58       2.00000          -0.239826           -6.52598
     59       2.00000          -0.234655           -6.38528
     60       2.00000          -0.232534           -6.32757
     61       0.00000          -0.187780           -5.10975
     62       0.00000          -0.112775           -3.06877
     63       0.00000          -0.077316           -2.10388
     64       0.00000          -0.073113           -1.98949
     65       0.00000          -0.051236           -1.39420
     66       0.00000          -0.032599           -0.88707
     67       0.00000           0.017506            0.47636
     68       0.00000           0.033754            0.91851
     69       0.00000           0.045735            1.24450
     70       0.00000           0.061570            1.67542
     71       0.00000           0.077767            2.11616
     72       0.00000           0.077802            2.11709
     73       0.00000           0.095529            2.59947
     74       0.00000           0.135171            3.67820
     75       0.00000           0.158710            4.31873
     76       0.00000           0.166767            4.53797
     77       0.00000           0.166795            4.53872
     78       0.00000           0.172562            4.69566
     79       0.00000           0.175645            4.77955
     80       0.00000           0.205015            5.57875
     81       0.00000           0.215750            5.87086
     82       0.00000           0.219983            5.98603
     83       0.00000           0.232349            6.32253
     84       0.00000           0.235309            6.40310
     85       0.00000           0.241995            6.58501
     86       0.00000           0.256488            6.97939
     87       0.00000           0.258855            7.04380
     88       0.00000           0.268453            7.30498
     89       0.00000           0.289593            7.88023
     90       0.00000           0.297326            8.09066
     91       0.00000           0.298297            8.11708
     92       0.00000           0.340621            9.26878
     93       0.00000           0.344408            9.37183
     94       0.00000           0.356134            9.69089
     95       0.00000           0.376931           10.25681
     96       0.00000           0.379560           10.32835

  Highest occupied state (VBM) at     -6.32756767 eV
  | Occupation number:      2.00000000

  Lowest unoccupied state (CBM) at    -5.10974878 eV
  | Occupation number:      0.00000000

  Overall HOMO-LUMO gap:      1.21781889 eV.

  Total energy components:
  | Sum of eigenvalues            :        -882.41889670 Ha      -24011.83988817 eV
  | XC energy correction          :        -145.98008067 Ha       -3972.32010445 eV
  | XC potential correction       :         190.10128196 Ha        5172.91907735 eV
  | Free-atom electrostatic energy:        -779.32125141 Ha      -21206.41022104 eV
  | Hartree energy correction     :          -7.29966425 Ha        -198.63397055 eV
  | Entropy correction            :           0.00000000 Ha           0.00000000 eV
  | ---------------------------
  | Total energy                  :       -1624.91861106 Ha      -44216.28510687 eV
  | Total energy, T -> 0          :       -1624.91861106 Ha      -44216.28510687 eV  <-- do not rely on this value for anything but (periodic) metals
  | Electronic free energy        :       -1624.91861106 Ha      -44216.28510687 eV

  Derived energy quantities:
  | Kinetic energy                :        1636.17876883 Ha       44522.68958948 eV
  | Electrostatic energy          :       -3115.11729923 Ha      -84766.65459189 eV
  | Energy correction for multipole
  | error in Hartree potential    :           0.05489992 Ha           1.49390287 eV
  | Sum of eigenvalues per atom                           :       -2000.98665735 eV
  | Total energy (T->0) per atom                          :       -3684.69042557 eV  <-- do not rely on this value for anything but (periodic) metals
  | Electronic free energy per atom                       :       -3684.69042557 eV
  Evaluating new KS density.
  Integration grid: deviation in total charge (<rho> - N_e) =   0.000000E+00

  Self-consistency convergence accuracy:
  | Change of charge density      :  0.6559E+00
  | Change of sum of eigenvalues  :  0.1929E+03 eV
  | Change of total energy        :  0.7327E+01 eV


------------------------------------------------------------
  End self-consistency iteration #     1       :  max(cpu_time)    wall_clock(cpu1)
  | Time for this iteration                     :        0.078 s           0.079 s
  | Charge density update                       :        0.026 s           0.026 s
  | Density mixing                              :        0.001 s           0.000 s
  | Hartree multipole update                    :        0.001 s           0.002 s
  | Hartree multipole summation                 :        0.017 s           0.017 s
  | Integration                                 :        0.028 s           0.028 s
  | Solution of K.-S. eqns.                     :        0.004 s           0.004 s
  | Total energy evaluation                     :        0.000 s           0.000 s

  Partial memory accounting:
  | Current value for overall tracked memory usage:
  |   Minimum:        0.273 MB (on task 23)
  |   Maximum:        0.292 MB (on task  0)
  |   Average:        0.287 MB
  | Peak value for overall tracked memory usage:
  |   Minimum:        1.270 MB (on task 10 after allocating wave)
  |   Maximum:        1.344 MB (on task 16 after allocating wave)
  |   Average:        1.306 MB
  | Largest tracked array allocation so far:
  |   Minimum:        0.667 MB (gradient_basis_wave on task 10)
  |   Maximum:        0.714 MB (gradient_basis_wave on task 16)
  |   Average:        0.693 MB
  Note:  These values currently only include a subset of arrays which are explicitly tracked.
  The "true" memory usage will be greater.
------------------------------------------------------------

------------------------------------------------------------
          Begin self-consistency iteration #    2

  Date     :  20220517, Time     :  111215.646
------------------------------------------------------------
  Pulay mixing of updated and previous charge densities.
  Renormalizing the density to the exact electron count on the 3D integration grid.
  | Formal number of electrons (from input files) :     120.0000000000
  | Integrated number of electrons on 3D grid     :     120.0000000000
  | Charge integration error                      :       0.0000000000
  | Normalization factor for density and gradient :       1.0000000000

  Evaluating partitioned Hartree potential by multipole expansion.
  | Original multipole sum: apparent total charge =  -0.571651E-13
  | Sum of charges compensated after spline to logarithmic grids =   0.658997E-04
  | Analytical far-field extrapolation by fixed multipoles:
  | Hartree multipole sum: apparent total charge =  -0.576079E-13
  Summing up the Hartree potential.
  Time summed over all CPUs for potential: real work        0.378 s, elapsed        0.386 s
  | RMS charge density error from multipole expansion :   0.147885E-01

  Integrating Hamiltonian matrix: batch-based integration.
  Time summed over all CPUs for integration: real work        0.632 s, elapsed        0.672 s

  Updating Kohn-Sham eigenvalues and eigenvectors using ELSI and the ELPA eigensolver.
  Starting ELPA eigensolver
  Finished transformation to standard eigenproblem
  | Time :     0.001 s
  Finished solving standard eigenproblem
  | Time :     0.003 s
  Finished back-transformation of eigenvectors
  | Time :     0.000 s

  Obtaining occupation numbers and chemical potential using ELSI.
  | Chemical potential (Fermi level):    -6.31003569 eV
  Highest occupied state (VBM) at     -7.78364757 eV
  | Occupation number:      2.00000000

  Lowest unoccupied state (CBM) at    -5.40183680 eV
  | Occupation number:      0.00000000

  Overall HOMO-LUMO gap:      2.38181078 eV.

  Checking to see if s.c.f. parameters should be adjusted.

  Total energy components:
  | Sum of eigenvalues            :        -885.72064425 Ha      -24101.68501037 eV
  | XC energy correction          :        -145.45307889 Ha       -3957.97965642 eV
  | XC potential correction       :         189.40785109 Ha        5154.04986335 eV
  | Free-atom electrostatic energy:        -779.32125141 Ha      -21206.41022104 eV
  | Hartree energy correction     :          -3.75473749 Ha        -102.17160544 eV
  | Entropy correction            :           0.00000000 Ha           0.00000000 eV
  | ---------------------------
  | Total energy                  :       -1624.84186095 Ha      -44214.19662991 eV
  | Total energy, T -> 0          :       -1624.84186095 Ha      -44214.19662991 eV  <-- do not rely on this value for anything but (periodic) metals
  | Electronic free energy        :       -1624.84186095 Ha      -44214.19662991 eV

  Derived energy quantities:
  | Kinetic energy                :        1632.13128814 Ha       44412.55203605 eV
  | Electrostatic energy          :       -3111.52007019 Ha      -84668.76900954 eV
  | Energy correction for multipole
  | error in Hartree potential    :           0.05857914 Ha           1.59401957 eV
  | Sum of eigenvalues per atom                           :       -2008.47375086 eV
  | Total energy (T->0) per atom                          :       -3684.51638583 eV  <-- do not rely on this value for anything but (periodic) metals
  | Electronic free energy per atom                       :       -3684.51638583 eV
  Evaluating new KS density.
  Integration grid: deviation in total charge (<rho> - N_e) =   4.263256E-14

  Self-consistency convergence accuracy:
  | Change of charge density      :  0.5168E+00
  | Change of sum of eigenvalues  : -0.8985E+02 eV
  | Change of total energy        :  0.2088E+01 eV


------------------------------------------------------------
  End self-consistency iteration #     2       :  max(cpu_time)    wall_clock(cpu1)
  | Time for this iteration                     :        0.081 s           0.079 s
  | Charge density update                       :        0.026 s           0.026 s
  | Density mixing                              :        0.004 s           0.002 s
  | Hartree multipole update                    :        0.001 s           0.002 s
  | Hartree multipole summation                 :        0.016 s           0.016 s
  | Integration                                 :        0.028 s           0.028 s
  | Solution of K.-S. eqns.                     :        0.004 s           0.005 s
  | Total energy evaluation                     :        0.000 s           0.000 s

  Partial memory accounting:
  | Current value for overall tracked memory usage:
  |   Minimum:        0.274 MB (on task 23)
  |   Maximum:        0.293 MB (on task  0)
  |   Average:        0.288 MB
  | Peak value for overall tracked memory usage:
  |   Minimum:        1.270 MB (on task 10 after allocating wave)
  |   Maximum:        1.344 MB (on task 16 after allocating wave)
  |   Average:        1.306 MB
  | Largest tracked array allocation so far:
  |   Minimum:        0.667 MB (gradient_basis_wave on task 10)
  |   Maximum:        0.714 MB (gradient_basis_wave on task 16)
  |   Average:        0.693 MB
  Note:  These values currently only include a subset of arrays which are explicitly tracked.
  The "true" memory usage will be greater.
------------------------------------------------------------

------------------------------------------------------------
          Begin self-consistency iteration #    3

  Date     :  20220517, Time     :  111215.731
------------------------------------------------------------
  Pulay mixing of updated and previous charge densities.
  Renormalizing the density to the exact electron count on the 3D integration grid.
  | Formal number of electrons (from input files) :     120.0000000000
  | Integrated number of electrons on 3D grid     :     120.0000000000
  | Charge integration error                      :       0.0000000000
  | Normalization factor for density and gradient :       1.0000000000

  Evaluating partitioned Hartree potential by multipole expansion.
  | Original multipole sum: apparent total charge =   0.481624E-13
  | Sum of charges compensated after spline to logarithmic grids =   0.827658E-04
  | Analytical far-field extrapolation by fixed multipoles:
  | Hartree multipole sum: apparent total charge =   0.484083E-13
  Summing up the Hartree potential.
  Time summed over all CPUs for potential: real work        0.378 s, elapsed        0.386 s
  | RMS charge density error from multipole expansion :   0.189174E-01

  Integrating Hamiltonian matrix: batch-based integration.
  Time summed over all CPUs for integration: real work        0.632 s, elapsed        0.672 s

  Updating Kohn-Sham eigenvalues and eigenvectors using ELSI and the ELPA eigensolver.
  Starting ELPA eigensolver
  Finished transformation to standard eigenproblem
  | Time :     0.000 s
  Finished solving standard eigenproblem
  | Time :     0.004 s
  Finished back-transformation of eigenvectors
  | Time :     0.000 s

  Obtaining occupation numbers and chemical potential using ELSI.
  | Chemical potential (Fermi level):    -6.44933447 eV
  Highest occupied state (VBM) at     -6.83396709 eV
  | Occupation number:      2.00000000

  Lowest unoccupied state (CBM) at    -5.79109101 eV
  | Occupation number:      0.00000000

  Overall HOMO-LUMO gap:      1.04287607 eV.

  Total energy components:
  | Sum of eigenvalues            :        -886.47689316 Ha      -24122.26359008 eV
  | XC energy correction          :        -145.44570501 Ha       -3957.77900300 eV
  | XC potential correction       :         189.39724934 Ha        5153.76137517 eV
  | Free-atom electrostatic energy:        -779.32125141 Ha      -21206.41022104 eV
  | Hartree energy correction     :          -2.99177847 Ha         -81.41043438 eV
  | Entropy correction            :           0.00000000 Ha           0.00000000 eV
  | ---------------------------
  | Total energy                  :       -1624.83837871 Ha      -44214.10187333 eV
  | Total energy, T -> 0          :       -1624.83837871 Ha      -44214.10187333 eV  <-- do not rely on this value for anything but (periodic) metals
  | Electronic free energy        :       -1624.83837871 Ha      -44214.10187333 eV

  Derived energy quantities:
  | Kinetic energy                :        1630.97373143 Ha       44381.05331544 eV
  | Electrostatic energy          :       -3110.36640513 Ha      -84637.37618576 eV
  | Energy correction for multipole
  | error in Hartree potential    :           0.07156741 Ha           1.94744833 eV
  | Sum of eigenvalues per atom                           :       -2010.18863251 eV
  | Total energy (T->0) per atom                          :       -3684.50848944 eV  <-- do not rely on this value for anything but (periodic) metals
  | Electronic free energy per atom                       :       -3684.50848944 eV
  Evaluating new KS density.
  Integration grid: deviation in total charge (<rho> - N_e) =  -1.421085E-14

  Self-consistency convergence accuracy:
  | Change of charge density      :  0.1278E+00
  | Change of sum of eigenvalues  : -0.2058E+02 eV
  | Change of total energy        :  0.9476E-01 eV


------------------------------------------------------------
  End self-consistency iteration #     3       :  max(cpu_time)    wall_clock(cpu1)
  | Time for this iteration                     :        0.081 s           0.079 s
  | Charge density update                       :        0.026 s           0.027 s
  | Density mixing                              :        0.004 s           0.002 s
  | Hartree multipole update                    :        0.001 s           0.001 s
  | Hartree multipole summation                 :        0.016 s           0.016 s
  | Integration                                 :        0.028 s           0.029 s
  | Solution of K.-S. eqns.                     :        0.004 s           0.004 s
  | Total energy evaluation                     :        0.000 s           0.000 s

  Partial memory accounting:
  | Current value for overall tracked memory usage:
  |   Minimum:        0.274 MB (on task 23)
  |   Maximum:        0.293 MB (on task  0)
  |   Average:        0.288 MB
  | Peak value for overall tracked memory usage:
  |   Minimum:        1.270 MB (on task 10 after allocating wave)
  |   Maximum:        1.344 MB (on task 16 after allocating wave)
  |   Average:        1.306 MB
  | Largest tracked array allocation so far:
  |   Minimum:        0.667 MB (gradient_basis_wave on task 10)
  |   Maximum:        0.714 MB (gradient_basis_wave on task 16)
  |   Average:        0.693 MB
  Note:  These values currently only include a subset of arrays which are explicitly tracked.
  The "true" memory usage will be greater.
------------------------------------------------------------

------------------------------------------------------------
          Begin self-consistency iteration #    4

  Date     :  20220517, Time     :  111215.815
------------------------------------------------------------
  Pulay mixing of updated and previous charge densities.
  Renormalizing the density to the exact electron count on the 3D integration grid.
  | Formal number of electrons (from input files) :     120.0000000000
  | Integrated number of electrons on 3D grid     :     120.0000000000
  | Charge integration error                      :       0.0000000000
  | Normalization factor for density and gradient :       1.0000000000

  Evaluating partitioned Hartree potential by multipole expansion.
  | Original multipole sum: apparent total charge =  -0.334529E-14
  | Sum of charges compensated after spline to logarithmic grids =   0.912954E-04
  | Analytical far-field extrapolation by fixed multipoles:
  | Hartree multipole sum: apparent total charge =  -0.364047E-14
  Summing up the Hartree potential.
  Time summed over all CPUs for potential: real work        0.378 s, elapsed        0.387 s
  | RMS charge density error from multipole expansion :   0.223554E-01

  Integrating Hamiltonian matrix: batch-based integration.
  Time summed over all CPUs for integration: real work        0.632 s, elapsed        0.676 s

  Updating Kohn-Sham eigenvalues and eigenvectors using ELSI and the ELPA eigensolver.
  Starting ELPA eigensolver
  Finished transformation to standard eigenproblem
  | Time :     0.001 s
  Finished solving standard eigenproblem
  | Time :     0.003 s
  Finished back-transformation of eigenvectors
  | Time :     0.000 s

  Obtaining occupation numbers and chemical potential using ELSI.
  | Chemical potential (Fermi level):    -6.51603473 eV
  Highest occupied state (VBM) at     -6.86878307 eV
  | Occupation number:      2.00000000

  Lowest unoccupied state (CBM) at    -5.93616842 eV
  | Occupation number:      0.00000000

  Overall HOMO-LUMO gap:      0.93261464 eV.

  Total energy components:
  | Sum of eigenvalues            :        -886.83518330 Ha      -24132.01316077 eV
  | XC energy correction          :        -145.42270639 Ha       -3957.15317851 eV
  | XC potential correction       :         189.36598638 Ha        5152.91066674 eV
  | Free-atom electrostatic energy:        -779.32125141 Ha      -21206.41022104 eV
  | Hartree energy correction     :          -2.62186635 Ha         -71.34461342 eV
  | Entropy correction            :           0.00000000 Ha           0.00000000 eV
  | ---------------------------
  | Total energy                  :       -1624.83502106 Ha      -44214.01050701 eV
  | Total energy, T -> 0          :       -1624.83502106 Ha      -44214.01050701 eV  <-- do not rely on this value for anything but (periodic) metals
  | Electronic free energy        :       -1624.83502106 Ha      -44214.01050701 eV

  Derived energy quantities:
  | Kinetic energy                :        1629.96106062 Ha       44353.49714047 eV
  | Electrostatic energy          :       -3109.37337529 Ha      -84610.35446897 eV
  | Energy correction for multipole
  | error in Hartree potential    :           0.08234020 Ha           2.24059071 eV
  | Sum of eigenvalues per atom                           :       -2011.00109673 eV
  | Total energy (T->0) per atom                          :       -3684.50087558 eV  <-- do not rely on this value for anything but (periodic) metals
  | Electronic free energy per atom                       :       -3684.50087558 eV
  Evaluating new KS density.
  Integration grid: deviation in total charge (<rho> - N_e) =   0.000000E+00

  Self-consistency convergence accuracy:
  | Change of charge density      :  0.1125E+00
  | Change of sum of eigenvalues  : -0.9750E+01 eV
  | Change of total energy        :  0.9137E-01 eV


------------------------------------------------------------
  End self-consistency iteration #     4       :  max(cpu_time)    wall_clock(cpu1)
  | Time for this iteration                     :        0.083 s           0.080 s
  | Charge density update                       :        0.026 s           0.027 s
  | Density mixing                              :        0.006 s           0.003 s
  | Hartree multipole update                    :        0.001 s           0.001 s
  | Hartree multipole summation                 :        0.016 s           0.016 s
  | Integration                                 :        0.029 s           0.029 s
  | Solution of K.-S. eqns.                     :        0.004 s           0.004 s
  | Total energy evaluation                     :        0.000 s           0.000 s

  Partial memory accounting:
  | Current value for overall tracked memory usage:
  |   Minimum:        0.274 MB (on task 23)
  |   Maximum:        0.293 MB (on task  0)
  |   Average:        0.288 MB
  | Peak value for overall tracked memory usage:
  |   Minimum:        1.270 MB (on task 10 after allocating wave)
  |   Maximum:        1.344 MB (on task 16 after allocating wave)
  |   Average:        1.306 MB
  | Largest tracked array allocation so far:
  |   Minimum:        0.667 MB (gradient_basis_wave on task 10)
  |   Maximum:        0.714 MB (gradient_basis_wave on task 16)
  |   Average:        0.693 MB
  Note:  These values currently only include a subset of arrays which are explicitly tracked.
  The "true" memory usage will be greater.
------------------------------------------------------------

------------------------------------------------------------
          Begin self-consistency iteration #    5

  Date     :  20220517, Time     :  111215.901
------------------------------------------------------------
  Pulay mixing of updated and previous charge densities.
  Renormalizing the density to the exact electron count on the 3D integration grid.
  | Formal number of electrons (from input files) :     120.0000000000
  | Integrated number of electrons on 3D grid     :     120.0000000000
  | Charge integration error                      :       0.0000000000
  | Normalization factor for density and gradient :       1.0000000000

  Evaluating partitioned Hartree potential by multipole expansion.
  | Original multipole sum: apparent total charge =   0.165297E-13
  | Sum of charges compensated after spline to logarithmic grids =   0.921050E-04
  | Analytical far-field extrapolation by fixed multipoles:
  | Hartree multipole sum: apparent total charge =   0.114625E-13
  Summing up the Hartree potential.
  Time summed over all CPUs for potential: real work        0.378 s, elapsed        0.386 s
  | RMS charge density error from multipole expansion :   0.222968E-01

  Integrating Hamiltonian matrix: batch-based integration.
  Time summed over all CPUs for integration: real work        0.632 s, elapsed        0.673 s

  Updating Kohn-Sham eigenvalues and eigenvectors using ELSI and the ELPA eigensolver.
  Starting ELPA eigensolver
  Finished transformation to standard eigenproblem
  | Time :     0.000 s
  Finished solving standard eigenproblem
  | Time :     0.004 s
  Finished back-transformation of eigenvectors
  | Time :     0.000 s

  Obtaining occupation numbers and chemical potential using ELSI.
  | Chemical potential (Fermi level):    -6.49468439 eV
  Highest occupied state (VBM) at     -6.95614467 eV
  | Occupation number:      2.00000000

  Lowest unoccupied state (CBM) at    -5.86512032 eV
  | Occupation number:      0.00000000

  Overall HOMO-LUMO gap:      1.09102435 eV.

  Total energy components:
  | Sum of eigenvalues            :        -886.74603892 Ha      -24129.58741897 eV
  | XC energy correction          :        -145.41241187 Ha       -3956.87305045 eV
  | XC potential correction       :         189.35253088 Ha        5152.54452375 eV
  | Free-atom electrostatic energy:        -779.32125141 Ha      -21206.41022104 eV
  | Hartree energy correction     :          -2.70759032 Ha         -73.67728136 eV
  | Entropy correction            :           0.00000000 Ha           0.00000000 eV
[...]
   Total forces(   7)            : -0.907484E+01  0.307892E+01 -0.271773E+01
  atom #    8
   Hellmann-Feynman              :  0.218988E+01  0.174314E+01  0.292259E+00
   Ionic forces                  :  0.000000E+00  0.000000E+00  0.000000E+00
   Multipole                     :  0.516461E+00  0.372414E+00  0.155819E+00
   Hartree pot. SCF incomplete   :  0.642920E-05  0.198476E-05  0.770860E-05
   Pulay + GGA                   : -0.588283E+01 -0.450451E+01 -0.118936E+01
   ----------------------------------------------------------------
   Total forces(   8)            : -0.317648E+01 -0.238896E+01 -0.741278E+00
  atom #    9
   Hellmann-Feynman              : -0.177964E+00 -0.847995E+01 -0.806598E+01
   Ionic forces                  :  0.000000E+00  0.000000E+00  0.000000E+00
   Multipole                     :  0.371879E+00 -0.789784E+00 -0.420067E+00
   Hartree pot. SCF incomplete   : -0.512555E-06 -0.463038E-06 -0.191517E-05
   Pulay + GGA                   : -0.760165E+00  0.242645E+01  0.127144E+01
   ----------------------------------------------------------------
   Total forces(   9)            : -0.566251E+00 -0.684329E+01 -0.721461E+01
  atom #   10
   Hellmann-Feynman              : -0.162411E+01  0.245708E+01 -0.247697E+01
   Ionic forces                  :  0.000000E+00  0.000000E+00  0.000000E+00
   Multipole                     : -0.311000E+00  0.544295E+00 -0.180104E+00
   Hartree pot. SCF incomplete   :  0.539875E-05 -0.176975E-05  0.155236E-04
   Pulay + GGA                   :  0.224411E+01 -0.312474E+01  0.122661E+01
   ----------------------------------------------------------------
   Total forces(  10)            :  0.308999E+00 -0.123364E+00 -0.143045E+01
  atom #   11
   Hellmann-Feynman              :  0.132646E+01  0.550379E+00  0.129483E+01
   Ionic forces                  :  0.000000E+00  0.000000E+00  0.000000E+00
   Multipole                     :  0.254328E+00  0.114284E+00  0.228854E+00
   Hartree pot. SCF incomplete   :  0.515750E-05  0.223834E-05  0.481771E-05
   Pulay + GGA                   : -0.430329E+01 -0.169241E+01 -0.440650E+01
   ----------------------------------------------------------------
   Total forces(  11)            : -0.272250E+01 -0.102775E+01 -0.288282E+01
  atom #   12
   Hellmann-Feynman              : -0.136063E+01 -0.128720E+01  0.265666E+00
   Ionic forces                  :  0.000000E+00  0.000000E+00  0.000000E+00
   Multipole                     : -0.192437E+00 -0.188164E+00  0.512445E-01
   Hartree pot. SCF incomplete   : -0.367746E-05 -0.533923E-05  0.483484E-05
   Pulay + GGA                   :  0.412862E+01  0.423601E+01 -0.153548E+01
   ----------------------------------------------------------------
   Total forces(  12)            :  0.257555E+01  0.276065E+01 -0.121856E+01


  Self-consistency convergence accuracy:
  | Change of charge density      :  0.6124E-06
  | Change of sum of eigenvalues  : -0.9041E-04 eV
  | Change of total energy        :  0.1015E-07 eV
  | Change of forces              :  0.3313E-05 eV/A

  Writing Kohn-Sham eigenvalues.

  State    Occupation    Eigenvalue [Ha]    Eigenvalue [eV]
      1       2.00000         -55.657734        -1514.52399
      2       2.00000         -55.609925        -1513.22304
      3       2.00000         -55.558002        -1511.81014
      4       2.00000         -24.361032         -662.89740
      5       2.00000         -24.361019         -662.89706
      6       2.00000         -24.310067         -661.51059
      7       2.00000         -24.303765         -661.33909
      8       2.00000         -24.235549         -659.48284
      9       2.00000         -24.235547         -659.48280
     10       2.00000         -24.205785         -658.67293
     11       2.00000         -24.123709         -656.43953
     12       2.00000         -24.120803         -656.36044
     13       2.00000          -4.133219         -112.47060
     14       2.00000          -4.093016         -111.37664
     15       2.00000          -4.012463         -109.18469
     16       2.00000          -2.725276          -74.15854
     17       2.00000          -2.725106          -74.15390
     18       2.00000          -2.722335          -74.07850
     19       2.00000          -2.686241          -73.09633
     20       2.00000          -2.685523          -73.07681
     21       2.00000          -2.680713          -72.94592
     22       2.00000          -2.604831          -70.88105
     23       2.00000          -2.604681          -70.87698
     24       2.00000          -2.602562          -70.81931
     25       2.00000          -1.280631          -34.84773
     26       2.00000          -1.261126          -34.31698
     27       2.00000          -1.204382          -32.77290
     28       2.00000          -1.193851          -32.48633
     29       2.00000          -1.106962          -30.12196
     30       2.00000          -1.097049          -29.85223
     31       2.00000          -1.044888          -28.43284
     32       2.00000          -0.946376          -25.75221
     33       2.00000          -0.944729          -25.70737
     34       2.00000          -0.634206          -17.25763
     35       2.00000          -0.614947          -16.73357
     36       2.00000          -0.592164          -16.11361
     37       2.00000          -0.574118          -15.62255
     38       2.00000          -0.559744          -15.23140
     39       2.00000          -0.549785          -14.96042
     40       2.00000          -0.546707          -14.87666
     41       2.00000          -0.523518          -14.24565
     42       2.00000          -0.502605          -13.67657
     43       2.00000          -0.499912          -13.60330
     44       2.00000          -0.489888          -13.33052
     45       2.00000          -0.486649          -13.24240
     46       2.00000          -0.476854          -12.97584
     47       2.00000          -0.441812          -12.02231
     48       2.00000          -0.438026          -11.91930
     49       2.00000          -0.411752          -11.20434
     50       2.00000          -0.401521          -10.92596
     51       2.00000          -0.400507          -10.89836
     52       2.00000          -0.394250          -10.72809
     53       2.00000          -0.353682           -9.62418
     54       2.00000          -0.350832           -9.54662
     55       2.00000          -0.318323           -8.66202
     56       2.00000          -0.296977           -8.08117
     57       2.00000          -0.264166           -7.18833
     58       2.00000          -0.261322           -7.11094
     59       2.00000          -0.257586           -7.00928
     60       2.00000          -0.256091           -6.96858
     61       0.00000          -0.214606           -5.83973
     62       0.00000          -0.124675           -3.39257
     63       0.00000          -0.098687           -2.68540
     64       0.00000          -0.096873           -2.63605
     65       0.00000          -0.056716           -1.54333
     66       0.00000          -0.045397           -1.23532
     67       0.00000           0.014951            0.40683
     68       0.00000           0.028795            0.78356
     69       0.00000           0.037979            1.03346
     70       0.00000           0.056085            1.52615
     71       0.00000           0.077580            2.11107
     72       0.00000           0.079846            2.17272
     73       0.00000           0.089488            2.43509
     74       0.00000           0.119997            3.26528
     75       0.00000           0.138498            3.76871
     76       0.00000           0.142077            3.86611
     77       0.00000           0.150140            4.08551
     78       0.00000           0.153788            4.18478
     79       0.00000           0.153916            4.18826
     80       0.00000           0.198024            5.38851
     81       0.00000           0.206129            5.60906
     82       0.00000           0.216362            5.88752
     83       0.00000           0.229583            6.24728
     84       0.00000           0.239780            6.52475
     85       0.00000           0.245586            6.68273
     86       0.00000           0.246689            6.71276
     87       0.00000           0.257618            7.01013
     88       0.00000           0.267957            7.29148
     89       0.00000           0.286190            7.78763
     90       0.00000           0.294805            8.02205
     91       0.00000           0.296176            8.05936
     92       0.00000           0.325866            8.86727
     93       0.00000           0.335000            9.11580
     94       0.00000           0.348328            9.47849
     95       0.00000           0.357086            9.71680
     96       0.00000           0.363581            9.89355

  Highest occupied state (VBM) at     -6.96857758 eV
  | Occupation number:      2.00000000

  Lowest unoccupied state (CBM) at    -5.83973413 eV
  | Occupation number:      0.00000000

  Overall HOMO-LUMO gap:      1.12884344 eV.
  | Chemical Potential                          :    -6.48203258 eV

  Self-consistency cycle converged.


------------------------------------------------------------
  End self-consistency iteration #    14       :  max(cpu_time)    wall_clock(cpu1)
  | Time for this iteration                     :        0.257 s           0.257 s
  | Charge density & force component update     :        0.137 s           0.137 s
  | Density mixing                              :        0.005 s           0.002 s
  | Hartree multipole update                    :        0.001 s           0.002 s
  | Hartree multipole summation                 :        0.049 s           0.049 s
  | Hartree pot. SCF incomplete forces          :        0.033 s           0.033 s
  | Integration                                 :        0.028 s           0.028 s
  | Solution of K.-S. eqns.                     :        0.004 s           0.004 s
  | Total energy evaluation                     :        0.000 s           0.000 s

  Partial memory accounting:
  | Current value for overall tracked memory usage:
  |   Minimum:        0.274 MB (on task 23)
  |   Maximum:        0.293 MB (on task  0)
  |   Average:        0.289 MB
  | Peak value for overall tracked memory usage:
  |   Minimum:        2.774 MB (on task 10 after allocating hessian_basis_wave)
  |   Maximum:        2.932 MB (on task 16 after allocating hessian_basis_wave)
  |   Average:        2.855 MB
  | Largest tracked array allocation so far:
  |   Minimum:        1.334 MB (hessian_basis_wave on task 10)
  |   Maximum:        1.429 MB (hessian_basis_wave on task 16)
  |   Average:        1.385 MB
  Note:  These values currently only include a subset of arrays which are explicitly tracked.
  The "true" memory usage will be greater.
------------------------------------------------------------
  Removing unitary transformations (pure translations, rotations) from forces on atoms.
  Atomic forces before filtering:
  | Net force on center of mass :   0.274375E-02  0.944977E-03 -0.889638E-03 eV/A
  | Net torque on center of mass:  -0.133798E-01  0.258441E-01  0.704824E-02 eV
  Atomic forces after filtering:
  | Net force on center of mass :   0.000000E+00 -0.142725E-14 -0.178406E-15 eV/A
  | Net torque on center of mass:  -0.151054E-14  0.944085E-15 -0.226580E-14 eV

  Energy and forces in a compact form:
  | Total energy uncorrected      :         -0.442140028219562E+05 eV
  | Total energy corrected        :         -0.442140028219562E+05 eV  <-- do not rely on this value for anything but (periodic) metals
  | Electronic free energy        :         -0.442140028219562E+05 eV
  Total atomic forces (unitary forces cleaned) [eV/Ang]:
  |    1          0.391048860539129E+00         -0.215202112285310E+01          0.549190411853575E+01
  |    2          0.131986490004793E+02          0.609060771155257E+01          0.115282515585952E+02
  |    3          0.224518079780828E+01          0.117750938400455E+01          0.165881893964868E+01
  |    4         -0.376467407145164E+01         -0.365930645356281E+01          0.946863637620937E+00
  |    5         -0.606123017774992E+00          0.942730601787219E+00         -0.947106261865006E+00
  |    6          0.119467577460703E+01          0.214579358516815E+01         -0.247454792160300E+01
  |    7         -0.907480973579531E+01          0.307898878840506E+01         -0.271778124076750E+01
  |    8         -0.317653517293336E+01         -0.238905808022198E+01         -0.740332679475470E+00
  |    9         -0.566024073957675E+00         -0.684314449268405E+01         -0.721445822858484E+01
  |   10          0.308227642316039E+00         -0.123720374628592E+00         -0.143036304330274E+01
  |   11         -0.272393362578562E+01         -0.102851561096431E+01         -0.288213528707547E+01
  |   12          0.257431762194877E+01          0.276013606399729E+01         -0.121911359172654E+01

  ------------------------------------ 
  Start decomposition of the XC Energy 
  ------------------------------------ 
  X and C from original XC functional choice 
  Hartree-Fock Energy :          0.000000000 Ha              0.000000000 eV
  X Energy            :       -140.459044546 Ha          -3822.085067637 eV
  C Energy            :         -4.955858957 Ha           -134.855783610 eV
  Total XC Energy     :       -145.414903503 Ha          -3956.940851247 eV
  ------------------------------------ 
  LDA X and C from self-consistent density 
  X Energy LDA        :       -133.042732088 Ha          -3620.276937782 eV
  C Energy LDA        :         -8.835252002 Ha           -240.419439390 eV
  ------------------------------------ 
  End decomposition of the XC Energy 
  ------------------------------------ 

------------------------------------------------------------

------------------------------------------------------------------------------
  Final output of selected total energy values:

  The following output summarizes some interesting total energy values
  at the end of a run (AFTER all relaxation, molecular dynamics, etc.).

  | Total energy of the DFT / Hartree-Fock s.c.f. calculation      :         -44214.002821956 eV
  | Final zero-broadening corrected energy (caution - metals only) :         -44214.002821956 eV
  | For reference only, the value of 1 Hartree used in FHI-aims is :             27.211384500 eV

  Before relying on these values, please be sure to understand exactly which
  total energy value is referred to by a given number. Different objects may
  all carry the same name 'total energy'. Definitions:

  Total energy of the DFT / Hartree-Fock s.c.f. calculation:
  | Note that this energy does not include ANY quantities calculated after the
  | s.c.f. cycle, in particular not ANY RPA, MP2, etc. many-body perturbation terms.

  Final zero-broadening corrected energy:
  | For metallic systems only, a broadening of the occupation numbers at the Fermi
  | level can be extrapolated back to zero broadening by an electron-gas inspired
  | formula. For all systems that are not real metals, this value can be
  | meaningless and should be avoided.

------------------------------------------------------------------------------
  Methods described in the following list of references were used in this FHI-aims run.
  If you publish the results, please make sure to cite these reference if they apply.
  FHI-aims is an academic code, and for our developers (often, Ph.D. students
  and postdocs), scientific credit in the community is essential.
  Thank you for helping us!

  For any use of FHI-aims, please cite:

    Volker Blum, Ralf Gehrke, Felix Hanke, Paula Havu, Ville Havu,
    Xinguo Ren, Karsten Reuter, and Matthias Scheffler
    'Ab initio molecular simulations with numeric atom-centered orbitals'
    Computer Physics Communications 180, 2175-2196 (2009)
    http://dx.doi.org/10.1016/j.cpc.2009.06.022


  The ELSI infrastructure was used in your run to solve the Kohn-Sham electronic structure.
  Please check out http://elsi-interchange.org to learn more.
  If scalability is important for your project, please acknowledge ELSI by citing:

    V. W-z. Yu, F. Corsetti, A. Garcia, W. P. Huhn, M. Jacquelin, W. Jia,
    B. Lange, L. Lin, J. Lu, W. Mi, A. Seifitokaldani, A. Vazquez-Mayagoitia,
    C. Yang, H. Yang, and V. Blum
    'ELSI: A unified software interface for Kohn-Sham electronic structure solvers'
    Computer Physics Communications 222, 267-285 (2018).
    http://dx.doi.org/10.1016/j.cpc.2017.09.007


  For the real-space grid partitioning and parallelization used in this calculation, please cite:

    Ville Havu, Volker Blum, Paula Havu, and Matthias Scheffler,
    'Efficient O(N) integration for all-electron electronic structure calculation'
    'using numerically tabulated basis functions'
    Journal of Computational Physics 228, 8367-8379 (2009).
    http://dx.doi.org/10.1016/j.jcp.2009.08.008

  Of course, there are many other important community references, e.g., those cited in the
  above references. Our list is limited to references that describe implementations in the
  FHI-aims code. The reason is purely practical (length of this list) - please credit others as well.

------------------------------------------------------------
          Leaving FHI-aims.
          Date     :  20220517, Time     :  111217.123

          Computational steps:
          | Number of self-consistency cycles          :           14
          | Number of SCF (re)initializations          :            1

          Detailed time accounting                     :  max(cpu_time)    wall_clock(cpu1)
          | Total time                                  :        1.866 s           5.045 s
          | Preparation time                            :        0.185 s           0.185 s
          | Boundary condition initalization            :        0.000 s           0.000 s
          | Grid partitioning                           :        0.033 s           0.033 s
          | Preloading free-atom quantities on grid     :        0.014 s           0.014 s
          | Free-atom superposition energy              :        0.005 s           0.005 s
          | Total time for integrations                 :        0.440 s           0.438 s
          | Total time for solution of K.-S. equations  :        0.069 s           0.068 s
          | Total time for density & force components   :        0.616 s           0.620 s
          | Total time for mixing                       :        0.067 s           0.030 s
          | Total time for Hartree multipole update     :        0.019 s           0.019 s
          | Total time for Hartree multipole sum        :        0.296 s           0.297 s
          | Total time for total energy evaluation      :        0.002 s           0.001 s
          | Total time NSC force correction             :        0.066 s           0.066 s
          | Total time for scaled ZORA corrections      :        0.000 s           0.000 s

          Partial memory accounting:
          | Residual value for overall tracked memory usage across tasks:     0.000000 MB (should be 0.000000 MB)
          | Peak values for overall tracked memory usage:
          |   Minimum:        2.774 MB (on task 10 after allocating hessian_basis_wave)
          |   Maximum:        2.932 MB (on task 16 after allocating hessian_basis_wave)
          |   Average:        2.855 MB
          | Largest tracked array allocation:
          |   Minimum:        1.334 MB (hessian_basis_wave on task 10)
          |   Maximum:        1.429 MB (hessian_basis_wave on task 16)
          |   Average:        1.385 MB
          Note:  These values currently only include a subset of arrays which are explicitly tracked.
          The "true" memory usage will be greater.

          Have a nice day.
------------------------------------------------------------
