12
Properties=species:S:1:pos:R:3:forces:R:3 energy=-177.59947010 pbc="F F F"
Al    -0.552430438    0.98860906    -2.027356436    -10.871366    -2.373804    -1.273878
Al    -0.484506814    1.065974853    1.2594311360000001    -2.461119    -0.5624    -1.599042
Al    -3.031256519    0.45255198900000004    -2.045028042    -8.365303    -1.983402    -9.201808
F    -3.416642761    0.334351808    -3.875447708    1.301623    0.569565    15.113808
F    -1.261764357    -0.570358601    -1.827532945    4.07781    3.316876    0.042794
F    -1.843605387    2.121874403    -1.878880583    5.082895    -1.33375    0.131493
F    -1.985993725    0.726573739    0.477989624    1.839314    0.418789    1.11575
F    0.694545827    1.295286143    -0.077825011    1.648599    0.427103    3.712741
F    -0.299001775    2.763491997    1.9987351469999999    0.367658    0.873924    0.092371
F    0.379372015    -0.375408958    2.058598945    0.694886    -0.640204    0.121243
F    -4.4839832920000005    0.17577277000000002    -0.09554236500000002    4.717991    0.892333    -6.675197
F    0.742018727    1.245398837    -3.231456729    1.967012    0.394969    -1.580274
