********************************************************************************
*                       GENERAL UTILITY LATTICE PROGRAM                        *
*                                 Julian Gale                                  *
*                       Curtin Institute for Computation                       *
*                           Department of Chemistry                            *
*                    Curtin University, Western Australia                      *
********************************************************************************
* Version = 5.1.1 * Last modified =  24th November 2018                        *
********************************************************************************
*  optimise     - perform optimisation run                                     *
*  conp         - constant pressure calculation                                *
*  shell        - only shells and radii to be optimised                        *
*  phonon       - calculate phonons for final geometry                         *
*  eigenvectors - output phonon eigenvectors                                   *
********************************************************************************

  Job Started  at 14:40.13 25th May        2022                               

  Number of CPUs =     1

  Host name      = login03                                 


  Total number of configurations input =      1

********************************************************************************
*  Input for Configuration =   1                                               *
********************************************************************************

  Formula = Al3F9                                                       

  Number of irreducible atoms/shells =      21


  Total number atoms/shells =      21

  Dimensionality = 0               :  Cluster


  Charge on cluster =  -0.000000


  Initial cluster dipoles : x =      0.000001 e.Angs
                            y =     -0.000000 e.Angs
                            z =      0.000000 e.Angs

  Temperature of configuration =  0.000     K 

  Symmetry number =      1

  Cartesian coordinates of cluster :

--------------------------------------------------------------------------------
   No.  Atomic       x           y          z         Charge      Occupancy
        Label      (Angs)      (Angs)     (Angs)        (e)         (Frac)  
--------------------------------------------------------------------------------
      1 Al    c      0.2508     -2.3346     -1.7722     3.00000    1.000000    
      2 Al    c      2.0464     -0.5374     -0.8331     3.00000    1.000000    
      3 Al    c     -0.3222      0.3121     -1.8313     3.00000    1.000000    
      4 F     c      3.6463     -0.1736     -0.0781     0.59000    1.000000    
      5 F     c     -0.2116     -4.0440     -2.1302     0.59000    1.000000    
      6 F     c      2.0822     -1.8524     -2.2734     0.59000    1.000000    
      7 F     c      1.5403      0.6231     -2.3160     0.59000    1.000000    
      8 F     c     -1.4597      1.6577     -2.2283     0.59000    1.000000    
      9 F     c     -1.1432     -1.2395     -0.9672     0.59000    1.000000    
     10 F     c     -0.1347     -1.0573     -3.2070     0.59000    1.000000    
     11 F     c      0.5318      0.4409     -0.0762     0.59000    1.000000    
     12 F     c      1.0736     -2.0346     -0.0336     0.59000    1.000000    
     13 F     s      3.6463 *   -0.1736 *   -0.0781 *  -1.59000    1.000000    
     14 F     s     -0.2116 *   -4.0440 *   -2.1302 *  -1.59000    1.000000    
     15 F     s      2.0822 *   -1.8524 *   -2.2734 *  -1.59000    1.000000    
     16 F     s      1.5403 *    0.6231 *   -2.3160 *  -1.59000    1.000000    
     17 F     s     -1.4597 *    1.6577 *   -2.2283 *  -1.59000    1.000000    
     18 F     s     -1.1432 *   -1.2395 *   -0.9672 *  -1.59000    1.000000    
     19 F     s     -0.1347 *   -1.0573 *   -3.2070 *  -1.59000    1.000000    
     20 F     s      0.5318 *    0.4409 *   -0.0762 *  -1.59000    1.000000    
     21 F     s      1.0736 *   -2.0346 *   -0.0336 *  -1.59000    1.000000    
--------------------------------------------------------------------------------


  Brillouin zone sampling points :

--------------------------------------------------------------------------------
  Point number          x          y          z            Weight
--------------------------------------------------------------------------------
        1           0.000000   0.000000   0.000000     1.00000000
--------------------------------------------------------------------------------


********************************************************************************
*  General input information                                                   *
********************************************************************************

  Species output for all configurations : 

--------------------------------------------------------------------------------
  Species    Type    Atomic    Atomic    Charge       Radii (Angs)     Library
                     Number     Mass       (e)     Cova   Ionic  VDW   Symbol
--------------------------------------------------------------------------------
    Al       Core       13      26.98   3.000000   1.350  0.000  2.050          
    F        Core        9      19.00   0.590000   0.710  0.000  1.300          
    F        Shell       9       0.00  -1.590000   0.710  0.000  1.300          
--------------------------------------------------------------------------------


  Accuracy factor for short range sums = 12.000

  Time limit = Infinity

  Maximum range for interatomic potentials =    100000.000000 Angstroms

  General interatomic potentials :

--------------------------------------------------------------------------------
Atom  Types   Potential      Parameter       Value         Units   Cutoffs(Ang)
  1     2                                                            Min /  Max 
--------------------------------------------------------------------------------
Al   c F    s Buckingham    Buckingham A     3760.0008    eV        0.000 10.000
                            Buckingham rho  0.22200000    Ang       
                            Buckingham C     0.0000000    eV*Ang^6  
--------------------------------------------------------------------------------
F    s F    s Buck 4 range  Buck4 A          1127.7000    eV        0.000 12.000
                            Buck4 rho       0.27530000    Ang       
                            Buck4 C          15.830000    eV*Ang^6  
                            Buck4 minimum    2.7900000    Ang       
--------------------------------------------------------------------------------
F    c F    s Spring (c-s)  Spring k 2       20.770000    eV*Ang^-2 0.000  0.800
                            Spring k 4       0.0000000    eV*Ang^-4 
--------------------------------------------------------------------------------

********************************************************************************
*  Output for configuration   1                                                *
********************************************************************************


  Components of energy : 

--------------------------------------------------------------------------------
  Interatomic potentials     =          10.29203672 eV    
  Monopole - monopole (real) =        -177.06247114 eV    
--------------------------------------------------------------------------------
  Total lattice energy       =        -166.77043442 eV    
--------------------------------------------------------------------------------
  Total lattice energy       =          -16090.7976 kJ/mol
--------------------------------------------------------------------------------


  Number of variables =       27

  Maximum number of calculations  =          2000
  Maximum Hessian update interval =            10
  Maximum step size               =   1.000000000
  Maximum parameter tolerance     =   0.000001000
  Maximum function  tolerance     =   0.000010000
  Maximum gradient  tolerance     =   0.000000010
  Maximum gradient  component     =   0.010000000

  Symmetry not applied to optimisation

  Newton-Raphson optimiser to be used

  BFGS hessian update to be used

  Lower half triangular hessian to be used

  Minimiser to switch to RFO
  When gradient norm is less than     0.010000

  Shell only optimisation

  Start of cluster optimisation :

  Cycle:      0 Energy:      -166.770434  Gnorm:      1.546598  CPU:    0.004
  ** Hessian calculated **
  Cycle:      1 Energy:      -184.222023  Gnorm:      0.638006  CPU:    0.006
  ** Hessian calculated **
  Cycle:      2 Energy:      -185.771561  Gnorm:      0.029639  CPU:    0.008
  Cycle:      3 Energy:      -185.776366  Gnorm:      0.002737  CPU:    0.009
  ** Hessian has required structure
  Cycle:      4 Energy:      -185.776403  Gnorm:      0.000345  CPU:    0.011
  ** Hessian has required structure
  Cycle:      5 Energy:      -185.776404  Gnorm:      0.000083  CPU:    0.012
  ** Hessian has required structure
  Cycle:      6 Energy:      -185.776404  Gnorm:      0.000039  CPU:    0.014
  ** Hessian has required structure
  Cycle:      7 Energy:      -185.776404  Gnorm:      0.000029  CPU:    0.015
  ** Hessian has required structure
  Cycle:      8 Energy:      -185.776404  Gnorm:      0.000011  CPU:    0.017
  ** Hessian has required structure
  Cycle:      9 Energy:      -185.776404  Gnorm:      0.000008  CPU:    0.018
  ** Hessian has required structure
  Cycle:     10 Energy:      -185.776404  Gnorm:      0.000006  CPU:    0.019
  ** Hessian has required structure
  Cycle:     11 Energy:      -185.776404  Gnorm:      0.000005  CPU:    0.021
  ** Hessian has required structure
  Cycle:     12 Energy:      -185.776404  Gnorm:      0.000000  CPU:    0.022
  ** Hessian has required structure

  XYZ File written as 006/0/sp_mod_-20/sp_mod_-20_eig.xyz



  **** Optimisation achieved ****


  Final energy =    -185.77640412 eV
  Final Gnorm  =       0.00000000

  Components of energy : 

--------------------------------------------------------------------------------
  Interatomic potentials     =          37.46932207 eV    
  Monopole - monopole (real) =        -223.24572619 eV    
--------------------------------------------------------------------------------
  Total lattice energy       =        -185.77640412 eV    
--------------------------------------------------------------------------------
  Total lattice energy       =          -17924.5831 kJ/mol
--------------------------------------------------------------------------------

  Final cartesian coordinates of atoms :

--------------------------------------------------------------------------------
   No.  Atomic        x           y          z          Radius
        Label       (Angs)      (Angs)     (Angs)       (Angs) 
--------------------------------------------------------------------------------
     1  Al    c     0.250771   -2.334583   -1.772220    0.000000
     2  Al    c     2.046433   -0.537413   -0.833143    0.000000
     3  Al    c    -0.322155    0.312118   -1.831272    0.000000
     4  F     c     3.646339   -0.173629   -0.078070    0.000000
     5  F     c    -0.211617   -4.043992   -2.130224    0.000000
     6  F     c     2.082213   -1.852385   -2.273388    0.000000
     7  F     c     1.540347    0.623123   -2.315987    0.000000
     8  F     c    -1.459674    1.657743   -2.228341    0.000000
     9  F     c    -1.143225   -1.239498   -0.967162    0.000000
    10  F     c    -0.134652   -1.057263   -3.206966    0.000000
    11  F     c     0.531774    0.440888   -0.076183    0.000000
    12  F     c     1.073640   -2.034621   -0.033584    0.000000
    13  F     s     3.395983   -0.230580   -0.196470    0.000000
    14  F     s    -0.139349   -3.776161   -2.073700    0.000000
    15  F     s     1.907609   -1.774799   -2.086758    0.000000
    16  F     s     1.412732    0.487414   -2.128677    0.000000
    17  F     s    -1.281510    1.447078   -2.166413    0.000000
    18  F     s    -0.936040   -1.198439   -1.127395    0.000000
    19  F     s    -0.119620   -1.047633   -2.940603    0.000000
    20  F     s     0.595976    0.338609   -0.315549    0.000000
    21  F     s     1.089442   -1.924901   -0.274286    0.000000
--------------------------------------------------------------------------------


  Final Cartesian derivatives :

--------------------------------------------------------------------------------
   No.  Atomic          x             y             z           Radius
        Label       (eV/Angs)     (eV/Angs)    (eV/Angs)      (eV/Angs)
--------------------------------------------------------------------------------
      1 Al    c       0.000000      0.000000      0.000000      0.000000
      2 Al    c       0.000000      0.000000      0.000000      0.000000
      3 Al    c       0.000000      0.000000      0.000000      0.000000
      4 F     c       0.000000      0.000000      0.000000      0.000000
      5 F     c       0.000000      0.000000      0.000000      0.000000
      6 F     c       0.000000      0.000000      0.000000      0.000000
      7 F     c       0.000000      0.000000      0.000000      0.000000
      8 F     c       0.000000      0.000000      0.000000      0.000000
      9 F     c       0.000000      0.000000      0.000000      0.000000
     10 F     c       0.000000      0.000000      0.000000      0.000000
     11 F     c       0.000000      0.000000      0.000000      0.000000
     12 F     c       0.000000      0.000000      0.000000      0.000000
     13 F     s      -0.000000     -0.000000      0.000000      0.000000
     14 F     s       0.000000     -0.000000      0.000000      0.000000
     15 F     s      -0.000000     -0.000000      0.000000      0.000000
     16 F     s       0.000000     -0.000000      0.000000      0.000000
     17 F     s      -0.000000     -0.000000     -0.000000      0.000000
     18 F     s      -0.000000      0.000000      0.000000      0.000000
     19 F     s       0.000000      0.000000      0.000000      0.000000
     20 F     s       0.000000      0.000000      0.000000      0.000000
     21 F     s      -0.000000     -0.000000     -0.000000      0.000000
--------------------------------------------------------------------------------
  Maximum abs         0.000000      0.000000      0.000000      0.000000
--------------------------------------------------------------------------------


  Born effective charge tensors : 

-------------------------------------------------------------------------------
  Atom             x           y             z
-------------------------------------------------------------------------------
    1 Al    x       1.2516     -0.1161      0.0066
            y      -0.1171      0.8564     -0.0977
            z       0.0057     -0.0999      1.1980
-------------------------------------------------------------------------------
    2 Al    x       0.8976     -0.0862     -0.1518
            y      -0.0851      1.2771     -0.0424
            z      -0.1534     -0.0409      1.1315
-------------------------------------------------------------------------------
    3 Al    x       1.0840      0.2326     -0.0361
            y       0.2323      1.0247      0.0777
            z      -0.0336      0.0781      1.1976
-------------------------------------------------------------------------------
    4 F     x      -0.0525      0.1120      0.2274
            y       0.1121     -0.5211      0.0521
            z       0.2274      0.0523     -0.4269
-------------------------------------------------------------------------------
    5 F     x      -0.5033      0.1521      0.0271
            y       0.1522      0.0143      0.1164
            z       0.0271      0.1164     -0.5117
-------------------------------------------------------------------------------
    6 F     x      -0.4226     -0.0131     -0.0283
            y      -0.0229     -0.3986     -0.0116
            z      -0.0060     -0.0378     -0.3381
-------------------------------------------------------------------------------
    7 F     x      -0.4115     -0.0009     -0.0350
            y       0.0132     -0.3871      0.0029
            z      -0.0229      0.0362     -0.3413
-------------------------------------------------------------------------------
    8 F     x      -0.2961     -0.2938      0.0823
            y      -0.2938     -0.1987     -0.1035
            z       0.0825     -0.1033     -0.5058
-------------------------------------------------------------------------------
    9 F     x      -0.3870     -0.0037     -0.0233
            y      -0.0005     -0.4338      0.0045
            z       0.0139      0.0097     -0.3280
-------------------------------------------------------------------------------
   10 F     x      -0.3639      0.0204     -0.0174
            y       0.0159     -0.4317      0.0104
            z      -0.0523      0.0026     -0.3633
-------------------------------------------------------------------------------
   11 F     x      -0.4127      0.0311     -0.0335
            y       0.0183     -0.3876     -0.0015
            z      -0.0443     -0.0315     -0.3613
-------------------------------------------------------------------------------
   12 F     x      -0.3834     -0.0345     -0.0180
            y      -0.0245     -0.4139     -0.0074
            z      -0.0441      0.0180     -0.3506
-------------------------------------------------------------------------------




  Moment of inertia tensor (10^-46 x kgm^2): 

-------------------------------------------------------------------------------
                x           y           z           Principal axis system
-------------------------------------------------------------------------------
       x        129.51        1.80      -22.95          119.093336
       y          1.80      119.43       -4.08          119.195959
       z        -22.95       -4.08      170.21          180.861412
-------------------------------------------------------------------------------
  Centre of mass (Ang) =     0.658350    -0.853293    -1.478879
-------------------------------------------------------------------------------


  Vibrational Frequency Calculation : 

--------------------------------------------------------------------------------

  Frequencies (cm-1) and Eigenvectors : 

  Frequency      -0.0000   -0.0000    0.0000    6.9283    8.3582    9.9526
  IR Intensity    0.0000    0.0000    0.0000    0.0000    0.0000    0.0000
     in X         0.0000    0.0000    0.0000    0.0000    0.0000    0.0000
     in Y         0.0000    0.0000    0.0000    0.0000    0.0000    0.0000
     in Z         0.0000    0.0000    0.0000    0.0000    0.0000    0.0000
  Raman Intsty    0.0000    0.0000    0.0000    0.0000    0.0000    0.0000

     1 x       0.233781 -0.145769 -0.176598 -0.163149  0.140481 -0.122943
     1 y      -0.220617 -0.210995 -0.117891  0.056925 -0.051982 -0.021151
     1 z      -0.061350  0.203277 -0.249006 -0.060734  0.067170  0.275297
     2 x       0.233781 -0.145769 -0.176598  0.111212  0.047011  0.057807
     2 y      -0.220617 -0.210995 -0.117891 -0.166030  0.174390  0.010624
     2 z      -0.061350  0.203277 -0.249006 -0.157995 -0.185678 -0.129150
     3 x       0.233781 -0.145769 -0.176598  0.051347 -0.187573  0.065092
     3 y      -0.220617 -0.210995 -0.117891  0.109358 -0.122383  0.010946
     3 z      -0.061350  0.203277 -0.249006  0.218522  0.118514 -0.145590
     4 x       0.196184 -0.122327 -0.148198  0.203338  0.084753  0.105749
     4 y      -0.185138 -0.177063 -0.098932 -0.300523  0.317343  0.020535
     4 z      -0.051484  0.170586 -0.208961 -0.288062 -0.334227 -0.235280
     5 x       0.196184 -0.122327 -0.148198 -0.295923  0.253678 -0.224014
     5 y      -0.185138 -0.177063 -0.098932  0.103179 -0.093920 -0.041246
     5 z      -0.051484  0.170586 -0.208961 -0.110151  0.121157  0.499540
     6 x       0.196184 -0.122327 -0.148198 -0.159108  0.016485 -0.096819
     6 y      -0.185138 -0.177063 -0.098932 -0.047099  0.135779 -0.200097
     6 z      -0.051484  0.170586 -0.208961 -0.222727 -0.146350  0.078876
     7 x       0.196184 -0.122327 -0.148198  0.010640 -0.242590  0.051161
     7 y      -0.185138 -0.177063 -0.098932 -0.007703  0.083372 -0.175157
     7 z      -0.051484  0.170586 -0.208961 -0.002256 -0.108774 -0.253102
     8 x       0.196184 -0.122327 -0.148198  0.092842 -0.339274  0.118905
     8 y      -0.185138 -0.177063 -0.098932  0.197252 -0.223025  0.021319
     8 z      -0.051484  0.170586 -0.208961  0.398234  0.212628 -0.265152
     9 x       0.196184 -0.122327 -0.148198  0.031535  0.092898  0.000215
     9 y      -0.185138 -0.177063 -0.098932  0.094002 -0.179921  0.182991
     9 z      -0.051484  0.170586 -0.208961  0.176448  0.199393  0.137464
    10 x       0.196184 -0.122327 -0.148198 -0.207352 -0.164924 -0.091537
    10 y      -0.185138 -0.177063 -0.098932  0.167074 -0.093785 -0.199730
    10 z      -0.051484  0.170586 -0.208961  0.073918  0.089264  0.065902
    11 x       0.196184 -0.122327 -0.148198  0.245642  0.021962  0.141896
    11 y      -0.185138 -0.177063 -0.098932 -0.081705 -0.001820  0.208156
    11 z      -0.051484  0.170586 -0.208961  0.097621  0.003510 -0.179363
    12 x       0.196184 -0.122327 -0.148198  0.079089  0.277108 -0.005503
    12 y      -0.185138 -0.177063 -0.098932 -0.124779  0.055946  0.182730
    12 z      -0.051484  0.170586 -0.208961 -0.122778 -0.036609  0.150451


  Frequency     117.4883  117.5852  125.2739  125.4171  131.8114  140.7111
  IR Intensity    0.0000    0.0000    0.0160    0.0160    0.0419    0.0000
     in X         0.0000    0.0000    0.0009    0.0125    0.0070    0.0000
     in Y         0.0000    0.0000    0.0147    0.0013    0.0002    0.0000
     in Z         0.0000    0.0000    0.0004    0.0022    0.0347    0.0000
  Raman Intsty    0.0011    0.0000    0.0000    0.0000    0.0000    0.0000

     1 x      -0.103539  0.010118 -0.023198  0.061107  0.053623  0.019175
     1 y      -0.022957 -0.001226 -0.088718 -0.018457  0.009047 -0.003697
     1 z       0.226327 -0.006053 -0.014043  0.025851 -0.119635 -0.008464
     2 x       0.046460 -0.093827 -0.025176  0.080895  0.057971 -0.163637
     2 y       0.008043 -0.009388 -0.069514 -0.016401  0.010411 -0.021440
     2 z      -0.106138  0.196940 -0.017051  0.032575 -0.129450  0.364593
     3 x       0.054636  0.078293 -0.008572  0.073694  0.058108  0.153660
     3 y       0.008987  0.013069 -0.076061 -0.033529  0.010181  0.021201
     3 z      -0.120726 -0.193247 -0.009733  0.033179 -0.128451 -0.352862
     4 x       0.050937 -0.106418 -0.181682 -0.020565 -0.210711  0.189477
     4 y       0.032387 -0.034378  0.647395  0.361955 -0.033142  0.040348
     4 z      -0.126878  0.236415 -0.018697  0.042473  0.461077 -0.414228
     5 x      -0.118916  0.029997 -0.033377 -0.663995 -0.205808 -0.029907
     5 y      -0.026585 -0.007981 -0.066910  0.240820 -0.040573  0.006392
     5 z       0.265479  0.000389 -0.050584 -0.277564  0.453429  0.006906
     6 x      -0.157537 -0.229478  0.004648  0.102309  0.051913 -0.080884
     6 y       0.184332  0.330407 -0.116563 -0.061957  0.030645  0.089957
     6 z      -0.110198 -0.167613  0.015698  0.057805 -0.159471  0.209480
     7 x       0.088797  0.012047 -0.028008  0.064666  0.064801  0.128643
     7 y       0.461059 -0.023177 -0.166864 -0.016392 -0.009761 -0.051099
     7 z       0.183745 -0.000594 -0.068027  0.029760 -0.162379  0.063036
     8 x       0.081804  0.107377  0.450722 -0.214278 -0.203341 -0.180280
     8 y       0.027873  0.028306  0.394236 -0.317750 -0.036028 -0.038154
     8 z      -0.135227 -0.223365  0.242173 -0.146636  0.463423  0.400916
     9 x      -0.195920  0.350127 -0.041899  0.131741  0.044403  0.146553
     9 y      -0.029766  0.090322 -0.080567 -0.001572  0.009315  0.096947
     9 z      -0.140238  0.259091 -0.032794  0.097177 -0.164581 -0.175181
    10 x       0.222955 -0.430087 -0.068803  0.131430  0.092232  0.042039
    10 y       0.028439 -0.102817 -0.088260 -0.013385  0.016683 -0.067892
    10 z       0.055507 -0.106997 -0.015608  0.039421 -0.142067 -0.235224
    11 x      -0.170116 -0.016128 -0.043506  0.078007  0.076372 -0.134367
    11 y      -0.482342  0.027258 -0.141167 -0.023154  0.033315  0.049255
    11 z      -0.010209 -0.009257 -0.008837  0.032936 -0.152887 -0.047272
    12 x       0.200906  0.289018  0.009764  0.133653  0.087914 -0.092235
    12 y      -0.188334 -0.310867 -0.102106 -0.087071 -0.005772 -0.121065
    12 z       0.018657  0.014745 -0.014673  0.015469 -0.146658  0.187674


  Frequency     140.9759  172.0616  223.5365  244.7095  244.8244  271.4368
  IR Intensity    0.0000    0.0000    0.0002    0.0263    0.0264    0.0114
     in X         0.0000    0.0000    0.0002    0.0205    0.0013    0.0019
     in Y         0.0000    0.0000    0.0000    0.0021    0.0241    0.0001
     in Z         0.0000    0.0000    0.0000    0.0037    0.0010    0.0093
  Raman Intsty    0.0011    0.0000    0.0000    0.0000    0.0000    0.0000

     1 x       0.185646  0.272803  0.017345 -0.006557  0.078311 -0.052764
     1 y       0.032154 -0.097949 -0.006353  0.013487  0.286787 -0.013372
     1 z      -0.414269  0.115268  0.007343 -0.001988  0.059195  0.113757
     2 x      -0.087964 -0.062656  0.000185  0.237394  0.126700 -0.053744
     2 y      -0.019562  0.305265 -0.009526  0.058912  0.019992 -0.008414
     2 z       0.192026 -0.013404 -0.001831  0.110183  0.062162  0.113878
     3 x      -0.098976 -0.209445  0.004875  0.157695 -0.107773 -0.049376
     3 y      -0.021537 -0.207628  0.008695 -0.195642  0.114002 -0.010158
     3 z       0.215685 -0.101573  0.004474  0.056737 -0.036004  0.115691
     4 x       0.093379  0.075910 -0.003967  0.236016  0.149092  0.015165
     4 y       0.032962 -0.357780  0.005348  0.099091 -0.051643  0.003806
     4 z      -0.217175  0.012328 -0.000277  0.116440  0.061327 -0.038453
     5 x      -0.215646 -0.322749 -0.011487 -0.079691  0.083074  0.015959
     5 y      -0.045462  0.115813  0.004009  0.040050  0.295962 -0.000498
     5 z       0.477157 -0.136198 -0.004898 -0.032447  0.063856 -0.038440
     6 x       0.166238  0.149814 -0.269034 -0.144644  0.213341 -0.230294
     6 y       0.061245  0.144473 -0.270966  0.343160 -0.083146  0.297717
     6 z      -0.072438  0.077918 -0.146657 -0.134773  0.147577 -0.139111
     7 x      -0.131138 -0.201745  0.354911  0.133236 -0.078515 -0.076967
     7 y      -0.098695  0.072485 -0.127510 -0.063251 -0.416859 -0.361113
     7 z       0.212900 -0.085019  0.149358  0.050944 -0.183283 -0.124286
     8 x       0.121466  0.244916 -0.005565  0.135379 -0.157081  0.018941
     8 y       0.031112  0.242822 -0.002651 -0.231727  0.071071  0.002299
     8 z      -0.237839  0.123069 -0.004209  0.039829 -0.066247 -0.036875
     9 x       0.113918  0.045029  0.084751 -0.294914 -0.199180 -0.322751
     9 y      -0.112927 -0.223128 -0.400981 -0.145402  0.095682 -0.078726
     9 z      -0.092862  0.003694  0.003244 -0.243484 -0.137480 -0.211668
    10 x      -0.011060  0.050696 -0.089145 -0.369642 -0.228709  0.375285
    10 y       0.128269 -0.216639  0.399594 -0.158531  0.095693  0.080168
    10 z      -0.130331  0.006547 -0.004136 -0.077939 -0.044082  0.115871
    11 x      -0.078979 -0.191850 -0.354325  0.137668 -0.160667  0.125804
    11 y       0.055910  0.068630  0.127084 -0.066444 -0.420292  0.383388
    11 z       0.248833 -0.080843 -0.149059  0.060711  0.007795  0.028161
    12 x      -0.056636  0.149143  0.267160 -0.216397  0.262772  0.264616
    12 y      -0.041755  0.153694  0.274636  0.329912 -0.087887 -0.288974
    12 z      -0.180431  0.078156  0.144735  0.024180  0.048827  0.035680


  Frequency     294.6256  344.4476  344.4739  362.9939  363.1409  403.6513
  IR Intensity    0.0000    0.0001    0.0001    0.0032    0.0031    0.0000
     in X         0.0000    0.0000    0.0001    0.0025    0.0001    0.0000
     in Y         0.0000    0.0001    0.0000    0.0003    0.0028    0.0000
     in Z         0.0000    0.0000    0.0000    0.0004    0.0002    0.0000
  Raman Intsty    0.1816    0.0046    0.0000    0.0000    0.0000    1.2075

     1 x      -0.007111 -0.005557 -0.041167 -0.298343 -0.063594  0.068897
     1 y      -0.023653 -0.020518  0.013514  0.114050 -0.187835  0.239925
     1 z      -0.003203  0.003335 -0.017529 -0.125172 -0.039764  0.040597
     2 x       0.022425 -0.005234  0.011973  0.123276 -0.149446 -0.226350
     2 y       0.005169  0.024056  0.002561  0.195787  0.277715 -0.050915
     2 z       0.009600 -0.004937  0.000926  0.069638 -0.043621 -0.101422
     3 x      -0.015237  0.019263  0.009130 -0.014536  0.259549  0.157636
     3 y       0.018678  0.018202 -0.006721 -0.249264  0.114286 -0.188531
     3 z      -0.006372  0.005564  0.008132 -0.024901  0.127504  0.060902
     4 x       0.025898  0.014947  0.046558  0.228721 -0.112343 -0.389087
     4 y       0.005823 -0.001544  0.003393  0.029880 -0.067337 -0.088482
     4 z       0.011314 -0.036725 -0.063372  0.110161 -0.054246 -0.183938
     5 x      -0.008087 -0.042902 -0.000165  0.043288 -0.070721  0.112046
     5 y      -0.027339 -0.032395 -0.002621 -0.005555 -0.274057  0.415130
     5 z      -0.004093  0.073214  0.004442  0.019436 -0.061227  0.087508
     6 x       0.166894  0.163162  0.309096 -0.202432 -0.035133  0.131080
     6 y      -0.284979  0.271720  0.155386 -0.095693  0.015799 -0.061799
     6 z       0.242867  0.300136 -0.131747  0.337832  0.232016 -0.122852
     7 x       0.023653  0.140896  0.396994 -0.117719  0.159305  0.099341
     7 y       0.332217  0.081094 -0.135357  0.040631  0.003586  0.114721
     7 z       0.225944 -0.326362  0.147129 -0.035212 -0.389871 -0.138697
     8 x      -0.017814  0.015838 -0.015852  0.172087  0.069438  0.276821
     8 y       0.021519  0.000770 -0.014856 -0.166186 -0.139765 -0.327279
     8 z      -0.007213 -0.044302  0.071580  0.058831  0.021051  0.096290
     9 x      -0.253596  0.009085 -0.215345 -0.133418  0.057819 -0.161727
     9 y      -0.067797 -0.413621  0.159317  0.008407  0.131653 -0.036469
     9 z      -0.308859  0.127046  0.264424  0.349610 -0.208265  0.109945
    10 x      -0.401638 -0.130244 -0.019736  0.170102 -0.110972 -0.024442
    10 y      -0.080714  0.399907 -0.225801  0.108122  0.054930 -0.005994
    10 z       0.003345  0.150736  0.276865 -0.366065  0.169787 -0.188790
    11 x       0.167902  0.128600 -0.416376 -0.071077 -0.198050 -0.039288
    11 y       0.365768 -0.042903  0.149278  0.029736 -0.056067  0.082408
    11 z      -0.086375 -0.277916 -0.191349 -0.047610  0.417917  0.163703
    12 x       0.296697 -0.309479 -0.061264  0.136384  0.185236 -0.004960
    12 y      -0.264730 -0.288934 -0.099886 -0.021522  0.087964 -0.092806
    12 z      -0.076960  0.029452 -0.367878 -0.331132 -0.179735  0.176740


  Frequency     450.4619  450.5519  472.7257  482.1349  484.2413  486.7891
  IR Intensity    0.0372    0.0365    0.0001    0.0001    0.0002    0.0000
     in X         0.0022    0.0287    0.0000    0.0000    0.0001    0.0000
     in Y         0.0346    0.0025    0.0000    0.0001    0.0000    0.0000
     in Z         0.0004    0.0052    0.0000    0.0000    0.0000    0.0000
  Raman Intsty    0.0002    0.0000    0.0001    2.9668    0.0000    5.2658

     1 x      -0.059583  0.102631  0.349757  0.192285 -0.101750  0.113999
     1 y      -0.159006 -0.027271 -0.126553  0.070267  0.032351 -0.041194
     1 z       0.024219  0.039237  0.153264 -0.395689 -0.018636 -0.310322
     2 x      -0.037946  0.152053 -0.042976 -0.130542  0.207642 -0.006686
     2 y      -0.103052 -0.004021  0.407945 -0.031399 -0.057552 -0.003623
     2 z      -0.045283  0.022896 -0.117303  0.165825 -0.433459  0.163745
     3 x       0.000631  0.097283 -0.320549 -0.070578 -0.128019 -0.112406
     3 y      -0.123226 -0.073483 -0.275162 -0.061793  0.035310  0.031676
     3 z      -0.021188  0.087351 -0.041824  0.226094  0.442697  0.144555
     4 x      -0.149456  0.292794 -0.015241 -0.147747 -0.027502  0.186617
     4 y      -0.032641  0.067573  0.008594 -0.033306 -0.008733  0.042507
     4 z      -0.071855  0.138769 -0.005186 -0.073069 -0.005740  0.085768
     5 x      -0.094160  0.004028  0.010476  0.028159 -0.000827 -0.063683
     5 y      -0.351115  0.018287 -0.003343  0.113214  0.003298 -0.228946
     5 z      -0.075582  0.003495  0.004398  0.029706 -0.000440 -0.043836
     6 x       0.341151 -0.046236 -0.189874 -0.316833 -0.075099  0.039998
     6 y       0.220773 -0.182369 -0.128952  0.010011  0.231051 -0.098796
     6 z       0.015533 -0.222289 -0.040524  0.213125  0.273111 -0.180416
     7 x      -0.143601 -0.342691  0.319481  0.039058  0.164393  0.236645
     7 y      -0.106611  0.131690 -0.115376  0.056090 -0.068923  0.235043
     7 z       0.198330 -0.158451  0.134920 -0.015286  0.081151 -0.344300
     8 x       0.128448  0.195947 -0.018237  0.104896 -0.015191 -0.132676
     8 y      -0.149519 -0.233146  0.005072 -0.121658  0.025153  0.158579
     8 z       0.043532  0.067780 -0.008693  0.032933 -0.011761 -0.048846
     9 x      -0.140888  0.125131 -0.023504 -0.000642  0.233721 -0.320629
     9 y       0.344594  0.243975  0.297064  0.193114  0.067028  0.080497
     9 z       0.060870 -0.171458 -0.028093 -0.069355 -0.162747  0.244480
    10 x      -0.076880 -0.059781 -0.057097  0.035868  0.005338  0.040985
    10 y       0.389090  0.183254  0.219476 -0.126016 -0.197035 -0.108519
    10 z      -0.140871  0.190546 -0.068181  0.338903 -0.313906 -0.196104
    11 x       0.046511 -0.389551  0.189394  0.121135 -0.227671 -0.036473
    11 y      -0.042854  0.140678 -0.066382 -0.189885  0.087113 -0.002109
    11 z      -0.209399 -0.153704  0.084720 -0.461894 -0.080475  0.070822
    12 x       0.204342 -0.199057 -0.198991  0.146634 -0.030795  0.055284
    12 y       0.187403 -0.245088 -0.223576  0.125755 -0.150998 -0.062597
    12 z       0.229791  0.127181 -0.066373  0.009429  0.232008  0.414843


  Frequency     594.7890  624.2347  624.4357  802.8136  802.9982  906.3273
  IR Intensity    0.1898    0.1148    0.1150    0.0087    0.0087    0.0000
     in X         0.0334    0.0896    0.0047    0.0068    0.0004    0.0000
     in Y         0.0026    0.0090    0.1040    0.0007    0.0079    0.0000
     in Z         0.1538    0.0161    0.0063    0.0012    0.0003    0.0000
  Raman Intsty    0.0000    0.0000    0.0000    0.0000    0.0000    3.0584

     1 x      -0.179335  0.556683  0.015742 -0.116430 -0.161302 -0.129494
     1 y      -0.038228 -0.197998 -0.049846  0.064174 -0.588878 -0.483347
     1 z       0.396396  0.234290 -0.018820 -0.046812 -0.132160 -0.104460
     2 x      -0.175457  0.101171  0.110033  0.472968 -0.284961  0.453516
     2 y      -0.058822 -0.282854 -0.550627  0.174201  0.062322  0.102384
     2 z       0.396163  0.020261 -0.021297  0.231808 -0.126073  0.215752
     3 x      -0.193592  0.246938 -0.330749  0.286148  0.287444 -0.323960
     3 y      -0.051490  0.193899 -0.373798 -0.442990 -0.166727  0.381149
     3 z       0.388619  0.129333 -0.205029  0.087746  0.112359 -0.111240
     4 x       0.022770 -0.124775  0.059020 -0.381227  0.202944 -0.231036
     4 y       0.006037 -0.012785  0.042741 -0.088008  0.043589 -0.052521
     4 z      -0.026265 -0.057450  0.032025 -0.180142  0.095629 -0.109154
     5 x       0.019475 -0.029770  0.038200 -0.001864  0.124730  0.066437
     5 y       0.023583  0.005291  0.147232 -0.016875  0.461109  0.245928
     5 z      -0.026330 -0.012988  0.031579 -0.002322  0.096847  0.051718
     6 x       0.159185 -0.220305 -0.029956  0.007881  0.060379  0.020104
     6 y      -0.056902  0.035388  0.145628 -0.042989  0.032395 -0.007114
     6 z      -0.191220  0.143852  0.165453 -0.054851 -0.000838 -0.033179
     7 x       0.136006 -0.141694  0.139096 -0.065369 -0.034353  0.019656
     7 y       0.128815  0.042689  0.167497  0.024883 -0.031439  0.014322
     7 z      -0.213376 -0.049847 -0.201452 -0.029562  0.047344 -0.034196
     8 x       0.007236 -0.094235 -0.035069 -0.259779 -0.163906  0.164300
     8 y       0.012279  0.086724  0.080233  0.309359  0.190391 -0.194278
     8 z      -0.032753 -0.035128 -0.007262 -0.090385 -0.057431  0.057225
     9 x       0.199992 -0.239686  0.076070  0.035598 -0.040610 -0.026822
     9 y       0.039684  0.035009  0.149418  0.039697  0.061394 -0.001901
     9 z      -0.181639  0.152106 -0.072087 -0.035829  0.020202  0.030846
    10 x       0.007372 -0.042790 -0.013927 -0.006648 -0.014196  0.006850
    10 y      -0.002802  0.048827  0.143015  0.038955  0.061719 -0.002561
    10 z      -0.256187 -0.265720  0.155441  0.057258 -0.027970 -0.038838
    11 x       0.068949 -0.130329 -0.073840 -0.065519  0.013866 -0.012843
    11 y      -0.073814  0.043049  0.135397  0.024138 -0.021622  0.007122
    11 z      -0.226425 -0.065028  0.274606 -0.025211 -0.057737  0.036096
    12 x       0.032490 -0.054600  0.084660 -0.028922  0.040401 -0.006719
    12 y       0.100126  0.057754  0.149817 -0.045331  0.028607 -0.009217
    12 z      -0.253341 -0.267248 -0.086178  0.036035  0.057783  0.039419




--------------------------------------------------------------------------------
  Vibrational properties (for cluster):  Temperature  =       0.000 K
--------------------------------------------------------------------------------
  Zero point energy            =        0.703718 eV
--------------------------------------------------------------------------------

  Phonon density of states : 

--------------------------------------------------------------------------------
 Frequency (cm-1) Density of States                                             
--------------------------------------------------------------------------------
    0.00000 |************************************************************  0.118
   14.16137 |                                                              0.000
   28.32273 |                                                              0.000
   42.48410 |                                                              0.000
   56.64546 |                                                              0.000
   70.80683 |                                                              0.000
   84.96819 |                                                              0.000
   99.12956 |                                                              0.000
  113.29092 |************************************************************  0.118
  127.45229 |*********************************************                 0.088
  141.61365 |                                                              0.000
  155.77502 |                                                              0.000
  169.93638 |***************                                               0.029
  184.09775 |                                                              0.000
  198.25911 |                                                              0.000
  212.42048 |***************                                               0.029
  226.58184 |                                                              0.000
  240.74321 |******************************                                0.059
  254.90457 |                                                              0.000
  269.06594 |***************                                               0.029
  283.22730 |***************                                               0.029
  297.38867 |                                                              0.000
  311.55003 |                                                              0.000
  325.71140 |                                                              0.000
  339.87276 |******************************                                0.059
  354.03413 |******************************                                0.059
  368.19549 |                                                              0.000
  382.35686 |                                                              0.000
  396.51822 |***************                                               0.029
  410.67959 |                                                              0.000
  424.84095 |                                                              0.000
  439.00232 |******************************                                0.059
  453.16368 |                                                              0.000
  467.32505 |***************                                               0.029
  481.48641 |*********************************************                 0.088
  495.64778 |                                                              0.000
  509.80914 |                                                              0.000
  523.97051 |                                                              0.000
  538.13187 |                                                              0.000
  552.29324 |                                                              0.000
  566.45460 |                                                              0.000
  580.61597 |                                                              0.000
  594.77733 |***************                                               0.029
  608.93870 |                                                              0.000
  623.10006 |******************************                                0.059
  637.26143 |                                                              0.000
  651.42279 |                                                              0.000
  665.58416 |                                                              0.000
  679.74552 |                                                              0.000
  693.90689 |                                                              0.000
  708.06825 |                                                              0.000
  722.22962 |                                                              0.000
  736.39098 |                                                              0.000
  750.55235 |                                                              0.000
  764.71371 |                                                              0.000
  778.87508 |                                                              0.000
  793.03644 |******************************                                0.059
  807.19781 |                                                              0.000
  821.35917 |                                                              0.000
  835.52054 |                                                              0.000
  849.68190 |                                                              0.000
  863.84327 |                                                              0.000
  878.00463 |                                                              0.000
  892.16600 |***************                                               0.029
--------------------------------------------------------------------------------



  Time to end of optimisation =       0.0323 seconds


  Peak dynamic memory used =       0.65 MB 


  Timing analysis for GULP :

--------------------------------------------------------------------------------
  Task / Subroutine                                          Time (Seconds)
--------------------------------------------------------------------------------
  Calculation of real space energy and derivatives                0.0020
  Calculation of phonons                                          0.0017
  Calculation and manipulation of Hessian matrix                  0.0013
--------------------------------------------------------------------------------
  Total CPU time                                                  0.0323
--------------------------------------------------------------------------------


  Job Finished at 14:40.13 25th May        2022                               

