------------------------------------------------------------
          Invoking FHI-aims ...

          When using FHI-aims, please cite the following reference:

            Volker Blum, Ralf Gehrke, Felix Hanke, Paula Havu,
            Ville Havu, Xinguo Ren, Karsten Reuter, and Matthias Scheffler,
            'Ab Initio Molecular Simulations with Numeric Atom-Centered Orbitals',
            Computer Physics Communications 180, 2175-2196 (2009)

          In addition, many other developments in FHI-aims are likely important for
          your particular application. A partial list of references is given at the end of
          this file. Thank you for giving credit to the authors of these developments.

          For any questions about FHI-aims, please visit our slack channel at

            https://fhi-aims.slack.com

          and our main development and support site at

            https://aims-git.rz-berlin.mpg.de .

          The latter site, in particular, has a wiki to collect information, as well
          as an issue tracker to log discussions, suggest improvements, and report issues
          or bugs. https://aims-git.rz-berlin.mpg.de is also the main development site
          of the project and all new and updated code versions can be obtained there.
          Please send an email to aims-coordinators@fhi-berlin.mpg.de and we will add
          you to these sites. They are for you and everyone is welcome there.

------------------------------------------------------------



  Date     :  20220517, Time     :  121453.871
  Time zero on CPU 1             :   0.405040000000000E-01  s.
  Internal wall clock time zero  :           422021693.871  s.

  FHI-aims created a unique identifier for this run for later identification
  aims_uuid : 6E2E889B-2799-46A4-AA14-544B4F6A9957

  Build configuration of the current instance of FHI-aims
  -------------------------------------------------------
  FHI-aims version      : 210914
  Commit number         : GITDIR-NOTFOUND
  CMake host system     : Linux-3.10.0-693.17.1.el7.x86_64
  CMake version         : 3.21.1
  Fortran compiler      : /shared/ucl/apps/intel/2018.Update3/impi/2018.3.222/intel64/bin/mpiifort (Intel) version 18.0.3.20180410
  Fortran compiler flags: -O3 -ip -fp-model precise
  C compiler            : /shared/ucl/apps/intel/2018.Update3/compilers_and_libraries_2018.3.222/linux/bin/intel64/icc (Intel) version 18.0.3.20180410
  C compiler flags      : -O3 -ip -fp-model precise -std=gnu99
  ELPA2 kernel          : AVX2
  Using MPI
  Using ScaLAPACK
  Using LibXC
  Using i-PI
  Using RLSY
  Linking against: /shared/ucl/apps/intel/2019.Update5/compilers_and_libraries_2019.5.281/linux/mkl/lib/intel64/libmkl_intel_lp64.so
                   /shared/ucl/apps/intel/2019.Update5/compilers_and_libraries_2019.5.281/linux/mkl/lib/intel64/libmkl_sequential.so
                   /shared/ucl/apps/intel/2019.Update5/compilers_and_libraries_2019.5.281/linux/mkl/lib/intel64/libmkl_core.so
                   /shared/ucl/apps/intel/2019.Update5/compilers_and_libraries_2019.5.281/linux/mkl/lib/intel64/libmkl_blacs_intelmpi_lp64.so
                   /shared/ucl/apps/intel/2019.Update5/compilers_and_libraries_2019.5.281/linux/mkl/lib/intel64/libmkl_scalapack_lp64.so

  Using       24 parallel tasks.
  Task        0 on host node-k98a-018 reporting.
  Task        1 on host node-k98a-018 reporting.
  Task        2 on host node-k98a-018 reporting.
  Task        3 on host node-k98a-018 reporting.
  Task        4 on host node-k98a-018 reporting.
  Task        5 on host node-k98a-018 reporting.
  Task        6 on host node-k98a-018 reporting.
  Task        7 on host node-k98a-018 reporting.
  Task        8 on host node-k98a-018 reporting.
  Task        9 on host node-k98a-018 reporting.
  Task       10 on host node-k98a-018 reporting.
  Task       11 on host node-k98a-018 reporting.
  Task       12 on host node-k98a-018 reporting.
  Task       13 on host node-k98a-018 reporting.
  Task       14 on host node-k98a-018 reporting.
  Task       15 on host node-k98a-018 reporting.
  Task       16 on host node-k98a-018 reporting.
  Task       17 on host node-k98a-018 reporting.
  Task       18 on host node-k98a-018 reporting.
  Task       19 on host node-k98a-018 reporting.
  Task       20 on host node-k98a-018 reporting.
  Task       21 on host node-k98a-018 reporting.
  Task       22 on host node-k98a-018 reporting.
  Task       23 on host node-k98a-018 reporting.

  Performing system and environment tests:
  | Environment variable OMP_NUM_THREADS correctly set to 1.
  | Checking for ScaLAPACK...
  | Testing pdtran()...
  | All pdtran() tests passed.

  Obtaining array dimensions for all initial allocations:
  
  -----------------------------------------------------------------------
  Parsing control.in (first pass over file, find array dimensions only).
  The contents of control.in will be repeated verbatim below
  unless switched off by setting 'verbatim_writeout .false.' .
  in the first line of control.in .
  -----------------------------------------------------------------------
  
  #########################################################################################  Physical model
  #########################################################################################
  xc                 pbesol
  spin               none
  relativistic       atomic_zora scalar
  charge             0.0
  #  SCF convergence
  occupation_type    gaussian 0.01
  mixer              pulay
  n_max_pulay        10
  charge_mix_param   0.5
  sc_accuracy_rho    1E-5
  sc_accuracy_eev    1E-3
  sc_accuracy_etot   1E-6
  sc_accuracy_forces 1E-4
  sc_iter_limit      1500
  #  Relaxation
  #relax_geometry   bfgs 1.e-3
  
  ################################################################################
  #
  #  FHI-aims code project
  #  VB, Fritz-Haber Institut, 2009
  #
  #  Suggested "light" defaults for Al atom (to be pasted into control.in file)
  #  Be sure to double-check any results obtained with these settings for post-processing,
  #  e.g., with the "tight" defaults and larger basis sets.
  #
  ################################################################################
    species        Al
  #     global species definitions
      nucleus             13
      mass                26.9815386
  #
      l_hartree           4
  #
      cut_pot             3.5          1.5  1.0
      basis_dep_cutoff    1e-4
  #
      radial_base         41 5.0
      radial_multiplier   1
      angular_grids       specified
        division   0.6594  110
        division   0.8170  194
        division   0.9059  302
  #      division   1.0363  434
  #      division   1.1443  590
  #      division   1.2621  770
  #      division   2.8177  974
  #      outer_grid   974
        outer_grid   302
  ################################################################################
  #
  #  Definition of "minimal" basis
  #
  ################################################################################
  #     valence basis states
      valence      3  s   2.
      valence      3  p   1.
  #     ion occupancy
      ion_occ      3  s   1.
      ion_occ      2  p   6.
  ################################################################################
  #
  #  Suggested additional basis functions. For production calculations,
  #  uncomment them one after another (the most important basis functions are
  #  listed first).
  #
  #  Constructed for dimers: 2.0 A, 2.5 A, 3.0 A, 3.75 A, 4.5 A
  #
  ################################################################################
  #  "First tier" - improvements: -199.47 meV to -10.63 meV
       ionic 3 d auto
       ionic 3 p auto
  #     hydro 4 f 4.7
       ionic 3 s auto
  #  "Second tier" - improvements: -5.35 meV to -1.57 meV
  #     hydro 5 g 7
  #     hydro 3 d 6
  #     hydro 2 s 11.6
  #     hydro 2 p 0.9
  #  "Third tier" - improvements: -0.63 meV to -0.20 meV
  #     hydro 5 f 7.6
  #     hydro 4 p 7.2
  #     hydro 4 s 3.7
  #     hydro 4 d 7.6
  #  "Fourth tier" - improvements: -0.17 meV to -0.08 meV
  #     hydro 4 d 13.6
  #     hydro 5 g 11.2
  #     hydro 4 d 0.9
  #     hydro 1 s 0.4
  #     hydro 4 p 0.1
  #     hydro 5 f 9.8
  #  Further basis functions that fell out of the optimization - noise level...
  #     hydro 4 p 5
  
  ################################################################################
  #
  #  FHI-aims code project
  #  VB, Fritz-Haber Institut, 2009
  #
  #  Suggested "light" defaults for F atom (to be pasted into control.in file)
  #  Be sure to double-check any results obtained with these settings for post-processing,
  #  e.g., with the "tight" defaults and larger basis sets.
  #
  ################################################################################
    species        F
  #     global species definitions
      nucleus             9
      mass                18.9984032
  #
      l_hartree           4
  #
      cut_pot             3.5  1.5  1.0
      basis_dep_cutoff    1e-4
  #
      radial_base         37 5.0
      radial_multiplier   1
      angular_grids specified
        division   0.4014  110
        division   0.5291  194
        division   0.6019  302
  #      division   0.6814  434
  #      division   0.7989  590
  #      division   0.8965  770
  #      division   1.3427  974
  #      outer_grid   974
        outer_grid   302
  ################################################################################
  #
  #  Definition of "minimal" basis
  #
  ################################################################################
  #     valence basis states
      valence      2  s   2.
      valence      2  p   5.
  #     ion occupancy
      ion_occ      2  s   1.
      ion_occ      2  p   4.
  ################################################################################
  #
  #  Suggested additional basis functions. For production calculations,
  #  uncomment them one after another (the most important basis functions are
  #  listed first).
  #
  #  Constructed for dimers: 1.2 A, 1.418 A, 1.75 A, 2.25 A, 3.25 A
  #
  ################################################################################
  #  "First tier" - improvements: -149.44 meV to -45.88 meV
       hydro 2 p 1.7
       hydro 3 d 7.4
       hydro 3 s 6.8
  #  "Second tier" - improvements: -12.96 meV to -1.56 meV
  #     hydro 4 f 11.2
  #     ionic 2 p auto
  #     hydro 1 s 0.75
  #     hydro 4 d 8.8
  #     hydro 5 g 16.8
  #  "Third tier" - improvements: -0.58 meV to -0.05 meV
  #     hydro 3 p 6.2
  #     hydro 3 s 3.2
  #     hydro 4 f 9.6
  #     hydro 3 s 19.6
  #     hydro 4 d 8.6
  #     hydro 5 g 14.4
  # Further basis functions: -0.05 meV and below
  #     hydro 3 p 4.2
  
  -----------------------------------------------------------------------
  Completed first pass over input file control.in .
  -----------------------------------------------------------------------
  
  
  -----------------------------------------------------------------------
  Parsing geometry.in (first pass over file, find array dimensions only).
  The contents of geometry.in will be repeated verbatim below
  unless switched off by setting 'verbatim_writeout .false.' .
  in the first line of geometry.in .
  -----------------------------------------------------------------------
  
  atom -0.093811613 1.681409172 2.160761820 Al
  atom 2.519331896 2.621104625 1.771196175 Al
  atom 1.382647684 2.603524584 -0.658009054 Al
  atom 0.987124378 3.141526136 2.810519863 F
  atom -1.587324083 2.726009722 2.135857386 F
  atom -0.520016671 0.026361134 2.800015430 F
  atom 1.794971753 0.887893993 1.980138865 F
  atom 2.975929345 1.814946653 -0.042449416 F
  atom 1.127870409 2.935595933 -2.418044012 F
  atom 1.760712894 3.998284587 0.589862067 F
  atom 4.100824568 3.149793377 2.466258580 F
  atom -0.002069591 1.780024210 0.212774093 F
  
  -----------------------------------------------------------------------
  Completed first pass over input file geometry.in .
  -----------------------------------------------------------------------
  

  Basic array size parameters:
  | Number of species                 :        2
  | Number of atoms                   :       12
  | Max. basis fn. angular momentum   :        2
  | Max. atomic/ionic basis occupied n:        3
  | Max. number of basis fn. types    :        3
  | Max. radial fns per species/type  :        5
  | Max. logarithmic grid size        :     1340
  | Max. radial integration grid size :       41
  | Max. angular integration grid size:      302
  | Max. angular grid division number :        8
  | Radial grid for Hartree potential :     1340
  | Number of spin channels           :        1

------------------------------------------------------------
          Reading file control.in.
------------------------------------------------------------
  XC: Using PBEsol gradient-corrected functionals.
  Spin treatment: No spin polarisation.
  Scalar relativistic treatment of kinetic energy: on-site free-atom approximation to ZORA.
  Charge =   0.000000E+00: Neutral system requested explicitly.
  Occupation type: Gaussian broadening, width =   0.100000E-01 eV.
  Using pulay charge density mixing.
  Pulay mixing - number of memorized iterations:   10
  Charge density mixing - mixing parameter:     0.5000
  Convergence accuracy of self-consistent charge density:  0.1000E-04
  Convergence accuracy of sum of eigenvalues:  0.1000E-02
  Convergence accuracy of total energy:  0.1000E-05
  Convergence accuracy of forces:  0.1000E-03
  Maximum number of s.-c. iterations  :  1500
 
  Reading configuration options for species Al                  .
  | Found nuclear charge :  13.0000
  | Found atomic mass :    26.9815386000000      amu
  | Found l_max for Hartree potential  :   4
  | Found cutoff potl. onset [A], width [A], scale factor :    3.50000    1.50000    1.00000
  | Threshold for basis-dependent cutoff potential is   0.100000E-03
  | Found data for basic radial integration grid :    41 points, outermost radius =    5.000 A
  | Found multiplier for basic radial grid :   1
  | Found angular grid specification: user-specified.
  | Specified grid contains     4 separate shells.
  | Check grid settings after all constraints further below.
  | Found free-atom valence shell :  3 s   2.000
  | Found free-atom valence shell :  3 p   1.000
  | Found free-ion valence shell :  3 s   1.000
  | Found free-ion valence shell :  2 p   6.000
  | Found ionic basis function :  3 d , default cutoff radius.
  | Found ionic basis function :  3 p , default cutoff radius.
  | Found ionic basis function :  3 s , default cutoff radius.
  Species Al                  : Missing cutoff potential type.
  Defaulting to exp(1/x)/(1-x)^2 type cutoff potential.
  Species Al: No 'logarithmic' tag. Using default grid for free atom:
  | Default logarithmic grid data [bohr] : 0.1000E-03 0.1000E+03 0.1012E+01
  | Will include ionic basis functions of  2.0-fold positive Al                   ion.
  Species Al: On-site basis accuracy parameter (for Gram-Schmidt orthonormalisation) not specified.
  Using default value basis_acc =  0.1000000E-03.
  Species Al                  : Using default innermost maximum threshold i_radial=  2 for radial functions.
  Species Al                  : Default cutoff onset for free atom density etc. : 0.35000000E+01 AA.
  Species Al                  : Basic radial grid will be enhanced according to radial_multiplier =   1, to contain    41 grid points.
 
  Reading configuration options for species F                   .
  | Found nuclear charge :   9.0000
  | Found atomic mass :    18.9984032000000      amu
  | Found l_max for Hartree potential  :   4
  | Found cutoff potl. onset [A], width [A], scale factor :    3.50000    1.50000    1.00000
  | Threshold for basis-dependent cutoff potential is   0.100000E-03
  | Found data for basic radial integration grid :    37 points, outermost radius =    5.000 A
  | Found multiplier for basic radial grid :   1
  | Found angular grid specification: user-specified.
  | Specified grid contains     4 separate shells.
  | Check grid settings after all constraints further below.
  | Found free-atom valence shell :  2 s   2.000
  | Found free-atom valence shell :  2 p   5.000
  | Found free-ion valence shell :  2 s   1.000
  | Found free-ion valence shell :  2 p   4.000
  | Found hydrogenic basis function :  2 p   1.700
  | Found hydrogenic basis function :  3 d   7.400
  | Found hydrogenic basis function :  3 s   6.800
  Species F                   : Missing cutoff potential type.
  Defaulting to exp(1/x)/(1-x)^2 type cutoff potential.
  Species F : No 'logarithmic' tag. Using default grid for free atom:
  | Default logarithmic grid data [bohr] : 0.1000E-03 0.1000E+03 0.1012E+01
  Species F : On-site basis accuracy parameter (for Gram-Schmidt orthonormalisation) not specified.
  Using default value basis_acc =  0.1000000E-03.
  Species F                   : Using default innermost maximum threshold i_radial=  2 for radial functions.
  Species F                   : Default cutoff onset for free atom density etc. : 0.35000000E+01 AA.
  Species F                   : Basic radial grid will be enhanced according to radial_multiplier =   1, to contain    37 grid points.
 
  Finished reading input file 'control.in'.
 
------------------------------------------------------------


------------------------------------------------------------
          Reading geometry description geometry.in.
------------------------------------------------------------
  | The smallest distance between any two atoms is         1.80658313 AA.
  | The first atom of this pair is atom number                      2 .
  | The second atom of this pair is atom number                    11 .
  Input structure read successfully.
  The structure contains       12 atoms,  and a total of        120.000 electrons.

  Input geometry:
  | No unit cell requested.
  | Atomic structure:
  |       Atom                x [A]            y [A]            z [A]
  |    1: Species Al           -0.09381161        1.68140917        2.16076182
  |    2: Species Al            2.51933190        2.62110463        1.77119618
  |    3: Species Al            1.38264768        2.60352458       -0.65800905
  |    4: Species F             0.98712438        3.14152614        2.81051986
  |    5: Species F            -1.58732408        2.72600972        2.13585739
  |    6: Species F            -0.52001667        0.02636113        2.80001543
  |    7: Species F             1.79497175        0.88789399        1.98013887
  |    8: Species F             2.97592934        1.81494665       -0.04244942
  |    9: Species F             1.12787041        2.93559593       -2.41804401
  |   10: Species F             1.76071289        3.99828459        0.58986207
  |   11: Species F             4.10082457        3.14979338        2.46625858
  |   12: Species F            -0.00206959        1.78002421        0.21277409

 
  Finished reading input file 'control.in'.
 

------------------------------------------------------------
          Reading geometry description geometry.in.
------------------------------------------------------------
 
  Consistency checks for stacksize environment parameter are next.
 
  | Maximum stacksize for task 0: unlimited
  | Maximum stacksize for task 1: unlimited
  | Maximum stacksize for task 2: unlimited
  | Maximum stacksize for task 3: unlimited
  | Maximum stacksize for task 4: unlimited
  | Maximum stacksize for task 5: unlimited
  | Maximum stacksize for task 6: unlimited
  | Maximum stacksize for task 7: unlimited
  | Maximum stacksize for task 8: unlimited
  | Maximum stacksize for task 9: unlimited
  | Maximum stacksize for task 10: unlimited
  | Maximum stacksize for task 11: unlimited
  | Maximum stacksize for task 12: unlimited
  | Maximum stacksize for task 13: unlimited
  | Maximum stacksize for task 14: unlimited
  | Maximum stacksize for task 15: unlimited
  | Maximum stacksize for task 16: unlimited
  | Maximum stacksize for task 17: unlimited
  | Maximum stacksize for task 18: unlimited
  | Maximum stacksize for task 19: unlimited
  | Maximum stacksize for task 20: unlimited
  | Maximum stacksize for task 21: unlimited
  | Maximum stacksize for task 22: unlimited
  | Maximum stacksize for task 23: unlimited
  | Current stacksize for task 0: unlimited
  | Current stacksize for task 1: unlimited
  | Current stacksize for task 2: unlimited
  | Current stacksize for task 3: unlimited
  | Current stacksize for task 4: unlimited
  | Current stacksize for task 5: unlimited
  | Current stacksize for task 6: unlimited
  | Current stacksize for task 7: unlimited
  | Current stacksize for task 8: unlimited
  | Current stacksize for task 9: unlimited
  | Current stacksize for task 10: unlimited
  | Current stacksize for task 11: unlimited
  | Current stacksize for task 12: unlimited
  | Current stacksize for task 13: unlimited
  | Current stacksize for task 14: unlimited
  | Current stacksize for task 15: unlimited
  | Current stacksize for task 16: unlimited
  | Current stacksize for task 17: unlimited
  | Current stacksize for task 18: unlimited
  | Current stacksize for task 19: unlimited
  | Current stacksize for task 20: unlimited
  | Current stacksize for task 21: unlimited
  | Current stacksize for task 22: unlimited
  | Current stacksize for task 23: unlimited
 
  Consistency checks for the contents of control.in are next.
 
  MPI_IN_PLACE appears to work with this MPI implementation.
  | Keeping use_mpi_in_place .true. (see manual).
  Target number of points in a grid batch is not set. Defaulting to  100
  Method for grid partitioning is not set. Defaulting to parallel hash+maxmin partitioning.
  Batch size limit is not set. Defaulting to    200
  By default, will store active basis functions for each batch.
  If in need of memory, prune_basis_once .false. can be used to disable this option.
  communication_type for Hartree potential was not specified.
  Defaulting to calc_hartree .
  Pulay mixer: Number of initial linear mixing iterations not set.
  Defaulting to    0 iterations.
  Work space size for distributed Hartree potential not set.
  Defaulting to   0.200000E+03 MB.
  Algorithm-dependent basis array size parameters:
  | n_max_pulay                         :       10
  Presetting      1001 iterations before the initial mixing cycle
  is restarted anyway using the sc_init_iter criterion / keyword.
  Presetting a factor      1.000 between actual scf density residual
  and density convergence criterion sc_accuracy_rho below which sc_init_iter
  takes no effect.
  Geometry relaxation not requested: no relaxation will be performed.
  Forces evaluation will include force correction term due to incomplete self-consistency (default).
  Handling of forces: Unphysical translation and rotation will be removed from forces.
  No accuracy limit for integral partition fn. given. Defaulting to  0.1000E-14.
  No threshold value for u(r) in integrations given. Defaulting to  0.1000E-05.
  No accuracy for occupation numbers given. Defaulting to  0.1000E-12.
  No threshold value for occupation numbers given. Defaulting to  0.0000E+00.
  No accuracy for fermi level given. Defaulting to  0.1000E-19.
  Maximum # of iterations to find E_F not set. Defaulting to  200.
  Preferred method for the eigenvalue solver ('KS_method') not specified in 'control.in'.
  Calling BLACS routine to test compilation state
  Since ScaLAPACK support is enabled, defaulting to ELPA (via ELSI).
  Will not use alltoall communication since running on < 1024 CPUs.
  Threshold for basis singularities not set.
  Default threshold for basis singularities:  0.1000E-04
  partition_type (choice of integration weights) for integrals was not specified.
  | Using a version of the partition function of Stratmann and coworkers ('stratmann_sparse').
  | At each grid point, the set of atoms used to build the partition table is smoothly restricted to
  | only those atoms whose free-atom density would be non-zero at that grid point.
  Partitioning for Hartree potential was not defined. Using partition_type for integrals.
  | Adjusted default value of keyword multip_moments_threshold to:       0.10000000E-11
  | This value may affect high angular momentum components of the Hartree potential in periodic systems.
  No q(lm)/r^(l+1) cutoff set for long-range Hartree potential.
  | Using default value of  0.100000E-09 .
  | Verify using the multipole_threshold keyword.
  Defaulting to new monopole extrapolation.
  Density update method: automatic selection selected.
  Charge integration errors on the 3D integration grid will be compensated
  by explicit normalization and distribution of residual charges.
  Use the "compensate_multipole_errors" flag to change this behaviour.
  Set 'collect_eigenvectors' to be '.true.' for use_density_matrix .false.
 
  Consistency checks for the contents of geometry.in are next.
 
  Number of empty states per atom not set in control.in - providing a guess from actual geometry.
  | Total number of empty states used during s.c.f. cycle:       36
  If you use a very high smearing, use empty_states (per atom!) in control.in to increase this value.

  Structure-dependent array size parameters: 
  | Maximum number of distinct radial functions  :       14
  | Maximum number of basis functions            :      180
  | Number of Kohn-Sham states (occupied + empty):       96
------------------------------------------------------------

------------------------------------------------------------
          Preparing all fixed parts of the calculation.
------------------------------------------------------------
  Determining machine precision:
    2.225073858507201E-308
  Setting up grids for atomic and cluster calculations.

  Creating wave function, potential, and density for free atoms.

  Species: Al

  List of occupied orbitals and eigenvalues:
    n    l              occ      energy [Ha]    energy [eV]
    1    0           2.0000       -55.621123     -1513.5278
    2    0           2.0000        -3.957030      -107.6763
    3    0           2.0000        -0.272233        -7.4078
    2    1           6.0000        -2.540949       -69.1427
    3    1           1.0000        -0.083300        -2.2667


  Species: F

  List of occupied orbitals and eigenvalues:
    n    l              occ      energy [Ha]    energy [eV]
    1    0           2.0000       -24.399611      -663.9472
    2    0           2.0000        -1.098702       -29.8972
    2    1           5.0000        -0.408210       -11.1080


  Adding cutoff potential to free-atom effective potential.
  Creating fixed part of basis set: Ionic, confined, hydrogenic.
 
  Al                   ion:

  List of free ionic orbitals and eigenvalues:
    n    l      energy [Ha]    energy [eV]
    1    0       -56.418846     -1535.2349
    2    0        -4.732717      -128.7838
    3    0        -0.872690       -23.7471
    2    1        -3.317230       -90.2664


  List of ionic basis orbitals and eigenvalues:
    n    l      energy [Ha]    energy [eV]    outer radius [A]
    3    2        -0.346815        -9.4373       4.594041
    3    1        -0.631870       -17.1940       4.538221
    3    0        -0.872657       -23.7462       4.538221

 
  F                    hydrogenic:
 
  List of hydrogenic basis orbitals: 
    n    l      effective z      eigenvalue [eV]  inner max. [A]     outer max. [A]     outer radius [A]   
    2    1         1.700000        -9.7616           1.243167           1.243167           4.598524
    3    2         7.400000       -82.7828           0.642437           0.642437           3.305741
    3    0         6.800000       -69.9026           0.057798           1.022307           3.781556
 
  Creating atomic-like basis functions for current effective potential.

  Species Al                  :

  List of atomic basis orbitals and eigenvalues:
    n    l      energy [Ha]    energy [eV]    outer radius [A]
    1    0       -55.621123     -1513.5278       0.850197
    2    0        -3.957030      -107.6763       3.144911
    3    0        -0.272233        -7.4078       4.594041
    2    1        -2.540949       -69.1427       3.731966
    3    1        -0.083300        -2.2667       4.594041


  Species F                   :

  List of atomic basis orbitals and eigenvalues:
    n    l      energy [Ha]    energy [eV]    outer radius [A]
    1    0       -24.399611      -663.9472       1.258458
    2    0        -1.098702       -29.8972       4.325857
    2    1        -0.408210       -11.1080       4.487453

  Assembling full basis from fixed parts.
  | Species Al :   atomic orbital   1 s accepted.
  | Species Al :   atomic orbital   2 s accepted.
  | Species Al :    ionic orbital   3 s accepted.
  | Species Al :   atomic orbital   3 s accepted.
  | Species Al :   atomic orbital   2 p accepted.
  | Species Al :    ionic orbital   3 p accepted.
  | Species Al :   atomic orbital   3 p accepted.
  | Species Al :    ionic orbital   3 d accepted.
  | Species F :   atomic orbital   1 s accepted.
  | Species F :    hydro orbital   3 s accepted.
  | Species F :   atomic orbital   2 s accepted.
  | Species F :   atomic orbital   2 p accepted.
  | Species F :    hydro orbital   2 p accepted.
  | Species F :    hydro orbital   3 d accepted.
 
  Basis size parameters after reduction:
  | Total number of radial functions:       14
  | Total number of basis functions :      180
 
  Per-task memory consumption for arrays in subroutine allocate_ext:
  |           4.807768MB.
  Testing on-site integration grid accuracy.
  |  Species  Function  <phi|h_atom|phi> (log., in eV)  <phi|h_atom|phi> (rad., in eV)
           1        1              -1513.5277717935              -1513.5271881332
           1        2               -107.6762691836               -107.6762662489
           1        3                 -6.9467474784                 -6.9471269649
           1        4                  5.5771951849                  5.4862107220 ***
           1        5                -69.1427313144                -69.1427312731
           1        6                 -1.5197375330                 -1.5230432022
           1        7                  6.8210948310                  6.5529872240 ***
           1        8                  4.3216540965                  4.2851170187 ***
           2        9               -663.9471986398               -663.9470363334
           2       10                 16.8514011578                 16.8512525338
           2       11                -28.4490593856                -28.4490661472
           2       12                -11.1080115307                -11.1080620173
           2       13                  7.1940182175                  7.1685154137
           2       14                 44.8544281765                 44.8543763625
 * Note: Onsite integrals marked "***" above are less accurate than
 * onsite_accuracy_threshold =    0.03000 eV. Usually, this is harmless.
 * When in doubt, tighten the "radial" and/or "radial_multiplier" flags to check.

  Preparing densities etc. for the partition functions (integrals / Hartree potential).

  Preparations completed.
  max(cpu_time)          :      0.184 s.
  Wall clock time (cpu1) :      0.184 s.
------------------------------------------------------------

------------------------------------------------------------
          Begin self-consistency loop: Initialization.

          Date     :  20220517, Time     :  121454.100
------------------------------------------------------------

  Initializing index lists of integration centers etc. from given atomic structure:
  | Number of centers in hartree potential         :        12
  | Number of centers in hartree multipole         :        12
  | Number of centers in electron density summation:        12
  | Number of centers in basis integrals           :        12
  | Number of centers in integrals                 :        12
  | Number of centers in hamiltonian               :        12
  * Using 24 tasks for Scalapack Eigenvalue solver.
  Detailed listing of tasks and assigned k-points:
  (for non-periodic systems, the "k-point" denotes an internal label only)
   Task     0 k-point     1 on node-k98a-018
   Task     1 k-point     1 on node-k98a-018
   Task     2 k-point     1 on node-k98a-018
   Task     3 k-point     1 on node-k98a-018
   Task     4 k-point     1 on node-k98a-018
   Task     5 k-point     1 on node-k98a-018
   Task     6 k-point     1 on node-k98a-018
   Task     7 k-point     1 on node-k98a-018
   Task     8 k-point     1 on node-k98a-018
   Task     9 k-point     1 on node-k98a-018
   Task    10 k-point     1 on node-k98a-018
   Task    11 k-point     1 on node-k98a-018
   Task    12 k-point     1 on node-k98a-018
   Task    13 k-point     1 on node-k98a-018
   Task    14 k-point     1 on node-k98a-018
   Task    15 k-point     1 on node-k98a-018
   Task    16 k-point     1 on node-k98a-018
   Task    17 k-point     1 on node-k98a-018
   Task    18 k-point     1 on node-k98a-018
   Task    19 k-point     1 on node-k98a-018
   Task    20 k-point     1 on node-k98a-018
   Task    21 k-point     1 on node-k98a-018
   Task    22 k-point     1 on node-k98a-018
   Task    23 k-point     1 on node-k98a-018
  Tasks:    24 split into      6 X      4 BLACS grid
  Calculating block size based on n_basis =          180  max_nprow =            6  max_npcol =            4
  ScaLAPACK block size set to:           16
  Allocating        0.012 MB for ovlp
  Allocating        0.012 MB for ham
  Allocating        0.012 MB for eigenvec
  Required Scalapack workspace - INTEGER:            1  REAL:             1
  Partitioning the integration grid into batches with parallel hashing+maxmin method.
  | Number of batches:     1025
  | Maximal batch size:     200
  | Minimal batch size:      18
  | Average batch size:      89.678
  | Standard deviation of batch sizes:      25.879

  Integration load balanced across    24 MPI tasks.
  Work distribution over tasks is as follows:
  Task     0 has       3780 integration points.
  Task     1 has       3775 integration points.
  Task     2 has       3795 integration points.
  Task     3 has       3907 integration points.
  Task     4 has       3788 integration points.
  Task     5 has       3915 integration points.
  Task     6 has       3863 integration points.
  Task     7 has       3851 integration points.
  Task     8 has       3791 integration points.
  Task     9 has       3858 integration points.
  Task    10 has       3780 integration points.
  Task    11 has       3854 integration points.
  Task    12 has       3864 integration points.
  Task    13 has       3835 integration points.
  Task    14 has       3855 integration points.
  Task    15 has       3861 integration points.
  Task    16 has       3857 integration points.
  Task    17 has       3773 integration points.
  Task    18 has       3782 integration points.
  Task    19 has       3780 integration points.
  Task    20 has       3859 integration points.
  Task    21 has       3787 integration points.
  Task    22 has       3841 integration points.
  Task    23 has       3869 integration points.
  Initializing partition tables, free-atom densities, potentials, etc. across the integration grid (initialize_grid_storage).
  | initialize_grid_storage: Actual outermost partition radius vs. multipole_radius_free
  | (-- VB: in principle, multipole_radius_free should be larger, hence this output)
  | Species        1: Confinement radius =              4.999999999999999 AA, multipole_radius_free =              5.004487022111096 AA.
  | Species        1: outer_partition_radius set to              5.004487022111096 AA .
  | Species        2: Confinement radius =              4.999999999999999 AA, multipole_radius_free =              5.009370088163274 AA.
  | Species        2: outer_partition_radius set to              5.009370088163274 AA .
  | The sparse table of interatomic distances needs          1.64 kbyte instead of         1.15 kbyte of memory.
  | Using the partition_type stratmann_smoother will reduce your memory usage.
  | Net number of integration points:    91920
  | of which are non-zero points    :    85091
  Renormalizing the initial density to the exact electron count on the 3D integration grid.
  | Initial density: Formal number of electrons (from input files) :     120.0000000000
  | Integrated number of electrons on 3D grid     :     119.9997403147
  | Charge integration error                      :      -0.0002596853
  | Normalization factor for density and gradient :       1.0000021640
  Renormalizing the free-atom superposition density to the exact electron count on the 3D integration grid.
  | Formal number of electrons (from input files) :     120.0000000000
  | Integrated number of electrons on 3D grid     :     119.9997403147
  | Charge integration error                      :      -0.0002596853
  | Normalization factor for density and gradient :       1.0000021640
  Obtaining max. number of non-zero basis functions in each batch (get_n_compute_maxes).
  | Maximal number of non-zero basis functions:      164 in task     0
  | Maximal number of non-zero basis functions:      165 in task     1
  | Maximal number of non-zero basis functions:      167 in task     2
  | Maximal number of non-zero basis functions:      163 in task     3
  | Maximal number of non-zero basis functions:      170 in task     4
  | Maximal number of non-zero basis functions:      166 in task     5
  | Maximal number of non-zero basis functions:      171 in task     6
  | Maximal number of non-zero basis functions:      173 in task     7
  | Maximal number of non-zero basis functions:      164 in task     8
  | Maximal number of non-zero basis functions:      170 in task     9
  | Maximal number of non-zero basis functions:      165 in task    10
  | Maximal number of non-zero basis functions:      173 in task    11
  | Maximal number of non-zero basis functions:      167 in task    12
  | Maximal number of non-zero basis functions:      171 in task    13
  | Maximal number of non-zero basis functions:      167 in task    14
  | Maximal number of non-zero basis functions:      170 in task    15
  | Maximal number of non-zero basis functions:      164 in task    16
  | Maximal number of non-zero basis functions:      165 in task    17
  | Maximal number of non-zero basis functions:      171 in task    18
  | Maximal number of non-zero basis functions:      164 in task    19
  | Maximal number of non-zero basis functions:      170 in task    20
  | Maximal number of non-zero basis functions:      164 in task    21
  | Maximal number of non-zero basis functions:      165 in task    22
  | Maximal number of non-zero basis functions:      166 in task    23
  Selecting the method for density update.
  Loop over occupied states selected for charge density update.
  Allocating        0.132 MB for KS_eigenvector
  Integrating Hamiltonian matrix: batch-based integration.
  Time summed over all CPUs for integration: real work        0.760 s, elapsed        0.810 s
  Integrating overlap matrix.
  Time summed over all CPUs for integration: real work        0.290 s, elapsed        0.306 s
  Deallocating overlap matrix.

  Updating Kohn-Sham eigenvalues and eigenvectors using ELSI and the ELPA eigensolver.
  Overlap matrix is not singular
  | Lowest and highest eigenvalues :  0.3094E-02,  0.5741E+01
  Finished singularity check of overlap matrix
  | Time :     0.003 s
  Starting ELPA eigensolver
  Finished Cholesky decomposition
  | Time :     0.004 s
  Finished transformation to standard eigenproblem
  | Time :     0.000 s
  Finished solving standard eigenproblem
  | Time :     0.004 s
  Finished back-transformation of eigenvectors
  | Time :     0.000 s

  Obtaining occupation numbers and chemical potential using ELSI.
  | Chemical potential (Fermi level):    -7.34683076 eV
  Writing Kohn-Sham eigenvalues.

  State    Occupation    Eigenvalue [Ha]    Eigenvalue [eV]
      1       2.00000         -55.485976        -1509.85022
      2       2.00000         -55.484827        -1509.81895
      3       2.00000         -55.484044        -1509.79765
      4       2.00000         -24.365105         -663.00825
      5       2.00000         -24.357634         -662.80493
      6       2.00000         -24.355922         -662.75835
      7       2.00000         -24.353640         -662.69625
      8       2.00000         -24.351958         -662.65048
      9       2.00000         -24.341684         -662.37093
     10       2.00000         -24.341376         -662.36253
     11       2.00000         -24.339841         -662.32077
     12       2.00000         -24.339604         -662.31433
     13       2.00000          -3.951584         -107.52806
     14       2.00000          -3.950173         -107.48968
     15       2.00000          -3.949228         -107.46396
     16       2.00000          -2.544656          -69.24360
     17       2.00000          -2.543569          -69.21403
     18       2.00000          -2.543020          -69.19909
     19       2.00000          -2.542607          -69.18786
     20       2.00000          -2.541814          -69.16627
     21       2.00000          -2.541679          -69.16261
     22       2.00000          -2.541490          -69.15746
     23       2.00000          -2.540797          -69.13860
     24       2.00000          -2.540090          -69.11937
     25       2.00000          -1.191589          -32.42479
     26       2.00000          -1.182126          -32.16728
     27       2.00000          -1.175374          -31.98356
     28       2.00000          -1.171072          -31.86649
     29       2.00000          -1.161819          -31.61469
     30       2.00000          -1.150561          -31.30837
     31       2.00000          -1.150046          -31.29435
     32       2.00000          -1.149133          -31.26951
     33       2.00000          -1.145529          -31.17143
     34       2.00000          -0.560951          -15.26424
     35       2.00000          -0.558240          -15.19048
     36       2.00000          -0.544285          -14.81075
     37       2.00000          -0.522802          -14.22616
     38       2.00000          -0.520483          -14.16306
     39       2.00000          -0.510929          -13.90310
     40       2.00000          -0.507760          -13.81685
     41       2.00000          -0.503090          -13.68978
     42       2.00000          -0.498598          -13.56753
     43       2.00000          -0.495552          -13.48467
     44       2.00000          -0.489870          -13.33004
     45       2.00000          -0.488223          -13.28523
     46       2.00000          -0.479271          -13.04164
     47       2.00000          -0.474273          -12.90562
     48       2.00000          -0.472839          -12.86660
     49       2.00000          -0.466786          -12.70188
     50       2.00000          -0.465852          -12.67648
     51       2.00000          -0.460606          -12.53374
     52       2.00000          -0.454309          -12.36238
     53       2.00000          -0.453176          -12.33154
     54       2.00000          -0.452487          -12.31280
     55       2.00000          -0.451979          -12.29897
     56       2.00000          -0.451305          -12.28065
     57       2.00000          -0.450189          -12.25027
     58       2.00000          -0.445445          -12.12119
     59       2.00000          -0.444199          -12.08727
     60       2.00000          -0.439698          -11.96480
     61       0.00000          -0.142699           -3.88305
     62       0.00000          -0.087484           -2.38057
     63       0.00000          -0.069697           -1.89654
     64       0.00000          -0.032997           -0.89790
     65       0.00000          -0.021471           -0.58426
     66       0.00000           0.002256            0.06138
     67       0.00000           0.020610            0.56083
     68       0.00000           0.030657            0.83421
     69       0.00000           0.051315            1.39634
     70       0.00000           0.074231            2.01992
     71       0.00000           0.077830            2.11787
     72       0.00000           0.116362            3.16638
     73       0.00000           0.149153            4.05865
     74       0.00000           0.162240            4.41476
     75       0.00000           0.169924            4.62386
     76       0.00000           0.179157            4.87512
     77       0.00000           0.193532            5.26628
     78       0.00000           0.197752            5.38111
     79       0.00000           0.210924            5.73954
     80       0.00000           0.215696            5.86940
     81       0.00000           0.224960            6.12148
     82       0.00000           0.226925            6.17495
     83       0.00000           0.238348            6.48577
     84       0.00000           0.241923            6.58306
     85       0.00000           0.259668            7.06593
     86       0.00000           0.266227            7.24440
     87       0.00000           0.270258            7.35409
     88       0.00000           0.278130            7.56829
     89       0.00000           0.279186            7.59704
     90       0.00000           0.292993            7.97276
     91       0.00000           0.297584            8.09766
     92       0.00000           0.337140            9.17405
     93       0.00000           0.340201            9.25733
     94       0.00000           0.360652            9.81384
     95       0.00000           0.373105           10.15271
     96       0.00000           0.384744           10.46941

  Highest occupied state (VBM) at    -11.96479600 eV
  | Occupation number:      2.00000000

  Lowest unoccupied state (CBM) at    -3.88304773 eV
  | Occupation number:      0.00000000

  Overall HOMO-LUMO gap:      8.08174827 eV.
  Calculating total energy contributions from superposition of free atom densities.

  Total energy components:
  | Sum of eigenvalues            :        -887.74552754 Ha      -24156.78488804 eV
  | XC energy correction          :        -144.40141843 Ha       -3929.36251926 eV
  | XC potential correction       :         188.02269902 Ha        5116.35795765 eV
  | Free-atom electrostatic energy:        -781.23211820 Ha      -21258.40755217 eV
  | Hartree energy correction     :           0.00000000 Ha           0.00000000 eV
  | Entropy correction            :           0.00000000 Ha           0.00000000 eV
  | ---------------------------
  | Total energy                  :       -1625.35636516 Ha      -44228.19700181 eV
  | Total energy, T -> 0          :       -1625.35636516 Ha      -44228.19700181 eV  <-- do not rely on this value for anything but (periodic) metals
  | Electronic free energy        :       -1625.35636516 Ha      -44228.19700181 eV

  Derived energy quantities:
  | Kinetic energy                :        1627.75219152 Ha       44293.39075420 eV
  | Electrostatic energy          :       -3108.70713825 Ha      -84592.22523675 eV
  | Energy correction for multipole
  | error in Hartree potential    :           0.00000000 Ha           0.00000000 eV
  | Sum of eigenvalues per atom                           :       -2013.06540734 eV
  | Total energy (T->0) per atom                          :       -3685.68308348 eV  <-- do not rely on this value for anything but (periodic) metals
  | Electronic free energy per atom                       :       -3685.68308348 eV
  Initialize hartree_potential_storage
  Max. number of atoms included in rho_multipole:           12

  End scf initialization - timings             :  max(cpu_time)    wall_clock(cpu1)
  | Time for scf. initialization                :        0.124 s           0.124 s
  | Boundary condition initialization           :        0.000 s           0.000 s
  | Integration                                 :        0.048 s           0.048 s
  | Solution of K.-S. eqns.                     :        0.013 s           0.013 s
  | Grid partitioning                           :        0.039 s           0.039 s
  | Preloading free-atom quantities on grid     :        0.016 s           0.017 s
  | Free-atom superposition energy              :        0.005 s           0.005 s
  | Total energy evaluation                     :        0.000 s           0.000 s

  Partial memory accounting:
  | Current value for overall tracked memory usage:
  |   Minimum:        0.273 MB (on task 23)
  |   Maximum:        0.292 MB (on task  0)
  |   Average:        0.287 MB
  | Peak value for overall tracked memory usage:
  |   Minimum:        1.360 MB (on task  3 after allocating wave)
  |   Maximum:        1.431 MB (on task  7 after allocating wave)
  |   Average:        1.395 MB
  | Largest tracked array allocation so far:
  |   Minimum:        0.249 MB (H_times_psi on task  3)
  |   Maximum:        0.551 MB (all_coords on task 14)
  |   Average:        0.276 MB
  Note:  These values currently only include a subset of arrays which are explicitly tracked.
  The "true" memory usage will be greater.
------------------------------------------------------------
  Evaluating new KS density.
  Integration grid: deviation in total charge (<rho> - N_e) =   4.263256E-14

  Time for density update prior                :  max(cpu_time)    wall_clock(cpu1)
  | self-consistency iterative process          :        0.029 s           0.029 s

------------------------------------------------------------
          Begin self-consistency iteration #    1

  Date     :  20220517, Time     :  121454.253
------------------------------------------------------------
  Pulay mixing of updated and previous charge densities.
  Renormalizing the density to the exact electron count on the 3D integration grid.
  | Formal number of electrons (from input files) :     120.0000000000
  | Integrated number of electrons on 3D grid     :     120.0000000000
  | Charge integration error                      :       0.0000000000
  | Normalization factor for density and gradient :       1.0000000000

  Evaluating partitioned Hartree potential by multipole expansion.
  | Original multipole sum: apparent total charge =   0.548960E-13
  | Sum of charges compensated after spline to logarithmic grids =   0.839890E-04
  | Analytical far-field extrapolation by fixed multipoles:
  | Hartree multipole sum: apparent total charge =   0.539336E-13
  Summing up the Hartree potential.
  Time summed over all CPUs for potential: real work        0.381 s, elapsed        0.392 s
  | RMS charge density error from multipole expansion :   0.109850E-01

  Integrating Hamiltonian matrix: batch-based integration.
  Time summed over all CPUs for integration: real work        0.705 s, elapsed        0.734 s

  Updating Kohn-Sham eigenvalues and eigenvectors using ELSI and the ELPA eigensolver.
  Starting ELPA eigensolver
  Finished transformation to standard eigenproblem
  | Time :     0.000 s
  Finished solving standard eigenproblem
  | Time :     0.004 s
  Finished back-transformation of eigenvectors
  | Time :     0.000 s

  Obtaining occupation numbers and chemical potential using ELSI.
  | Chemical potential (Fermi level):    -7.29538236 eV
  Writing Kohn-Sham eigenvalues.

  State    Occupation    Eigenvalue [Ha]    Eigenvalue [eV]
      1       2.00000         -55.676485        -1515.03423
      2       2.00000         -55.660078        -1514.58778
      3       2.00000         -55.619921        -1513.49504
      4       2.00000         -24.248602         -659.83802
      5       2.00000         -24.230374         -659.34202
      6       2.00000         -24.215848         -658.94674
      7       2.00000         -24.204148         -658.62838
      8       2.00000         -24.186990         -658.16147
      9       2.00000         -24.091077         -655.55156
     10       2.00000         -24.075303         -655.12234
     11       2.00000         -24.039516         -654.14850
     12       2.00000         -24.035638         -654.04300
     13       2.00000          -4.115198         -111.98024
     14       2.00000          -4.098618         -111.52908
     15       2.00000          -4.058816         -110.44600
     16       2.00000          -2.708101          -73.69118
     17       2.00000          -2.707824          -73.68365
     18       2.00000          -2.707726          -73.68098
     19       2.00000          -2.692348          -73.26252
     20       2.00000          -2.691094          -73.22841
     21       2.00000          -2.690425          -73.21020
     22       2.00000          -2.652630          -72.18172
     23       2.00000          -2.652015          -72.16501
     24       2.00000          -2.649669          -72.10116
     25       2.00000          -1.169121          -31.81341
     26       2.00000          -1.154446          -31.41407
     27       2.00000          -1.134625          -30.87472
     28       2.00000          -1.130129          -30.75238
     29       2.00000          -1.106840          -30.11864
     30       2.00000          -1.036243          -28.19761
     31       2.00000          -1.021375          -27.79303
     32       2.00000          -0.990936          -26.96474
     33       2.00000          -0.984903          -26.80056
     34       2.00000          -0.558933          -15.20934
     35       2.00000          -0.547781          -14.90589
     36       2.00000          -0.523703          -14.25068
     37       2.00000          -0.498308          -13.55964
     38       2.00000          -0.491036          -13.36178
     39       2.00000          -0.478972          -13.03349
     40       2.00000          -0.476724          -12.97231
     41       2.00000          -0.472918          -12.86875
     42       2.00000          -0.457787          -12.45703
     43       2.00000          -0.450185          -12.25015
     44       2.00000          -0.434367          -11.81972
     45       2.00000          -0.423988          -11.53730
     46       2.00000          -0.416638          -11.33729
     47       2.00000          -0.411624          -11.20086
     48       2.00000          -0.400114          -10.88766
     49       2.00000          -0.391058          -10.64122
     50       2.00000          -0.382471          -10.40756
     51       2.00000          -0.366335           -9.96849
     52       2.00000          -0.346143           -9.41903
     53       2.00000          -0.345128           -9.39141
     54       2.00000          -0.333202           -9.06689
     55       2.00000          -0.330743           -8.99997
     56       2.00000          -0.329128           -8.95602
     57       2.00000          -0.305115           -8.30259
     58       2.00000          -0.303100           -8.24778
     59       2.00000          -0.292658           -7.96363
     60       2.00000          -0.283901           -7.72535
     61       0.00000          -0.161987           -4.40790
     62       0.00000          -0.100413           -2.73237
     63       0.00000          -0.065931           -1.79407
     64       0.00000          -0.060694           -1.65156
     65       0.00000          -0.053541           -1.45693
     66       0.00000          -0.016465           -0.44804
     67       0.00000           0.017437            0.47449
     68       0.00000           0.026447            0.71966
     69       0.00000           0.036960            1.00574
     70       0.00000           0.061099            1.66260
     71       0.00000           0.089249            2.42858
     72       0.00000           0.098176            2.67150
     73       0.00000           0.144769            3.93936
     74       0.00000           0.155045            4.21899
     75       0.00000           0.160331            4.36282
     76       0.00000           0.163450            4.44771
     77       0.00000           0.182027            4.95321
     78       0.00000           0.192128            5.22807
     79       0.00000           0.199676            5.43347
     80       0.00000           0.215519            5.86456
     81       0.00000           0.217119            5.90810
     82       0.00000           0.225411            6.13376
     83       0.00000           0.232803            6.33490
     84       0.00000           0.234773            6.38851
     85       0.00000           0.247021            6.72177
     86       0.00000           0.249569            6.79112
     87       0.00000           0.257333            7.00239
     88       0.00000           0.268545            7.30748
     89       0.00000           0.279351            7.60153
     90       0.00000           0.286371            7.79254
     91       0.00000           0.289751            7.88453
     92       0.00000           0.337537            9.18485
     93       0.00000           0.350681            9.54252
     94       0.00000           0.368162           10.01819
     95       0.00000           0.381120           10.37081
     96       0.00000           0.388916           10.58294

  Highest occupied state (VBM) at     -7.72534798 eV
  | Occupation number:      2.00000000

  Lowest unoccupied state (CBM) at    -4.40790041 eV
  | Occupation number:      0.00000000

  Overall HOMO-LUMO gap:      3.31744757 eV.

  Total energy components:
  | Sum of eigenvalues            :        -882.97824364 Ha      -24027.06049281 eV
  | XC energy correction          :        -145.68696124 Ha       -3964.34391894 eV
  | XC potential correction       :         189.71236101 Ha        5162.33599984 eV
  | Free-atom electrostatic energy:        -781.23211820 Ha      -21258.40755217 eV
  | Hartree energy correction     :          -4.95663573 Ha        -134.87692074 eV
  | Entropy correction            :           0.00000000 Ha           0.00000000 eV
  | ---------------------------
  | Total energy                  :       -1625.14159781 Ha      -44222.35288482 eV
  | Total energy, T -> 0          :       -1625.14159781 Ha      -44222.35288482 eV  <-- do not rely on this value for anything but (periodic) metals
  | Electronic free energy        :       -1625.14159781 Ha      -44222.35288482 eV

  Derived energy quantities:
  | Kinetic energy                :        1633.87983872 Ha       44460.13251823 eV
  | Electrostatic energy          :       -3113.33447529 Ha      -84718.14148411 eV
  | Energy correction for multipole
  | error in Hartree potential    :           0.03343217 Ha           0.90973572 eV
  | Sum of eigenvalues per atom                           :       -2002.25504107 eV
  | Total energy (T->0) per atom                          :       -3685.19607374 eV  <-- do not rely on this value for anything but (periodic) metals
  | Electronic free energy per atom                       :       -3685.19607374 eV
  Evaluating new KS density.
  Integration grid: deviation in total charge (<rho> - N_e) =   2.842171E-14

  Self-consistency convergence accuracy:
  | Change of charge density      :  0.5897E+00
  | Change of sum of eigenvalues  :  0.1297E+03 eV
  | Change of total energy        :  0.5844E+01 eV


------------------------------------------------------------
  End self-consistency iteration #     1       :  max(cpu_time)    wall_clock(cpu1)
  | Time for this iteration                     :        0.083 s           0.083 s
  | Charge density update                       :        0.028 s           0.028 s
  | Density mixing                              :        0.001 s           0.000 s
  | Hartree multipole update                    :        0.001 s           0.002 s
  | Hartree multipole summation                 :        0.017 s           0.017 s
  | Integration                                 :        0.031 s           0.031 s
  | Solution of K.-S. eqns.                     :        0.005 s           0.004 s
  | Total energy evaluation                     :        0.000 s           0.000 s

  Partial memory accounting:
  | Current value for overall tracked memory usage:
  |   Minimum:        0.273 MB (on task 23)
  |   Maximum:        0.292 MB (on task  0)
  |   Average:        0.287 MB
  | Peak value for overall tracked memory usage:
  |   Minimum:        1.360 MB (on task  3 after allocating wave)
  |   Maximum:        1.431 MB (on task  7 after allocating wave)
  |   Average:        1.395 MB
  | Largest tracked array allocation so far:
  |   Minimum:        0.746 MB (gradient_basis_wave on task  3)
  |   Maximum:        0.792 MB (gradient_basis_wave on task  7)
  |   Average:        0.766 MB
  Note:  These values currently only include a subset of arrays which are explicitly tracked.
  The "true" memory usage will be greater.
------------------------------------------------------------

------------------------------------------------------------
          Begin self-consistency iteration #    2

  Date     :  20220517, Time     :  121454.342
------------------------------------------------------------
  Pulay mixing of updated and previous charge densities.
  Renormalizing the density to the exact electron count on the 3D integration grid.
  | Formal number of electrons (from input files) :     120.0000000000
  | Integrated number of electrons on 3D grid     :     120.0000000000
  | Charge integration error                      :      -0.0000000000
  | Normalization factor for density and gradient :       1.0000000000

  Evaluating partitioned Hartree potential by multipole expansion.
  | Original multipole sum: apparent total charge =   0.181039E-13
  | Sum of charges compensated after spline to logarithmic grids =   0.445691E-04
  | Analytical far-field extrapolation by fixed multipoles:
  | Hartree multipole sum: apparent total charge =   0.185559E-13
  Summing up the Hartree potential.
  Time summed over all CPUs for potential: real work        0.379 s, elapsed        0.390 s
  | RMS charge density error from multipole expansion :   0.128016E-01

  Integrating Hamiltonian matrix: batch-based integration.
  Time summed over all CPUs for integration: real work        0.705 s, elapsed        0.738 s

  Updating Kohn-Sham eigenvalues and eigenvectors using ELSI and the ELPA eigensolver.
  Starting ELPA eigensolver
  Finished transformation to standard eigenproblem
  | Time :     0.000 s
  Finished solving standard eigenproblem
  | Time :     0.003 s
  Finished back-transformation of eigenvectors
  | Time :     0.001 s

  Obtaining occupation numbers and chemical potential using ELSI.
  | Chemical potential (Fermi level):    -7.54494797 eV
  Highest occupied state (VBM) at     -8.75908222 eV
  | Occupation number:      2.00000000

  Lowest unoccupied state (CBM) at    -4.63478751 eV
  | Occupation number:      0.00000000

  Overall HOMO-LUMO gap:      4.12429471 eV.

  Checking to see if s.c.f. parameters should be adjusted.

  Total energy components:
  | Sum of eigenvalues            :        -885.85044227 Ha      -24105.21699407 eV
  | XC energy correction          :        -145.21811862 Ha       -3951.58606204 eV
  | XC potential correction       :         189.09556369 Ha        5145.55209072 eV
  | Free-atom electrostatic energy:        -781.23211820 Ha      -21258.40755217 eV
  | Hartree energy correction     :          -1.87817416 Ha         -51.10771929 eV
  | Entropy correction            :           0.00000000 Ha           0.00000000 eV
  | ---------------------------
  | Total energy                  :       -1625.08328956 Ha      -44220.76623684 eV
  | Total energy, T -> 0          :       -1625.08328956 Ha      -44220.76623684 eV  <-- do not rely on this value for anything but (periodic) metals
  | Electronic free energy        :       -1625.08328956 Ha      -44220.76623684 eV

  Derived energy quantities:
  | Kinetic energy                :        1630.12029642 Ha       44357.83016711 eV
  | Electrostatic energy          :       -3109.98546737 Ha      -84627.01034191 eV
  | Energy correction for multipole
  | error in Hartree potential    :           0.03738669 Ha           1.01734359 eV
  | Sum of eigenvalues per atom                           :       -2008.76808284 eV
  | Total energy (T->0) per atom                          :       -3685.06385307 eV  <-- do not rely on this value for anything but (periodic) metals
  | Electronic free energy per atom                       :       -3685.06385307 eV
  Evaluating new KS density.
  Integration grid: deviation in total charge (<rho> - N_e) =   0.000000E+00

  Self-consistency convergence accuracy:
  | Change of charge density      :  0.4535E+00
  | Change of sum of eigenvalues  : -0.7816E+02 eV
  | Change of total energy        :  0.1587E+01 eV


------------------------------------------------------------
  End self-consistency iteration #     2       :  max(cpu_time)    wall_clock(cpu1)
  | Time for this iteration                     :        0.086 s           0.083 s
  | Charge density update                       :        0.028 s           0.028 s
  | Density mixing                              :        0.004 s           0.001 s
  | Hartree multipole update                    :        0.001 s           0.002 s
  | Hartree multipole summation                 :        0.017 s           0.016 s
  | Integration                                 :        0.031 s           0.032 s
  | Solution of K.-S. eqns.                     :        0.004 s           0.004 s
  | Total energy evaluation                     :        0.000 s           0.000 s

  Partial memory accounting:
  | Current value for overall tracked memory usage:
  |   Minimum:        0.274 MB (on task 23)
  |   Maximum:        0.293 MB (on task  0)
  |   Average:        0.288 MB
  | Peak value for overall tracked memory usage:
  |   Minimum:        1.360 MB (on task  3 after allocating wave)
  |   Maximum:        1.431 MB (on task  7 after allocating wave)
  |   Average:        1.395 MB
  | Largest tracked array allocation so far:
  |   Minimum:        0.746 MB (gradient_basis_wave on task  3)
  |   Maximum:        0.792 MB (gradient_basis_wave on task  7)
  |   Average:        0.766 MB
  Note:  These values currently only include a subset of arrays which are explicitly tracked.
  The "true" memory usage will be greater.
------------------------------------------------------------

------------------------------------------------------------
          Begin self-consistency iteration #    3

  Date     :  20220517, Time     :  121454.432
------------------------------------------------------------
  Pulay mixing of updated and previous charge densities.
  Renormalizing the density to the exact electron count on the 3D integration grid.
  | Formal number of electrons (from input files) :     120.0000000000
  | Integrated number of electrons on 3D grid     :     120.0000000000
  | Charge integration error                      :      -0.0000000000
  | Normalization factor for density and gradient :       1.0000000000

  Evaluating partitioned Hartree potential by multipole expansion.
  | Original multipole sum: apparent total charge =  -0.102465E-14
  | Sum of charges compensated after spline to logarithmic grids =   0.539267E-04
  | Analytical far-field extrapolation by fixed multipoles:
  | Hartree multipole sum: apparent total charge =  -0.213770E-14
  Summing up the Hartree potential.
  Time summed over all CPUs for potential: real work        0.380 s, elapsed        0.390 s
  | RMS charge density error from multipole expansion :   0.174143E-01

  Integrating Hamiltonian matrix: batch-based integration.
  Time summed over all CPUs for integration: real work        0.704 s, elapsed        0.738 s

  Updating Kohn-Sham eigenvalues and eigenvectors using ELSI and the ELPA eigensolver.
  Starting ELPA eigensolver
  Finished transformation to standard eigenproblem
  | Time :     0.000 s
  Finished solving standard eigenproblem
  | Time :     0.003 s
  Finished back-transformation of eigenvectors
  | Time :     0.000 s

  Obtaining occupation numbers and chemical potential using ELSI.
  | Chemical potential (Fermi level):    -7.53713643 eV
  Highest occupied state (VBM) at     -8.39431727 eV
  | Occupation number:      2.00000000

  Lowest unoccupied state (CBM) at    -4.86758018 eV
  | Occupation number:      0.00000000

  Overall HOMO-LUMO gap:      3.52673709 eV.

  Total energy components:
  | Sum of eigenvalues            :        -886.78651213 Ha      -24130.68875109 eV
  | XC energy correction          :        -145.18314618 Ha       -3950.63441366 eV
  | XC potential correction       :         189.04839896 Ha        5144.26867327 eV
  | Free-atom electrostatic energy:        -781.23211820 Ha      -21258.40755217 eV
  | Hartree energy correction     :          -0.92888948 Ha         -25.27636886 eV
  | Entropy correction            :           0.00000000 Ha           0.00000000 eV
  | ---------------------------
  | Total energy                  :       -1625.08226704 Ha      -44220.73841251 eV
  | Total energy, T -> 0          :       -1625.08226704 Ha      -44220.73841251 eV  <-- do not rely on this value for anything but (periodic) metals
  | Electronic free energy        :       -1625.08226704 Ha      -44220.73841251 eV

  Derived energy quantities:
  | Kinetic energy                :        1628.45418139 Ha       44312.49287056 eV
  | Electrostatic energy          :       -3108.35330225 Ha      -84582.59686942 eV
  | Energy correction for multipole
  | error in Hartree potential    :           0.05031176 Ha           1.36905259 eV
  | Sum of eigenvalues per atom                           :       -2010.89072926 eV
  | Total energy (T->0) per atom                          :       -3685.06153438 eV  <-- do not rely on this value for anything but (periodic) metals
  | Electronic free energy per atom                       :       -3685.06153438 eV
  Evaluating new KS density.
  Integration grid: deviation in total charge (<rho> - N_e) =  -1.421085E-14

  Self-consistency convergence accuracy:
  | Change of charge density      :  0.1227E+00
  | Change of sum of eigenvalues  : -0.2547E+02 eV
  | Change of total energy        :  0.2782E-01 eV


------------------------------------------------------------
  End self-consistency iteration #     3       :  max(cpu_time)    wall_clock(cpu1)
  | Time for this iteration                     :        0.085 s           0.082 s
  | Charge density update                       :        0.028 s           0.028 s
  | Density mixing                              :        0.004 s           0.001 s
  | Hartree multipole update                    :        0.001 s           0.001 s
  | Hartree multipole summation                 :        0.017 s           0.017 s
  | Integration                                 :        0.031 s           0.031 s
  | Solution of K.-S. eqns.                     :        0.004 s           0.004 s
  | Total energy evaluation                     :        0.000 s           0.000 s

  Partial memory accounting:
  | Current value for overall tracked memory usage:
  |   Minimum:        0.274 MB (on task 23)
  |   Maximum:        0.293 MB (on task  0)
  |   Average:        0.288 MB
  | Peak value for overall tracked memory usage:
  |   Minimum:        1.360 MB (on task  3 after allocating wave)
  |   Maximum:        1.431 MB (on task  7 after allocating wave)
  |   Average:        1.395 MB
  | Largest tracked array allocation so far:
  |   Minimum:        0.746 MB (gradient_basis_wave on task  3)
  |   Maximum:        0.792 MB (gradient_basis_wave on task  7)
  |   Average:        0.766 MB
  Note:  These values currently only include a subset of arrays which are explicitly tracked.
  The "true" memory usage will be greater.
------------------------------------------------------------

------------------------------------------------------------
          Begin self-consistency iteration #    4

  Date     :  20220517, Time     :  121454.521
------------------------------------------------------------
  Pulay mixing of updated and previous charge densities.
  Renormalizing the density to the exact electron count on the 3D integration grid.
  | Formal number of electrons (from input files) :     120.0000000000
  | Integrated number of electrons on 3D grid     :     120.0000000000
  | Charge integration error                      :       0.0000000000
  | Normalization factor for density and gradient :       1.0000000000

  Evaluating partitioned Hartree potential by multipole expansion.
  | Original multipole sum: apparent total charge =   0.218197E-13
  | Sum of charges compensated after spline to logarithmic grids =   0.573950E-04
  | Analytical far-field extrapolation by fixed multipoles:
  | Hartree multipole sum: apparent total charge =   0.207620E-13
  Summing up the Hartree potential.
  Time summed over all CPUs for potential: real work        0.380 s, elapsed        0.390 s
  | RMS charge density error from multipole expansion :   0.194347E-01

  Integrating Hamiltonian matrix: batch-based integration.
  Time summed over all CPUs for integration: real work        0.705 s, elapsed        0.737 s

  Updating Kohn-Sham eigenvalues and eigenvectors using ELSI and the ELPA eigensolver.
  Starting ELPA eigensolver
  Finished transformation to standard eigenproblem
  | Time :     0.001 s
  Finished solving standard eigenproblem
  | Time :     0.003 s
  Finished back-transformation of eigenvectors
  | Time :     0.000 s

  Obtaining occupation numbers and chemical potential using ELSI.
  | Chemical potential (Fermi level):    -7.53039108 eV
  Highest occupied state (VBM) at     -8.38598492 eV
  | Occupation number:      2.00000000

  Lowest unoccupied state (CBM) at    -4.84661689 eV
  | Occupation number:      0.00000000

  Overall HOMO-LUMO gap:      3.53936802 eV.

  Total energy components:
  | Sum of eigenvalues            :        -886.90128718 Ha      -24133.81193909 eV
  | XC energy correction          :        -145.16755835 Ha       -3950.21024710 eV
  | XC potential correction       :         189.02727168 Ha        5143.69377055 eV
  | Free-atom electrostatic energy:        -781.23211820 Ha      -21258.40755217 eV
  | Hartree energy correction     :          -0.80647785 Ha         -21.94537882 eV
  | Entropy correction            :           0.00000000 Ha           0.00000000 eV
  | ---------------------------
  | Total energy                  :       -1625.08016991 Ha      -44220.68134663 eV
  | Total energy, T -> 0          :       -1625.08016991 Ha      -44220.68134663 eV  <-- do not rely on this value for anything but (periodic) metals
  | Electronic free energy        :       -1625.08016991 Ha      -44220.68134663 eV

  Derived energy quantities:
  | Kinetic energy                :        1627.80371213 Ha       44294.79270139 eV
  | Electrostatic energy          :       -3107.71632369 Ha      -84565.26380091 eV
  | Energy correction for multipole
  | error in Hartree potential    :           0.05550667 Ha           1.51041331 eV
  | Sum of eigenvalues per atom                           :       -2011.15099492 eV
  | Total energy (T->0) per atom                          :       -3685.05677889 eV  <-- do not rely on this value for anything but (periodic) metals
  | Electronic free energy per atom                       :       -3685.05677889 eV
  Evaluating new KS density.
  Integration grid: deviation in total charge (<rho> - N_e) =   4.263256E-14

  Self-consistency convergence accuracy:
  | Change of charge density      :  0.8110E-01
  | Change of sum of eigenvalues  : -0.3123E+01 eV
  | Change of total energy        :  0.5707E-01 eV


------------------------------------------------------------
  End self-consistency iteration #     4       :  max(cpu_time)    wall_clock(cpu1)
  | Time for this iteration                     :        0.085 s           0.083 s
  | Charge density update                       :        0.028 s           0.028 s
  | Density mixing                              :        0.004 s           0.001 s
  | Hartree multipole update                    :        0.001 s           0.001 s
  | Hartree multipole summation                 :        0.017 s           0.017 s
  | Integration                                 :        0.031 s           0.031 s
  | Solution of K.-S. eqns.                     :        0.004 s           0.004 s
  | Total energy evaluation                     :        0.000 s           0.001 s

  Partial memory accounting:
  | Current value for overall tracked memory usage:
  |   Minimum:        0.274 MB (on task 23)
  |   Maximum:        0.293 MB (on task  0)
  |   Average:        0.288 MB
  | Peak value for overall tracked memory usage:
  |   Minimum:        1.360 MB (on task  3 after allocating wave)
  |   Maximum:        1.431 MB (on task  7 after allocating wave)
  |   Average:        1.395 MB
  | Largest tracked array allocation so far:
  |   Minimum:        0.746 MB (gradient_basis_wave on task  3)
  |   Maximum:        0.792 MB (gradient_basis_wave on task  7)
  |   Average:        0.766 MB
  Note:  These values currently only include a subset of arrays which are explicitly tracked.
  The "true" memory usage will be greater.
------------------------------------------------------------

------------------------------------------------------------
          Begin self-consistency iteration #    5

  Date     :  20220517, Time     :  121454.609
------------------------------------------------------------
  Pulay mixing of updated and previous charge densities.
  Renormalizing the density to the exact electron count on the 3D integration grid.
  | Formal number of electrons (from input files) :     120.0000000000
  | Integrated number of electrons on 3D grid     :     120.0000000000
  | Charge integration error                      :       0.0000000000
  | Normalization factor for density and gradient :       1.0000000000

  Evaluating partitioned Hartree potential by multipole expansion.
  | Original multipole sum: apparent total charge =   0.654500E-13
  | Sum of charges compensated after spline to logarithmic grids =   0.582780E-04
  | Analytical far-field extrapolation by fixed multipoles:
  | Hartree multipole sum: apparent total charge =   0.653039E-13
  Summing up the Hartree potential.
  Time summed over all CPUs for potential: real work        0.380 s, elapsed        0.391 s
  | RMS charge density error from multipole expansion :   0.192585E-01

  Integrating Hamiltonian matrix: batch-based integration.
  Time summed over all CPUs for integration: real work        0.704 s, elapsed        0.738 s

  Updating Kohn-Sham eigenvalues and eigenvectors using ELSI and the ELPA eigensolver.
  Starting ELPA eigensolver
  Finished transformation to standard eigenproblem
  | Time :     0.000 s
  Finished solving standard eigenproblem
  | Time :     0.003 s
  Finished back-transformation of eigenvectors
  | Time :     0.000 s

  Obtaining occupation numbers and chemical potential using ELSI.
  | Chemical potential (Fermi level):    -7.52223708 eV
  Highest occupied state (VBM) at     -8.47241482 eV
  | Occupation number:      2.00000000

  Lowest unoccupied state (CBM) at    -4.78356905 eV
  | Occupation number:      0.00000000

  Overall HOMO-LUMO gap:      3.68884577 eV.

  Total energy components:
  | Sum of eigenvalues            :        -886.71547465 Ha      -24128.75572289 eV
  | XC energy correction          :        -145.16486814 Ha       -3950.13704282 eV
  | XC potential correction       :         189.02389643 Ha        5143.60192539 eV
  | Free-atom electrostatic energy:        -781.23211820 Ha      -21258.40755217 eV
  | Hartree energy correction     :          -0.99148047 Ha         -26.97955639 eV
  | Entropy correction            :           0.00000000 Ha           0.00000000 eV
[...]
   Total forces(   7)            : -0.197105E+00  0.245021E+01 -0.134369E+00
  atom #    8
   Hellmann-Feynman              :  0.826094E+00 -0.804614E+00  0.517585E+00
   Ionic forces                  :  0.000000E+00  0.000000E+00  0.000000E+00
   Multipole                     :  0.424833E+00 -0.254416E+00 -0.912817E-02
   Hartree pot. SCF incomplete   :  0.752415E-05 -0.456531E-05 -0.566888E-05
   Pulay + GGA                   : -0.319630E+01  0.250090E+01 -0.323947E+00
   ----------------------------------------------------------------
   Total forces(   8)            : -0.194536E+01  0.144187E+01  0.184504E+00
  atom #    9
   Hellmann-Feynman              : -0.490075E+00  0.583379E+00 -0.322927E+01
   Ionic forces                  :  0.000000E+00  0.000000E+00  0.000000E+00
   Multipole                     : -0.121429E+00  0.176410E+00 -0.867977E+00
   Hartree pot. SCF incomplete   : -0.215158E-05  0.630856E-06 -0.299503E-05
   Pulay + GGA                   :  0.113714E+01 -0.140312E+01  0.751596E+01
   ----------------------------------------------------------------
   Total forces(   9)            :  0.525631E+00 -0.643328E+00  0.341871E+01
  atom #   10
   Hellmann-Feynman              : -0.455835E+00  0.665773E+00  0.629938E+00
   Ionic forces                  :  0.000000E+00  0.000000E+00  0.000000E+00
   Multipole                     :  0.573580E-03  0.480243E+00  0.895145E-01
   Hartree pot. SCF incomplete   : -0.240102E-05  0.115407E-04 -0.305983E-05
   Pulay + GGA                   :  0.582080E+00 -0.345857E+01 -0.151379E+01
   ----------------------------------------------------------------
   Total forces(  10)            :  0.126816E+00 -0.231254E+01 -0.794338E+00
  atom #   11
   Hellmann-Feynman              :  0.305683E+01  0.103822E+01  0.121816E+01
   Ionic forces                  :  0.000000E+00  0.000000E+00  0.000000E+00
   Multipole                     :  0.745384E+00  0.293194E+00  0.261023E+00
   Hartree pot. SCF incomplete   :  0.169091E-05  0.131714E-05  0.200374E-05
   Pulay + GGA                   : -0.670852E+01 -0.231954E+01 -0.275465E+01
   ----------------------------------------------------------------
   Total forces(  11)            : -0.290630E+01 -0.988123E+00 -0.127546E+01
  atom #   12
   Hellmann-Feynman              : -0.278476E+00 -0.238084E+00  0.292781E+00
   Ionic forces                  :  0.000000E+00  0.000000E+00  0.000000E+00
   Multipole                     : -0.349500E+00 -0.303612E+00  0.133275E+00
   Hartree pot. SCF incomplete   : -0.706153E-05 -0.111513E-05 -0.385390E-05
   Pulay + GGA                   :  0.210372E+01  0.120524E+01 -0.661109E+00
   ----------------------------------------------------------------
   Total forces(  12)            :  0.147574E+01  0.663548E+00 -0.235057E+00


  Self-consistency convergence accuracy:
  | Change of charge density      :  0.1105E-05
  | Change of sum of eigenvalues  : -0.3418E-04 eV
  | Change of total energy        :  0.6524E-07 eV
  | Change of forces              :  0.1848E-05 eV/A

  Writing Kohn-Sham eigenvalues.

  State    Occupation    Eigenvalue [Ha]    Eigenvalue [eV]
      1       2.00000         -55.666878        -1514.77282
      2       2.00000         -55.641552        -1514.08367
      3       2.00000         -55.595001        -1512.81695
      4       2.00000         -24.315947         -661.67058
      5       2.00000         -24.313457         -661.60283
      6       2.00000         -24.305312         -661.38119
      7       2.00000         -24.280954         -660.71839
      8       2.00000         -24.273144         -660.50586
      9       2.00000         -24.244339         -659.72203
     10       2.00000         -24.217228         -658.98430
     11       2.00000         -24.170616         -657.71593
     12       2.00000         -24.165133         -657.56673
     13       2.00000          -4.119444         -112.09578
     14       2.00000          -4.093343         -111.38554
     15       2.00000          -4.046419         -110.10865
     16       2.00000          -2.712566          -73.81267
     17       2.00000          -2.711289          -73.77792
     18       2.00000          -2.709241          -73.72219
     19       2.00000          -2.686410          -73.10093
     20       2.00000          -2.684921          -73.06042
     21       2.00000          -2.683471          -73.02096
     22       2.00000          -2.640914          -71.86292
     23       2.00000          -2.638081          -71.78583
     24       2.00000          -2.634763          -71.69554
     25       2.00000          -1.189975          -32.38087
     26       2.00000          -1.179636          -32.09953
     27       2.00000          -1.163673          -31.66515
     28       2.00000          -1.149305          -31.27418
     29       2.00000          -1.128624          -30.71141
     30       2.00000          -1.091253          -29.69450
     31       2.00000          -1.064543          -28.96769
     32       2.00000          -1.018763          -27.72196
     33       2.00000          -1.012315          -27.54650
     34       2.00000          -0.578168          -15.73275
     35       2.00000          -0.565112          -15.37748
     36       2.00000          -0.544290          -14.81089
     37       2.00000          -0.519770          -14.14365
     38       2.00000          -0.516280          -14.04870
     39       2.00000          -0.497700          -13.54310
     40       2.00000          -0.497226          -13.53020
     41       2.00000          -0.494576          -13.45810
     42       2.00000          -0.480624          -13.07843
     43       2.00000          -0.473484          -12.88417
     44       2.00000          -0.460935          -12.54268
     45       2.00000          -0.451624          -12.28932
     46       2.00000          -0.448858          -12.21404
     47       2.00000          -0.438059          -11.92018
     48       2.00000          -0.433697          -11.80151
     49       2.00000          -0.421939          -11.48154
     50       2.00000          -0.413153          -11.24245
     51       2.00000          -0.396982          -10.80244
     52       2.00000          -0.395825          -10.77095
     53       2.00000          -0.388624          -10.57499
     54       2.00000          -0.370576          -10.08390
     55       2.00000          -0.369629          -10.05812
     56       2.00000          -0.359496           -9.78237
     57       2.00000          -0.330016           -8.98020
     58       2.00000          -0.326700           -8.88995
     59       2.00000          -0.318303           -8.66146
     60       2.00000          -0.310343           -8.44486
     61       0.00000          -0.175878           -4.78587
     62       0.00000          -0.113491           -3.08825
     63       0.00000          -0.074785           -2.03500
     64       0.00000          -0.063677           -1.73274
     65       0.00000          -0.061691           -1.67870
     66       0.00000          -0.022846           -0.62167
     67       0.00000           0.012935            0.35199
     68       0.00000           0.021612            0.58810
     69       0.00000           0.035590            0.96844
     70       0.00000           0.058931            1.60360
     71       0.00000           0.086389            2.35076
     72       0.00000           0.095802            2.60691
     73       0.00000           0.135917            3.69848
     74       0.00000           0.147945            4.02580
     75       0.00000           0.151988            4.13580
     76       0.00000           0.159405            4.33763
     77       0.00000           0.176655            4.80702
     78       0.00000           0.186529            5.07571
     79       0.00000           0.196818            5.35568
     80       0.00000           0.210824            5.73681
     81       0.00000           0.214712            5.84261
     82       0.00000           0.219936            5.98476
     83       0.00000           0.227671            6.19526
     84       0.00000           0.230400            6.26950
     85       0.00000           0.243599            6.62866
     86       0.00000           0.246842            6.71690
     87       0.00000           0.249633            6.79285
     88       0.00000           0.260902            7.09951
     89       0.00000           0.278406            7.57581
     90       0.00000           0.284095            7.73061
     91       0.00000           0.284929            7.75331
     92       0.00000           0.336227            9.14919
     93       0.00000           0.343585            9.34944
     94       0.00000           0.360927            9.82133
     95       0.00000           0.370914           10.09307
     96       0.00000           0.380462           10.35289

  Highest occupied state (VBM) at     -8.44485987 eV
  | Occupation number:      2.00000000

  Lowest unoccupied state (CBM) at    -4.78587486 eV
  | Occupation number:      0.00000000

  Overall HOMO-LUMO gap:      3.65898500 eV.
  | Chemical Potential                          :    -7.51968036 eV

  Self-consistency cycle converged.


------------------------------------------------------------
  End self-consistency iteration #    13       :  max(cpu_time)    wall_clock(cpu1)
  | Time for this iteration                     :        0.273 s           0.270 s
  | Charge density & force component update     :        0.152 s           0.151 s
  | Density mixing                              :        0.005 s           0.002 s
  | Hartree multipole update                    :        0.001 s           0.001 s
  | Hartree multipole summation                 :        0.048 s           0.048 s
  | Hartree pot. SCF incomplete forces          :        0.031 s           0.031 s
  | Integration                                 :        0.031 s           0.031 s
  | Solution of K.-S. eqns.                     :        0.004 s           0.004 s
  | Total energy evaluation                     :        0.000 s           0.000 s

  Partial memory accounting:
  | Current value for overall tracked memory usage:
  |   Minimum:        0.274 MB (on task 23)
  |   Maximum:        0.293 MB (on task  0)
  |   Average:        0.289 MB
  | Peak value for overall tracked memory usage:
  |   Minimum:        3.046 MB (on task  3 after allocating hessian_basis_wave)
  |   Maximum:        3.199 MB (on task  7 after allocating hessian_basis_wave)
  |   Average:        3.116 MB
  | Largest tracked array allocation so far:
  |   Minimum:        1.492 MB (hessian_basis_wave on task  3)
  |   Maximum:        1.584 MB (hessian_basis_wave on task  7)
  |   Average:        1.532 MB
  Note:  These values currently only include a subset of arrays which are explicitly tracked.
  The "true" memory usage will be greater.
------------------------------------------------------------
  Removing unitary transformations (pure translations, rotations) from forces on atoms.
  Atomic forces before filtering:
  | Net force on center of mass :  -0.226743E-02 -0.136100E-01  0.345886E-02 eV/A
  | Net torque on center of mass:  -0.810313E-03  0.120260E-01  0.692348E-02 eV
  Atomic forces after filtering:
  | Net force on center of mass :  -0.535218E-15 -0.892031E-16 -0.892031E-16 eV/A
  | Net torque on center of mass:   0.151054E-14 -0.896880E-15 -0.217139E-14 eV

  Energy and forces in a compact form:
  | Total energy uncorrected      :         -0.442206776429112E+05 eV
  | Total energy corrected        :         -0.442206776429112E+05 eV  <-- do not rely on this value for anything but (periodic) metals
  | Electronic free energy        :         -0.442206776429112E+05 eV
  Total atomic forces (unitary forces cleaned) [eV/Ang]:
  |    1         -0.314197909786605E+01         -0.132305108270258E+01          0.143456038586446E+01
  |    2          0.251581156489463E+01          0.475629409256661E+00          0.191873991779156E+01
  |    3         -0.144811835939184E+00          0.592998572198816E+00         -0.245954406064928E+01
  |    4          0.779200691156058E+00         -0.156630345448311E+01         -0.109840405517086E+01
  |    5          0.228380051559562E+01         -0.152551021787271E+01          0.225901324466778E-01
  |    6          0.626487523636904E+00          0.272844359141298E+01         -0.981109264929650E+00
  |    7         -0.197281734948599E+00          0.245125278487233E+01         -0.134542730937430E+00
  |    8         -0.194500222025605E+01          0.144274833357809E+01          0.184566131236667E+00
  |    9          0.526623083161490E+00         -0.642174931254434E+00          0.341841146529090E+01
  |   10          0.127363374982654E+00         -0.231148202391814E+01         -0.794511904369162E+00
  |   11         -0.290625058278126E+01         -0.987409643597824E+00         -0.127517032272277E+01
  |   12          0.147603871836378E+01          0.664858662509909E+00         -0.235585693851110E+00

  ------------------------------------ 
  Start decomposition of the XC Energy 
  ------------------------------------ 
  X and C from original XC functional choice 
  Hartree-Fock Energy :          0.000000000 Ha              0.000000000 eV
  X Energy            :       -140.212560325 Ha          -3815.377890743 eV
  C Energy            :         -4.956010428 Ha           -134.859905356 eV
  Total XC Energy     :       -145.168570754 Ha          -3950.237796099 eV
  ------------------------------------ 
  LDA X and C from self-consistent density 
  X Energy LDA        :       -132.800940262 Ha          -3613.697447420 eV
  C Energy LDA        :         -8.828013423 Ha           -240.222467621 eV
  ------------------------------------ 
  End decomposition of the XC Energy 
  ------------------------------------ 

------------------------------------------------------------

------------------------------------------------------------------------------
  Final output of selected total energy values:

  The following output summarizes some interesting total energy values
  at the end of a run (AFTER all relaxation, molecular dynamics, etc.).

  | Total energy of the DFT / Hartree-Fock s.c.f. calculation      :         -44220.677642911 eV
  | Final zero-broadening corrected energy (caution - metals only) :         -44220.677642911 eV
  | For reference only, the value of 1 Hartree used in FHI-aims is :             27.211384500 eV

  Before relying on these values, please be sure to understand exactly which
  total energy value is referred to by a given number. Different objects may
  all carry the same name 'total energy'. Definitions:

  Total energy of the DFT / Hartree-Fock s.c.f. calculation:
  | Note that this energy does not include ANY quantities calculated after the
  | s.c.f. cycle, in particular not ANY RPA, MP2, etc. many-body perturbation terms.

  Final zero-broadening corrected energy:
  | For metallic systems only, a broadening of the occupation numbers at the Fermi
  | level can be extrapolated back to zero broadening by an electron-gas inspired
  | formula. For all systems that are not real metals, this value can be
  | meaningless and should be avoided.

------------------------------------------------------------------------------
  Methods described in the following list of references were used in this FHI-aims run.
  If you publish the results, please make sure to cite these reference if they apply.
  FHI-aims is an academic code, and for our developers (often, Ph.D. students
  and postdocs), scientific credit in the community is essential.
  Thank you for helping us!

  For any use of FHI-aims, please cite:

    Volker Blum, Ralf Gehrke, Felix Hanke, Paula Havu, Ville Havu,
    Xinguo Ren, Karsten Reuter, and Matthias Scheffler
    'Ab initio molecular simulations with numeric atom-centered orbitals'
    Computer Physics Communications 180, 2175-2196 (2009)
    http://dx.doi.org/10.1016/j.cpc.2009.06.022


  The ELSI infrastructure was used in your run to solve the Kohn-Sham electronic structure.
  Please check out http://elsi-interchange.org to learn more.
  If scalability is important for your project, please acknowledge ELSI by citing:

    V. W-z. Yu, F. Corsetti, A. Garcia, W. P. Huhn, M. Jacquelin, W. Jia,
    B. Lange, L. Lin, J. Lu, W. Mi, A. Seifitokaldani, A. Vazquez-Mayagoitia,
    C. Yang, H. Yang, and V. Blum
    'ELSI: A unified software interface for Kohn-Sham electronic structure solvers'
    Computer Physics Communications 222, 267-285 (2018).
    http://dx.doi.org/10.1016/j.cpc.2017.09.007


  For the real-space grid partitioning and parallelization used in this calculation, please cite:

    Ville Havu, Volker Blum, Paula Havu, and Matthias Scheffler,
    'Efficient O(N) integration for all-electron electronic structure calculation'
    'using numerically tabulated basis functions'
    Journal of Computational Physics 228, 8367-8379 (2009).
    http://dx.doi.org/10.1016/j.jcp.2009.08.008

  Of course, there are many other important community references, e.g., those cited in the
  above references. Our list is limited to references that describe implementations in the
  FHI-aims code. The reason is purely practical (length of this list) - please credit others as well.

------------------------------------------------------------
          Leaving FHI-aims.
          Date     :  20220517, Time     :  121455.805

          Computational steps:
          | Number of self-consistency cycles          :           13
          | Number of SCF (re)initializations          :            1

          Detailed time accounting                     :  max(cpu_time)    wall_clock(cpu1)
          | Total time                                  :        1.876 s           1.934 s
          | Preparation time                            :        0.184 s           0.184 s
          | Boundary condition initalization            :        0.000 s           0.000 s
          | Grid partitioning                           :        0.039 s           0.039 s
          | Preloading free-atom quantities on grid     :        0.016 s           0.017 s
          | Free-atom superposition energy              :        0.005 s           0.005 s
          | Total time for integrations                 :        0.453 s           0.455 s
          | Total time for solution of K.-S. equations  :        0.067 s           0.065 s
          | Total time for density & force components   :        0.642 s           0.641 s
          | Total time for mixing                       :        0.055 s           0.025 s
          | Total time for Hartree multipole update     :        0.018 s           0.019 s
          | Total time for Hartree multipole sum        :        0.279 s           0.279 s
          | Total time for total energy evaluation      :        0.002 s           0.001 s
          | Total time NSC force correction             :        0.062 s           0.062 s
          | Total time for scaled ZORA corrections      :        0.000 s           0.000 s

          Partial memory accounting:
          | Residual value for overall tracked memory usage across tasks:     0.000000 MB (should be 0.000000 MB)
          | Peak values for overall tracked memory usage:
          |   Minimum:        3.046 MB (on task  3 after allocating hessian_basis_wave)
          |   Maximum:        3.199 MB (on task  7 after allocating hessian_basis_wave)
          |   Average:        3.116 MB
          | Largest tracked array allocation:
          |   Minimum:        1.492 MB (hessian_basis_wave on task  3)
          |   Maximum:        1.584 MB (hessian_basis_wave on task  7)
          |   Average:        1.532 MB
          Note:  These values currently only include a subset of arrays which are explicitly tracked.
          The "true" memory usage will be greater.

          Have a nice day.
------------------------------------------------------------
