********************************************************************************
*                       GENERAL UTILITY LATTICE PROGRAM                        *
*                                 Julian Gale                                  *
*                       Curtin Institute for Computation                       *
*                           Department of Chemistry                            *
*                    Curtin University, Western Australia                      *
********************************************************************************
* Version = 5.1.1 * Last modified =  11th January 2019                         *
********************************************************************************
*  optimise     - perform optimisation run                                     *
*  conp         - constant pressure calculation                                *
*  property     - calculate properties for final geometry                      *
*  phonon       - calculate phonons for final geometry                         *
*  eigenvectors - output phonon eigenvectors                                   *
*  conjugate    - use conjugate gradients minimiser                            *
********************************************************************************

  Job Started  at 11:45.09  5th May        2022                               

  Number of CPUs =     1

  Host name      = login04                                 


  Total number of configurations input =      1

********************************************************************************
*  Input for Configuration =   1                                               *
********************************************************************************

  Formula = Al3F9                                                       

  Number of irreducible atoms/shells =      21


  Total number atoms/shells =      21

  Dimensionality = 0               :  Cluster


  Charge on cluster =  -0.000000


  Initial cluster dipoles : x =     -0.012952 e.Angs
                            y =     -0.006527 e.Angs
                            z =      0.089457 e.Angs

  Temperature of configuration =  0.000     K 

  Symmetry number =      1

  Cartesian coordinates of cluster :

--------------------------------------------------------------------------------
   No.  Atomic       x           y          z         Charge      Occupancy
        Label      (Angs)      (Angs)     (Angs)        (e)         (Frac)  
--------------------------------------------------------------------------------
      1 Al    c      0.3497 *   -0.5979 *    1.7400 *   3.00000    1.000000    
      2 Al    c      2.3505 *   -1.7884 *   -0.5193 *   3.00000    1.000000    
      3 Al    c     -0.8929 *   -1.8301 *   -0.9918 *   3.00000    1.000000    
      4 F     c      3.4762 *   -0.4963 *   -1.1132 *   0.59000    1.000000    
      5 F     c     -1.8346 *   -0.5646 *   -1.8869 *   0.59000    1.000000    
      6 F     c      2.7367 *   -3.5620 *   -0.4910 *   0.59000    1.000000    
      7 F     c     -1.2264 *   -3.6129 *   -1.0683 *   0.59000    1.000000    
      8 F     c      1.8967 *   -1.4140 *    1.2108 *   0.59000    1.000000    
      9 F     c      0.8318     -1.5085     -1.4893     0.59000    1.000000    
     10 F     c      0.1089 *   -1.1702 *    3.4431 *   0.59000    1.000000    
     11 F     c      0.4065 *    1.1363 *    1.1975 *   0.59000    1.000000    
     12 F     c     -0.9611 *   -1.4506 *    0.7945 *   0.59000    1.000000    
     13 F     s      3.4762 *   -0.4963 *   -1.1132 *  -1.59000    1.000000    
     14 F     s     -1.8346 *   -0.5646 *   -1.8869 *  -1.59000    1.000000    
     15 F     s      2.7367 *   -3.5620 *   -0.4910 *  -1.59000    1.000000    
     16 F     s     -1.2264 *   -3.6129 *   -1.0683 *  -1.59000    1.000000    
     17 F     s      1.8967 *   -1.4140 *    1.2108 *  -1.59000    1.000000    
     18 F     s      0.8318 *   -1.5085 *   -1.4893 *  -1.59000    1.000000    
     19 F     s      0.1089 *   -1.1702 *    3.4431 *  -1.59000    1.000000    
     20 F     s      0.4065 *    1.1363 *    1.1975 *  -1.59000    1.000000    
     21 F     s     -0.9611 *   -1.4506 *    0.7945 *  -1.59000    1.000000    
--------------------------------------------------------------------------------


  Brillouin zone sampling points :

--------------------------------------------------------------------------------
  Point number          x          y          z            Weight
--------------------------------------------------------------------------------
        1           0.000000   0.000000   0.000000     1.00000000
--------------------------------------------------------------------------------


********************************************************************************
*  General input information                                                   *
********************************************************************************

  Species output for all configurations : 

--------------------------------------------------------------------------------
  Species    Type    Atomic    Atomic    Charge       Radii (Angs)     Library
                     Number     Mass       (e)     Cova   Ionic  VDW   Symbol
--------------------------------------------------------------------------------
    Al       Core       13      26.98   3.000000   1.350  0.000  2.050          
    F        Core        9      19.00   0.590000   0.710  0.000  1.300          
    F        Shell       9       0.00  -1.590000   0.710  0.000  1.300          
--------------------------------------------------------------------------------


  Accuracy factor for short range sums = 12.000

  Time limit = Infinity

  Maximum range for interatomic potentials =    100000.000000 Angstroms

  General interatomic potentials :

--------------------------------------------------------------------------------
Atom  Types   Potential      Parameter       Value         Units   Cutoffs(Ang)
  1     2                                                            Min /  Max 
--------------------------------------------------------------------------------
Al   c F    s Buckingham    Buckingham A     3760.0008    eV        0.000 10.000
                            Buckingham rho  0.22200000    Ang       
                            Buckingham C     0.0000000    eV*Ang^6  
--------------------------------------------------------------------------------
F    s F    s Buck 4 range  Buck4 A          1127.7000    eV        0.000 12.000
                            Buck4 rho       0.27530000    Ang       
                            Buck4 C          15.830000    eV*Ang^6  
                            Buck4 minimum    2.7900000    Ang       
--------------------------------------------------------------------------------
F    c F    s Spring (c-s)  Spring k 2       20.770000    eV*Ang^-2 0.000  0.800
                            Spring k 4       0.0000000    eV*Ang^-4 
--------------------------------------------------------------------------------

********************************************************************************
*  Output for configuration   1                                                *
********************************************************************************


  Components of energy : 

--------------------------------------------------------------------------------
  Interatomic potentials     =          11.94646535 eV    
  Monopole - monopole (real) =        -182.69088172 eV    
--------------------------------------------------------------------------------
  Total lattice energy       =        -170.74441637 eV    
--------------------------------------------------------------------------------
  Total lattice energy       =          -16474.2261 kJ/mol
--------------------------------------------------------------------------------


  Number of variables =       60

  Maximum number of calculations  =          2000
  Maximum Hessian update interval =            10
  Maximum step size               =   1.000000000
  Maximum parameter tolerance     =   0.000001000
  Maximum function  tolerance     =   0.000010000
  Maximum gradient  tolerance     =   0.000000010
  Maximum gradient  component     =   0.010000000

  Symmetry not applied to optimisation

  Cell parameters to be optimised using strains

  Conjugate gradient optimiser to be used

  Lower half triangular hessian to be used

  Minimiser to switch to RFO
  When gradient norm is less than     0.010000

  Start of cluster optimisation :

  Cycle:      0 Energy:      -170.744416  Gnorm:      0.716565  CPU:    0.007
  Cycle:      1 Energy:      -180.566989  Gnorm:      0.454031  CPU:    0.008
  Cycle:      2 Energy:      -182.757912  Gnorm:      0.368827  CPU:    0.008
  Cycle:      3 Energy:      -184.617118  Gnorm:      0.268729  CPU:    0.008
  Cycle:      4 Energy:      -185.498096  Gnorm:      0.204785  CPU:    0.008
  Cycle:      5 Energy:      -186.039078  Gnorm:      0.153111  CPU:    0.009
  Cycle:      6 Energy:      -186.337921  Gnorm:      0.118029  CPU:    0.009
  Cycle:      7 Energy:      -186.522596  Gnorm:      0.093298  CPU:    0.009
  Cycle:      8 Energy:      -186.642033  Gnorm:      0.076875  CPU:    0.009
  Cycle:      9 Energy:      -186.727075  Gnorm:      0.065874  CPU:    0.010
  Cycle:     10 Energy:      -186.799777  Gnorm:      0.057429  CPU:    0.010
  Cycle:     11 Energy:      -186.850046  Gnorm:      0.052547  CPU:    0.010
  Cycle:     12 Energy:      -186.894397  Gnorm:      0.048544  CPU:    0.010
  Cycle:     13 Energy:      -186.932598  Gnorm:      0.045280  CPU:    0.011
  Cycle:     14 Energy:      -186.966166  Gnorm:      0.042456  CPU:    0.011
  Cycle:     15 Energy:      -186.995835  Gnorm:      0.039938  CPU:    0.011
  Cycle:     16 Energy:      -187.022183  Gnorm:      0.037648  CPU:    0.011
  Cycle:     17 Energy:      -187.045648  Gnorm:      0.035536  CPU:    0.011
  Cycle:     18 Energy:      -187.066584  Gnorm:      0.033572  CPU:    0.012
  Cycle:     19 Energy:      -187.085288  Gnorm:      0.031734  CPU:    0.012
  Cycle:     20 Energy:      -187.102893  Gnorm:      0.029913  CPU:    0.012
  Cycle:     21 Energy:      -187.117669  Gnorm:      0.028302  CPU:    0.012
  Cycle:     22 Energy:      -187.130987  Gnorm:      0.026771  CPU:    0.013
  Cycle:     23 Energy:      -187.142896  Gnorm:      0.025326  CPU:    0.013
  Cycle:     24 Energy:      -187.153554  Gnorm:      0.023958  CPU:    0.013
  Cycle:     25 Energy:      -187.163093  Gnorm:      0.022665  CPU:    0.013
  Cycle:     26 Energy:      -187.171630  Gnorm:      0.021440  CPU:    0.014
  Cycle:     27 Energy:      -187.179268  Gnorm:      0.020281  CPU:    0.014
  Cycle:     28 Energy:      -187.186103  Gnorm:      0.019184  CPU:    0.014
  Cycle:     29 Energy:      -187.192217  Gnorm:      0.018145  CPU:    0.014
  Cycle:     30 Energy:      -187.197974  Gnorm:      0.017108  CPU:    0.014
  Cycle:     31 Energy:      -187.202808  Gnorm:      0.016186  CPU:    0.015
  Cycle:     32 Energy:      -187.207162  Gnorm:      0.015307  CPU:    0.015
  Cycle:     33 Energy:      -187.211054  Gnorm:      0.014475  CPU:    0.015
  Cycle:     34 Energy:      -187.214534  Gnorm:      0.013688  CPU:    0.015
  Cycle:     35 Energy:      -187.217646  Gnorm:      0.012944  CPU:    0.016
  Cycle:     36 Energy:      -187.220428  Gnorm:      0.012240  CPU:    0.016
  Cycle:     37 Energy:      -187.222916  Gnorm:      0.011574  CPU:    0.016
  Cycle:     38 Energy:      -187.225141  Gnorm:      0.010944  CPU:    0.016
  Cycle:     39 Energy:      -187.227130  Gnorm:      0.010349  CPU:    0.016
  Cycle:     40 Energy:      -187.229002  Gnorm:      0.009755  CPU:    0.017
  ** Hessian has required structure
  Cycle:     41 Energy:      -187.231495  Gnorm:      0.008958  CPU:    0.021
  ** Hessian has required structure
  Cycle:     42 Energy:      -187.234450  Gnorm:      0.007906  CPU:    0.022
  ** Hessian has required structure
  Cycle:     43 Energy:      -187.238032  Gnorm:      0.006396  CPU:    0.023
  ** Hessian has required structure
  Cycle:     44 Energy:      -187.241930  Gnorm:      0.004155  CPU:    0.023
  ** Hessian has required structure
  Cycle:     45 Energy:      -187.244374  Gnorm:      0.001530  CPU:    0.024
  ** Hessian has required structure
  Cycle:     46 Energy:      -187.244755  Gnorm:      0.000013  CPU:    0.024
  ** Hessian has required structure
  Cycle:     47 Energy:      -187.244756  Gnorm:      0.000023  CPU:    0.025
  ** Hessian has required structure
  Cycle:     48 Energy:      -187.244756  Gnorm:      0.000003  CPU:    0.025
  ** Hessian has required structure
  Cycle:     49 Energy:      -187.244756  Gnorm:      0.000002  CPU:    0.026
  ** Hessian has required structure
  Cycle:     50 Energy:      -187.244756  Gnorm:      0.000000  CPU:    0.027
  ** Hessian has required structure

  XYZ File written as 002/002_eig.xyz



  **** Optimisation achieved ****


  Final energy =    -187.24475565 eV
  Final Gnorm  =       0.00000000

  Components of energy : 

--------------------------------------------------------------------------------
  Interatomic potentials     =          37.88402653 eV    
  Monopole - monopole (real) =        -225.12878218 eV    
--------------------------------------------------------------------------------
  Total lattice energy       =        -187.24475565 eV    
--------------------------------------------------------------------------------
  Total lattice energy       =          -18066.2566 kJ/mol
--------------------------------------------------------------------------------

  Final cartesian coordinates of atoms :

--------------------------------------------------------------------------------
   No.  Atomic        x           y          z          Radius
        Label       (Angs)      (Angs)     (Angs)       (Angs) 
--------------------------------------------------------------------------------
     1  Al    c     0.349627   -0.599315    1.740414    0.000000
     2  Al    c     2.350503   -1.788744   -0.519453    0.000000
     3  Al    c    -0.892885   -1.830398   -0.991956    0.000000
     4  F     c     3.476159   -0.496331   -1.112779    0.000000
     5  F     c    -1.834645   -0.564536   -1.886467    0.000000
     6  F     c     2.736837   -3.562342   -0.491865    0.000000
     7  F     c    -1.226308   -3.613239   -1.069223    0.000000
     8  F     c     1.896720   -1.414979    1.210821    0.000000
     9  F     c     0.831810   -1.508493   -1.489274    0.000000
    10  F     c     0.108912   -1.172361    3.443268    0.000000
    11  F     c     0.406286    1.135156    1.198591    0.000000
    12  F     c    -0.961088   -1.451681    0.794491    0.000000
    13  F     s     3.301056   -0.694466   -1.020784    0.000000
    14  F     s    -1.688135   -0.758541   -1.747618    0.000000
    15  F     s     2.674529   -3.290160   -0.494286    0.000000
    16  F     s    -1.172763   -3.339569   -1.054767    0.000000
    17  F     s     1.744459   -1.355055    1.045338    0.000000
    18  F     s     0.802388   -1.590830   -1.280054    0.000000
    19  F     s     0.146299   -1.085829    3.179006    0.000000
    20  F     s     0.398507    0.867278    1.275598    0.000000
    21  F     s    -0.769505   -1.387341    0.679099    0.000000
--------------------------------------------------------------------------------


  Final Cartesian derivatives :

--------------------------------------------------------------------------------
   No.  Atomic          x             y             z           Radius
        Label       (eV/Angs)     (eV/Angs)    (eV/Angs)      (eV/Angs)
--------------------------------------------------------------------------------
      1 Al    c      -0.000000     -0.000000     -0.000000      0.000000
      2 Al    c       0.000000     -0.000000      0.000000      0.000000
      3 Al    c       0.000000      0.000000     -0.000000      0.000000
      4 F     c       0.000000      0.000000      0.000000      0.000000
      5 F     c       0.000000     -0.000000     -0.000000      0.000000
      6 F     c       0.000000     -0.000000     -0.000000      0.000000
      7 F     c      -0.000000      0.000000      0.000000      0.000000
      8 F     c      -0.000000      0.000000      0.000000      0.000000
      9 F     c       0.000000      0.000000      0.000000      0.000000
     10 F     c       0.000000      0.000000      0.000000      0.000000
     11 F     c      -0.000000      0.000000     -0.000000      0.000000
     12 F     c      -0.000000     -0.000000     -0.000000      0.000000
     13 F     s       0.000000      0.000000     -0.000000      0.000000
     14 F     s       0.000000     -0.000000      0.000000      0.000000
     15 F     s       0.000000     -0.000000     -0.000000      0.000000
     16 F     s      -0.000000     -0.000000      0.000000      0.000000
     17 F     s       0.000000      0.000000      0.000000      0.000000
     18 F     s      -0.000000     -0.000000     -0.000000      0.000000
     19 F     s      -0.000000     -0.000000      0.000000      0.000000
     20 F     s       0.000000      0.000000     -0.000000      0.000000
     21 F     s       0.000000     -0.000000     -0.000000      0.000000
--------------------------------------------------------------------------------
  Maximum abs         0.000000      0.000000      0.000000      0.000000
--------------------------------------------------------------------------------


  Born effective charge tensors : 

-------------------------------------------------------------------------------
  Atom             x           y             z
-------------------------------------------------------------------------------
    1 Al    x       1.4127     -0.0593      0.0681
            y      -0.0605      0.7612      0.4737
            z       0.0682      0.4650      0.9126
-------------------------------------------------------------------------------
    2 Al    x       1.2983     -0.1941      0.0854
            y      -0.1975      0.4548      0.2005
            z       0.0797      0.2032      1.3523
-------------------------------------------------------------------------------
    3 Al    x       1.3407      0.1500     -0.0935
            y       0.1541      0.4637      0.2493
            z      -0.0878      0.2511      1.3010
-------------------------------------------------------------------------------
    4 F     x      -0.3607      0.2950     -0.1109
            y       0.2505     -0.2247     -0.1433
            z      -0.1040     -0.1565     -0.4907
-------------------------------------------------------------------------------
    5 F     x      -0.4190     -0.2425      0.1350
            y      -0.2036     -0.2374     -0.2062
            z       0.1286     -0.2317     -0.4198
-------------------------------------------------------------------------------
    6 F     x      -0.5703     -0.1247      0.0130
            y      -0.0819      0.0294     -0.0337
            z       0.0083     -0.0131     -0.5484
-------------------------------------------------------------------------------
    7 F     x      -0.5676      0.1082     -0.0174
            y       0.0731      0.0344     -0.0115
            z      -0.0134      0.0206     -0.5560
-------------------------------------------------------------------------------
    8 F     x      -0.3461      0.0124     -0.0184
            y       0.0009     -0.2598     -0.0306
            z      -0.0124     -0.0414     -0.3175
-------------------------------------------------------------------------------
    9 F     x      -0.3377      0.0045      0.0028
            y       0.0050     -0.2522     -0.0415
            z       0.0028     -0.0380     -0.3528
-------------------------------------------------------------------------------
   10 F     x      -0.5453      0.0326     -0.0726
            y       0.0257     -0.4750     -0.1836
            z      -0.0720     -0.2311     -0.0406
-------------------------------------------------------------------------------
   11 F     x      -0.5527      0.0202     -0.0003
            y       0.0288     -0.0344     -0.2436
            z      -0.0011     -0.1847     -0.5290
-------------------------------------------------------------------------------
   12 F     x      -0.3524     -0.0024      0.0088
            y       0.0056     -0.2600     -0.0296
            z       0.0032     -0.0433     -0.3111
-------------------------------------------------------------------------------




  Moment of inertia tensor (10^-46 x kgm^2): 

-------------------------------------------------------------------------------
                x           y           z           Principal axis system
-------------------------------------------------------------------------------
       x        153.90        2.90       -1.72          153.683032
       y          2.90      201.81      -24.14          155.164088
       z         -1.72      -24.14      167.62          214.481740
-------------------------------------------------------------------------------
  Centre of mass (Ang) =     0.603392    -1.405657     0.069589
-------------------------------------------------------------------------------


  Vibrational Frequency Calculation : 

--------------------------------------------------------------------------------

  Frequencies (cm-1) and Eigenvectors : 

  Frequency      -0.0018   -0.0000    0.0000    0.0000    0.0012    0.0023
  IR Intensity    0.0000    0.0000    0.0000    0.0000    0.0000    0.0000
     in X         0.0000    0.0000    0.0000    0.0000    0.0000    0.0000
     in Y         0.0000    0.0000    0.0000    0.0000    0.0000    0.0000
     in Z         0.0000    0.0000    0.0000    0.0000    0.0000    0.0000
  Raman Intsty    0.0000    0.0000    0.0000    0.0000    0.0000    0.0000

     1 x      -0.207838  0.034820  0.267489 -0.185273 -0.049938  0.162213
     1 y      -0.195793 -0.325386  0.029066 -0.019200  0.016346 -0.211313
     1 z       0.062925  0.000761  0.186261  0.269063 -0.015480  0.126616
     2 x       0.080807  0.034825  0.267489 -0.185271  0.003895 -0.061806
     2 y       0.195346 -0.325375  0.029052 -0.019193 -0.235509 -0.003007
     2 z       0.112623  0.000760  0.186268  0.269061  0.164742 -0.181367
     3 x       0.125381  0.034825  0.267491 -0.185271  0.043843 -0.098965
     3 y      -0.001899 -0.325396  0.029070 -0.019202  0.219305  0.211741
     3 z      -0.175962  0.000763  0.186258  0.269064 -0.149569  0.054774
     4 x       0.028793  0.029217  0.224480 -0.155480  0.201756 -0.038265
     4 y       0.288498 -0.273043  0.024374 -0.016103 -0.322944  0.019819
     4 z       0.291823  0.000636  0.156314  0.225791  0.241864 -0.077729
     5 x       0.090043  0.029217  0.224481 -0.155480  0.256649 -0.089326
     5 y       0.017463 -0.273072  0.024399 -0.016116  0.302014  0.314903
     5 z      -0.104719  0.000640  0.156301  0.225795 -0.190029  0.246751
     6 x       0.179197  0.029234  0.224463 -0.155472 -0.205242 -0.119725
     6 y       0.186190 -0.273047  0.024378 -0.016105 -0.242826 -0.020773
     6 z      -0.034273  0.000639  0.156315  0.225790  0.152863 -0.375162
     7 x       0.224905  0.029234  0.224465 -0.155472 -0.164279 -0.157829
     7 y      -0.016067 -0.273068  0.024397 -0.016115  0.223544  0.199431
     7 z      -0.330190  0.000642  0.156305  0.225793 -0.169434 -0.133021
     8 x      -0.083315  0.029224  0.224469 -0.155476 -0.093765  0.071005
     8 y      -0.018438 -0.273050  0.024384 -0.016108 -0.161207 -0.178666
     8 z       0.094271  0.000638  0.156311  0.225792  0.104931 -0.081926
     9 x       0.121200  0.029222  0.224476 -0.155478  0.114613 -0.101521
     9 y       0.152770 -0.273057  0.024387 -0.016110 -0.011848  0.165767
     9 z       0.007681  0.000639  0.156308  0.225792  0.017575 -0.025811
    10 x      -0.262979  0.029224  0.224465 -0.155475 -0.246828  0.220136
    10 y      -0.330619 -0.273058  0.024395 -0.016113  0.025625 -0.358759
    10 z      -0.015682  0.000639  0.156306  0.225793 -0.037951  0.057075
    11 x      -0.245487  0.029211  0.224482 -0.155482  0.203810  0.170291
    11 y      -0.112662 -0.273058  0.024391 -0.016112  0.012247 -0.118820
    11 z       0.210695  0.000638  0.156305  0.225794  0.007997  0.297127
    12 x      -0.050355  0.029224  0.224470 -0.155476 -0.064226  0.043529
    12 y      -0.164285 -0.273065  0.024397 -0.016115  0.175091 -0.019878
    12 z      -0.119114  0.000640  0.156304  0.225794 -0.127476  0.092681


  Frequency      17.5976   23.7682   37.6021  121.8487  146.1875  148.6273
  IR Intensity    0.0005    0.0014    0.0022    0.0002    0.0093    0.0080
     in X         0.0004    0.0000    0.0000    0.0002    0.0002    0.0078
     in Y         0.0000    0.0001    0.0018    0.0000    0.0010    0.0000
     in Z         0.0000    0.0012    0.0004    0.0000    0.0081    0.0002
  Raman Intsty    0.0000    0.0808    0.0055    0.0000    0.0011    0.0000

     1 x       0.038161  0.008824 -0.002834 -0.045776  0.001167  0.074588
     1 y       0.000490 -0.040052  0.032042 -0.000588 -0.183793  0.000958
     1 z       0.005559 -0.057041  0.016627 -0.006669  0.008193  0.010866
     2 x      -0.022176 -0.016299 -0.050312  0.014891  0.043521  0.038350
     2 y       0.010358  0.016022 -0.001697 -0.008873  0.104793  0.151957
     2 z      -0.023610  0.047886 -0.033065 -0.019276  0.076603 -0.021129
     3 x      -0.027721  0.001553  0.057680  0.008546 -0.066185  0.034538
     3 y      -0.010999  0.016252 -0.000310  0.009174  0.103384 -0.151021
     3 z       0.016341  0.050487 -0.017333  0.022690  0.060620  0.031747
     4 x      -0.142651  0.059164  0.257977  0.175614 -0.081697  0.151496
     4 y       0.221394  0.045002 -0.253611  0.024238 -0.018629  0.066301
     4 z       0.205946  0.249410 -0.003504  0.361188 -0.400014  0.057469
     5 x      -0.072361 -0.128965 -0.239795  0.271902  0.192853  0.163212
     5 y      -0.224155  0.042586 -0.260003 -0.018491 -0.015103 -0.062260
     5 z      -0.237269  0.222003 -0.076020 -0.295993 -0.360017 -0.011622
     6 x       0.177882 -0.103963 -0.464138 -0.105267  0.015173 -0.266910
     6 y       0.048803 -0.010721 -0.094931 -0.038307  0.089187  0.061793
     6 z      -0.295759 -0.237900 -0.039090 -0.317999  0.170359 -0.315713
     7 x       0.087290  0.167742  0.458238 -0.192535 -0.065378 -0.344239
     7 y      -0.045397 -0.007232 -0.083085  0.034482  0.088153 -0.069642
     7 z       0.334390 -0.198317  0.095283  0.274615  0.158624  0.226679
     8 x      -0.146876 -0.033963  0.029593 -0.066392  0.147010  0.240085
     8 y      -0.371342 -0.267995  0.129239  0.006838 -0.018512  0.250676
     8 z       0.034948  0.117784 -0.037876 -0.051806  0.140204  0.036595
     9 x      -0.030985 -0.018574 -0.005471  0.002492 -0.053468 -0.005088
     9 y      -0.000398  0.267434  0.432702  0.000032  0.339299 -0.000065
     9 z      -0.004514  0.103924 -0.000589  0.000363  0.337108 -0.000741
    10 x      -0.144811 -0.017740  0.006007  0.468810  0.004180 -0.511151
    10 y      -0.001860  0.385967 -0.112814  0.006021 -0.216382 -0.006565
    10 z      -0.021096  0.087746 -0.031291  0.068297 -0.009615 -0.074465
    11 x       0.426591  0.077675 -0.027014 -0.449786  0.047327  0.150084
    11 y       0.005479 -0.178285  0.078121 -0.005776 -0.254354  0.001927
    11 z       0.062147 -0.517463  0.178546 -0.065526 -0.302441  0.021864
    12 x      -0.140094  0.005681 -0.020799 -0.078218 -0.180383  0.246774
    12 y       0.367656 -0.267486  0.128592 -0.008696 -0.022717 -0.244423
    12 z      -0.076754  0.123560 -0.045217  0.030739  0.092508  0.034332


  Frequency     159.1654  162.6898  176.0106  189.2772  196.1489  218.5796
  IR Intensity    0.0015    0.0048    0.0064    0.0060    0.0118    0.0173
     in X         0.0015    0.0000    0.0001    0.0001    0.0115    0.0004
     in Y         0.0000    0.0043    0.0012    0.0016    0.0000    0.0005
     in Z         0.0000    0.0005    0.0050    0.0043    0.0002    0.0164
  Raman Intsty    0.0000    0.0002    0.0008    0.0017    0.0000    0.0011

     1 x      -0.137229 -0.019880 -0.007702  0.020319  0.198488  0.030387
     1 y      -0.001762 -0.050718 -0.002070  0.184895  0.002549  0.203732
     1 z      -0.019992  0.140935  0.053051 -0.155777  0.028916 -0.226542
     2 x       0.072284 -0.109858  0.077605  0.021348 -0.023356 -0.007659
     2 y      -0.061461 -0.033426 -0.046307 -0.158691 -0.278607 -0.114545
     2 z      -0.110045 -0.047329  0.052240  0.141176  0.102938 -0.038348
     3 x       0.036320  0.119599 -0.088092 -0.056735 -0.000019  0.021158
     3 y       0.062856 -0.030479 -0.048435 -0.159694  0.278307 -0.114174
     3 z       0.125866 -0.013901  0.028101  0.129800 -0.106344 -0.034150
     4 x       0.235177 -0.366692  0.155995 -0.304133 -0.318593 -0.088539
     4 y      -0.257344  0.096704 -0.225520  0.096402 -0.019287  0.002349
     4 z      -0.211031 -0.277374 -0.186373  0.034362  0.035168  0.045443
     5 x       0.158657  0.428028 -0.090625  0.279169 -0.295703  0.071809
     5 y       0.262402  0.106911 -0.228688  0.103893  0.011398  0.004409
     5 z       0.268406 -0.161598 -0.222302  0.119338 -0.124660  0.068803
     6 x       0.324261 -0.254365  0.295240 -0.117705  0.171314  0.170889
     6 y       0.002136 -0.065962  0.005006 -0.180037 -0.214289 -0.064067
     6 z      -0.241220 -0.043340 -0.296659 -0.284661 -0.144006  0.189973
     7 x       0.241923  0.257734 -0.198375  0.198506  0.117671 -0.216313
     7 y       0.005136 -0.059385 -0.001333 -0.175976  0.218000 -0.069040
     7 z       0.323702  0.031264 -0.368569 -0.238595  0.186106  0.133565
     8 x      -0.177613 -0.113230  0.028146  0.126905  0.276570 -0.183516
     8 y      -0.028611 -0.160861  0.012533  0.181784  0.022199 -0.296454
     8 z      -0.164992 -0.001309  0.049102  0.104596  0.159561 -0.044422
     9 x       0.018842  0.026030 -0.047153 -0.051154  0.082325 -0.019138
     9 y       0.000242  0.041708  0.093942 -0.076329  0.001057  0.500451
     9 z       0.002745 -0.182357  0.315391  0.357865  0.011993  0.087249
    10 x      -0.329551 -0.041078 -0.028763  0.038550 -0.188610  0.044044
    10 y      -0.004232  0.343013  0.360067 -0.166630 -0.002422 -0.059759
    10 z      -0.048010  0.251731  0.165692 -0.249925 -0.027477 -0.297064
    11 x      -0.219625 -0.037251 -0.051500  0.003817 -0.364707 -0.027489
    11 y      -0.002821 -0.007582  0.087713  0.197813 -0.004684  0.303468
    11 z      -0.031995  0.256369  0.345775 -0.043637 -0.053131  0.161940
    12 x      -0.217961  0.112907 -0.041290 -0.155999  0.311062  0.195958
    12 y       0.023531 -0.157957  0.011642  0.178151 -0.014652 -0.291581
    12 z       0.107365  0.031635  0.038987  0.063382 -0.073954  0.010860


  Frequency     220.5354  232.9921  243.1946  257.3967  263.3554  318.1087
  IR Intensity    0.0108    0.0614    0.1320    0.0737    0.0190    0.0000
     in X         0.0105    0.0601    0.0019    0.0722    0.0003    0.0000
     in Y         0.0000    0.0000    0.0521    0.0000    0.0016    0.0000
     in Z         0.0002    0.0013    0.0780    0.0015    0.0170    0.0000
  Raman Intsty    0.0000    0.0000    0.0000    0.0000    0.0006    0.2374

     1 x      -0.232006  0.325584  0.034841 -0.073513 -0.040119  0.031588
     1 y      -0.002980  0.004181 -0.353832 -0.000944  0.045052 -0.049151
     1 z      -0.033799  0.047432 -0.207969 -0.010710  0.271414 -0.212498
     2 x       0.179766  0.127721  0.109074  0.337647 -0.188620 -0.151771
     2 y       0.100939  0.096112 -0.116975 -0.162131 -0.165151  0.027260
     2 z       0.330623 -0.166376 -0.160551 -0.068615  0.003626  0.080378
     3 x       0.269090  0.077328 -0.055765  0.299856  0.183839  0.121801
     3 y      -0.095174 -0.093479 -0.119092  0.170318 -0.160367  0.030773
     3 z      -0.265233  0.196248 -0.184565  0.161488  0.057887  0.120232
     4 x      -0.044839  0.111007 -0.047409 -0.118002 -0.189512 -0.042653
     4 y      -0.006529  0.134206  0.172605  0.261521 -0.133089 -0.119170
     4 z      -0.316210 -0.095718  0.163527 -0.029792  0.084249  0.015719
     5 x      -0.133328  0.082428 -0.005565 -0.114982  0.160889  0.039379
     5 y       0.004241 -0.131722  0.173142 -0.264513 -0.128589 -0.118116
     5 z       0.290254  0.123898  0.169623 -0.004149  0.135296  0.027670
     6 x      -0.153310 -0.188002  0.021532 -0.126445  0.237088  0.063443
     6 y       0.014386  0.023514 -0.129645 -0.267392 -0.071992  0.082541
     6 z      -0.206768  0.133401  0.173952  0.016235 -0.059791 -0.020035
     7 x      -0.205510 -0.141483 -0.066992 -0.123243 -0.208292 -0.057147
     7 y      -0.018994 -0.027746 -0.130782  0.264185 -0.077712  0.080992
     7 z       0.154495 -0.181401  0.161056 -0.052610 -0.124675 -0.037603
     8 x      -0.098762  0.072044  0.284149 -0.173213 -0.045797  0.349709
     8 y      -0.113309 -0.422060  0.155274  0.129600  0.279126 -0.062761
     8 z       0.276563  0.004132 -0.144118 -0.311468 -0.087513  0.355406
     9 x       0.275918  0.012025 -0.021845  0.253362  0.034779  0.072347
     9 y       0.003544  0.000154  0.198912  0.003254  0.405592  0.058803
     9 z       0.040196  0.001752  0.132414  0.036910 -0.274489 -0.501797
    10 x       0.161647 -0.214048 -0.005980 -0.076169 -0.031747  0.028402
    10 y       0.002076 -0.002749  0.335064 -0.000978 -0.112127  0.079009
    10 z       0.023549 -0.031183  0.011510 -0.011096  0.227807 -0.201921
    11 x      -0.041641 -0.425885 -0.027891  0.058171  0.034272 -0.020540
    11 y      -0.000535 -0.005470 -0.220230  0.000747 -0.107504  0.060958
    11 z      -0.006066 -0.062044  0.210869  0.008474 -0.225778  0.135619
    12 x      -0.018582  0.059592 -0.235042 -0.251549  0.061824 -0.434868
    12 y       0.111802  0.423751  0.148606 -0.135055  0.280508 -0.072838
    12 z      -0.293658  0.015045 -0.219755  0.249588 -0.071835  0.241107


  Frequency     459.8279  502.0343  506.7057  609.7791  612.4498  645.7095
  IR Intensity    0.0002    0.0235    0.0163    0.0646    0.0699    0.0001
     in X         0.0000    0.0004    0.0159    0.0014    0.0685    0.0001
     in Y         0.0000    0.0023    0.0000    0.0003    0.0000    0.0000
     in Z         0.0001    0.0208    0.0003    0.0630    0.0015    0.0000
  Raman Intsty    2.7915    0.0117    0.0000    0.0000    0.0000    0.0000

     1 x       0.031714  0.021259 -0.431624  0.011164  0.517882 -0.338757
     1 y      -0.185525 -0.134678 -0.005543 -0.082220  0.006651 -0.004351
     1 z      -0.201338 -0.134054 -0.062880 -0.069384  0.075446 -0.049351
     2 x      -0.271510  0.222388  0.053669  0.208782  0.022301  0.114968
     2 y       0.078576  0.012202 -0.064403  0.030595  0.051144  0.050821
     2 z       0.079425  0.330671 -0.259266  0.394023  0.263415  0.310579
     3 x       0.235506 -0.307709 -0.024157 -0.313207  0.097795  0.200028
     3 y       0.085087  0.005394  0.064782  0.023891 -0.049601 -0.046776
     3 z       0.153288  0.253445  0.263565  0.317979 -0.245919 -0.264690
     4 x      -0.183523  0.070220  0.176277 -0.084880  0.112750 -0.004978
     4 y      -0.251168  0.101186  0.200049 -0.076745  0.111670 -0.006633
     4 z       0.104732 -0.084348 -0.069534  0.019243 -0.070561  0.007362
     5 x       0.152277 -0.045763  0.154090  0.077765  0.090708 -0.002836
     5 y      -0.246855  0.099696 -0.195806 -0.074657 -0.109057  0.006533
     5 z       0.153652 -0.101244  0.117662  0.042937  0.100201 -0.008500
     6 x      -0.041641  0.017103  0.066114 -0.036862  0.050364  0.011568
     6 y       0.307970 -0.139669 -0.272614  0.096404 -0.185493 -0.040771
     6 z      -0.013751 -0.035560  0.027061 -0.017862 -0.014227  0.005692
     7 x       0.036075 -0.002730  0.064209  0.037989  0.039531  0.011682
     7 y       0.308968 -0.139924  0.274288  0.097365  0.186648  0.041069
     7 z      -0.002429 -0.038449 -0.008076 -0.006958  0.027323 -0.002305
     8 x      -0.138121 -0.308176  0.086600  0.205300 -0.264753  0.292114
     8 y       0.058780  0.160225  0.002870 -0.131708  0.129200 -0.175812
     8 z      -0.176256  0.065957  0.330113 -0.372288  0.063805 -0.326717
     9 x      -0.030915  0.041679 -0.333476  0.022687 -0.507937 -0.451638
     9 y      -0.094983  0.103492 -0.004283  0.057583 -0.006523 -0.005800
     9 z       0.220583 -0.295222 -0.048581 -0.160804 -0.073997 -0.065795
    10 x       0.041727  0.041007  0.045779 -0.029566 -0.025017 -0.002922
    10 y       0.125433  0.107278  0.000588 -0.051604 -0.000321 -0.000038
    10 z      -0.297486 -0.290942  0.006669  0.207500 -0.003645 -0.000426
    11 x      -0.011905 -0.009427  0.042364  0.005891 -0.023669 -0.006935
    11 y      -0.244972 -0.320445  0.000544  0.251877 -0.000304 -0.000089
    11 z       0.103313  0.092955  0.006172 -0.062639 -0.003448 -0.001010
    12 x       0.181137  0.272425  0.177214 -0.087190 -0.232215  0.182259
    12 y       0.062880  0.167681  0.000519 -0.135464 -0.135582  0.181904
    12 z      -0.129746  0.150541 -0.291680 -0.414898 -0.136204  0.395825


  Frequency     692.5827  697.4449  718.6034  809.8140  813.1069  816.8347
  IR Intensity    0.0718    0.0647    0.0010    0.0000    0.0030    0.0018
     in X         0.0011    0.0633    0.0000    0.0000    0.0000    0.0000
     in Y         0.0238    0.0000    0.0000    0.0000    0.0025    0.0009
     in Z         0.0468    0.0013    0.0010    0.0000    0.0004    0.0009
  Raman Intsty    0.0001    0.0000    0.1886    0.0000    0.0007    0.0031

     1 x      -0.061287 -0.021939  0.039625 -0.012443 -0.007677 -0.075947
     1 y       0.388161 -0.000282 -0.350350 -0.000160 -0.047910 -0.479764
     1 z       0.386473 -0.003196 -0.241111 -0.001813  0.056918  0.563612
     2 x      -0.193631 -0.432669 -0.412738 -0.102315  0.165807  0.042237
     2 y       0.087302  0.123203  0.155138 -0.501750  0.483678 -0.072233
     2 z       0.127028  0.130574  0.143938  0.117698 -0.119530 -0.022810
     3 x       0.147090 -0.374203  0.350491 -0.077073 -0.136929 -0.032145
     3 y       0.091678 -0.133566  0.164940  0.499446  0.479790 -0.073188
     3 z       0.176664 -0.248121  0.255127 -0.143831 -0.163633 -0.033647
     4 x       0.091229  0.200594  0.153229  0.200856 -0.210873  0.007420
     4 y       0.097189  0.212253  0.151561  0.242825 -0.251725  0.013515
     4 z      -0.048489 -0.102814 -0.079219 -0.107743  0.111777 -0.006839
     5 x      -0.076021  0.168202 -0.128025  0.167815  0.176486 -0.005498
     5 y       0.095041 -0.207517  0.147949 -0.238091 -0.246750  0.013349
     5 z      -0.072854  0.156541 -0.120192  0.161452  0.168208 -0.008721
     6 x       0.042392  0.070961  0.075684 -0.064202  0.057947 -0.013093
     6 y      -0.172792 -0.278130 -0.266654  0.328069 -0.308333  0.053374
     6 z      -0.001742 -0.000363 -0.001128 -0.006879  0.010266 -0.000417
     7 x      -0.035774  0.060891 -0.065487 -0.055226 -0.050695  0.011321
     7 y      -0.173795  0.279823 -0.268467 -0.329602 -0.309728  0.053688
     7 z      -0.013129  0.019571 -0.021695 -0.010519 -0.005561  0.003140
     8 x       0.218281  0.075680 -0.047661  0.011757 -0.010157 -0.004932
     8 y      -0.130808 -0.049997  0.026378  0.004451 -0.004419  0.016073
     8 z      -0.207407 -0.142919 -0.060538 -0.013336  0.019038  0.006773
     9 x      -0.004450  0.379154 -0.009646 -0.039470 -0.000185  0.001147
     9 y      -0.014408  0.004869 -0.039430 -0.000507 -0.018792  0.008601
     9 z       0.031818  0.055236  0.069692 -0.005750  0.002923 -0.008633
    10 x       0.048546  0.001852 -0.019746  0.000896  0.006456  0.064147
    10 y       0.099323  0.000024 -0.031317  0.000012  0.016145  0.162897
    10 z      -0.341991  0.000270  0.138304  0.000130 -0.045738 -0.454683
    11 x      -0.009027 -0.000174  0.006339 -0.001404  0.001344  0.015573
    11 y      -0.340082 -0.000002  0.288264 -0.000018  0.036821  0.407329
    11 z       0.091942 -0.000025 -0.068925 -0.000205 -0.012472 -0.142805
    12 x      -0.146684  0.030483  0.062271  0.007573  0.004412  0.002389
    12 y      -0.135495  0.051360  0.027789 -0.004203 -0.004232  0.016167
    12 z      -0.260576  0.158385 -0.044523  0.016152  0.021160  0.007839




--------------------------------------------------------------------------------
  Vibrational properties (for cluster):  Temperature  =       0.000 K
--------------------------------------------------------------------------------
  Zero point energy            =        0.683032 eV
--------------------------------------------------------------------------------

  Phonon density of states : 

--------------------------------------------------------------------------------
 Frequency (cm-1) Density of States                                             
--------------------------------------------------------------------------------
    0.00000 |************************************************************  0.118
   12.76304 |******************************                                0.059
   25.52609 |***************                                               0.029
   38.28913 |                                                              0.000
   51.05217 |                                                              0.000
   63.81521 |                                                              0.000
   76.57826 |                                                              0.000
   89.34130 |                                                              0.000
  102.10434 |                                                              0.000
  114.86739 |***************                                               0.029
  127.63043 |                                                              0.000
  140.39347 |******************************                                0.059
  153.15651 |******************************                                0.059
  165.91956 |***************                                               0.029
  178.68260 |***************                                               0.029
  191.44564 |***************                                               0.029
  204.20869 |                                                              0.000
  216.97173 |******************************                                0.059
  229.73477 |***************                                               0.029
  242.49781 |***************                                               0.029
  255.26086 |******************************                                0.059
  268.02390 |                                                              0.000
  280.78694 |                                                              0.000
  293.54998 |                                                              0.000
  306.31303 |***************                                               0.029
  319.07607 |                                                              0.000
  331.83911 |                                                              0.000
  344.60216 |                                                              0.000
  357.36520 |                                                              0.000
  370.12824 |                                                              0.000
  382.89128 |                                                              0.000
  395.65433 |                                                              0.000
  408.41737 |                                                              0.000
  421.18041 |                                                              0.000
  433.94346 |                                                              0.000
  446.70650 |                                                              0.000
  459.46954 |***************                                               0.029
  472.23258 |                                                              0.000
  484.99563 |                                                              0.000
  497.75867 |******************************                                0.059
  510.52171 |                                                              0.000
  523.28476 |                                                              0.000
  536.04780 |                                                              0.000
  548.81084 |                                                              0.000
  561.57388 |                                                              0.000
  574.33693 |                                                              0.000
  587.09997 |                                                              0.000
  599.86301 |******************************                                0.059
  612.62606 |                                                              0.000
  625.38910 |                                                              0.000
  638.15214 |***************                                               0.029
  650.91518 |                                                              0.000
  663.67823 |                                                              0.000
  676.44127 |                                                              0.000
  689.20431 |******************************                                0.059
  701.96736 |                                                              0.000
  714.73040 |***************                                               0.029
  727.49344 |                                                              0.000
  740.25648 |                                                              0.000
  753.01953 |                                                              0.000
  765.78257 |                                                              0.000
  778.54561 |                                                              0.000
  791.30866 |                                                              0.000
  804.07170 |*********************************************                 0.088
--------------------------------------------------------------------------------



  Time to end of optimisation =       0.0311 seconds


  Peak dynamic memory used =       0.66 MB 


  Timing analysis for GULP :

--------------------------------------------------------------------------------
  Task / Subroutine                                          Time (Seconds)
--------------------------------------------------------------------------------
  Calculation of real space energy and derivatives                0.0113
  Calculation of phonons                                          0.0016
  Calculation and manipulation of Hessian matrix                  0.0081
--------------------------------------------------------------------------------
  Total CPU time                                                  0.0311
--------------------------------------------------------------------------------


  Job Finished at 11:45.09  5th May        2022                               

