********************************************************************************
*                       GENERAL UTILITY LATTICE PROGRAM                        *
*                                 Julian Gale                                  *
*                       Curtin Institute for Computation                       *
*                           Department of Chemistry                            *
*                    Curtin University, Western Australia                      *
********************************************************************************
* Version = 5.1.1 * Last modified =  24th November 2018                        *
********************************************************************************
*  optimise     - perform optimisation run                                     *
*  conp         - constant pressure calculation                                *
*  shell        - only shells and radii to be optimised                        *
*  phonon       - calculate phonons for final geometry                         *
*  eigenvectors - output phonon eigenvectors                                   *
********************************************************************************

  Job Started  at 14:39.15 25th May        2022                               

  Number of CPUs =     1

  Host name      = login03                                 


  Total number of configurations input =      1

********************************************************************************
*  Input for Configuration =   1                                               *
********************************************************************************

  Formula = Al3F9                                                       

  Number of irreducible atoms/shells =      21


  Total number atoms/shells =      21

  Dimensionality = 0               :  Cluster


  Charge on cluster =  -0.000000


  Initial cluster dipoles : x =      1.018864 e.Angs
                            y =      0.061789 e.Angs
                            z =     -0.671008 e.Angs

  Temperature of configuration =  0.000     K 

  Symmetry number =      1

  Cartesian coordinates of cluster :

--------------------------------------------------------------------------------
   No.  Atomic       x           y          z         Charge      Occupancy
        Label      (Angs)      (Angs)     (Angs)        (e)         (Frac)  
--------------------------------------------------------------------------------
      1 Al    c      0.0895      1.4871      2.1844     3.00000    1.000000    
      2 Al    c      2.6927      2.4534      1.7949     3.00000    1.000000    
      3 Al    c      1.5257      2.5108     -0.6179     3.00000    1.000000    
      4 F     c      1.1417      2.9640      2.8600     0.59000    1.000000    
      5 F     c     -1.4379      2.5558      2.2008     0.59000    1.000000    
      6 F     c     -0.3527     -0.1554      2.7772     0.59000    1.000000    
      7 F     c      1.9498      0.7393      1.9585     0.59000    1.000000    
      8 F     c      3.1055      1.7280     -0.0483     0.59000    1.000000    
      9 F     c      1.2280      2.9058     -2.3711     0.59000    1.000000    
     10 F     c      1.8882      3.8861      0.6575     0.59000    1.000000    
     11 F     c      4.2513      2.9965      2.4842     0.59000    1.000000    
     12 F     c      0.1307      1.6720      0.2364     0.59000    1.000000    
     13 F     s      1.1417 *    2.9640 *    2.8600 *  -1.59000    1.000000    
     14 F     s     -1.4379 *    2.5558 *    2.2008 *  -1.59000    1.000000    
     15 F     s     -0.3527 *   -0.1554 *    2.7772 *  -1.59000    1.000000    
     16 F     s      1.9498 *    0.7393 *    1.9585 *  -1.59000    1.000000    
     17 F     s      3.1055 *    1.7280 *   -0.0483 *  -1.59000    1.000000    
     18 F     s      1.2280 *    2.9058 *   -2.3711 *  -1.59000    1.000000    
     19 F     s      1.8882 *    3.8861 *    0.6575 *  -1.59000    1.000000    
     20 F     s      4.2513 *    2.9965 *    2.4842 *  -1.59000    1.000000    
     21 F     s      0.1307 *    1.6720 *    0.2364 *  -1.59000    1.000000    
--------------------------------------------------------------------------------


  Brillouin zone sampling points :

--------------------------------------------------------------------------------
  Point number          x          y          z            Weight
--------------------------------------------------------------------------------
        1           0.000000   0.000000   0.000000     1.00000000
--------------------------------------------------------------------------------


********************************************************************************
*  General input information                                                   *
********************************************************************************

  Species output for all configurations : 

--------------------------------------------------------------------------------
  Species    Type    Atomic    Atomic    Charge       Radii (Angs)     Library
                     Number     Mass       (e)     Cova   Ionic  VDW   Symbol
--------------------------------------------------------------------------------
    Al       Core       13      26.98   3.000000   1.350  0.000  2.050          
    F        Core        9      19.00   0.590000   0.710  0.000  1.300          
    F        Shell       9       0.00  -1.590000   0.710  0.000  1.300          
--------------------------------------------------------------------------------


  Accuracy factor for short range sums = 12.000

  Time limit = Infinity

  Maximum range for interatomic potentials =    100000.000000 Angstroms

  General interatomic potentials :

--------------------------------------------------------------------------------
Atom  Types   Potential      Parameter       Value         Units   Cutoffs(Ang)
  1     2                                                            Min /  Max 
--------------------------------------------------------------------------------
Al   c F    s Buckingham    Buckingham A     3760.0008    eV        0.000 10.000
                            Buckingham rho  0.22200000    Ang       
                            Buckingham C     0.0000000    eV*Ang^6  
--------------------------------------------------------------------------------
F    s F    s Buck 4 range  Buck4 A          1127.7000    eV        0.000 12.000
                            Buck4 rho       0.27530000    Ang       
                            Buck4 C          15.830000    eV*Ang^6  
                            Buck4 minimum    2.7900000    Ang       
--------------------------------------------------------------------------------
F    c F    s Spring (c-s)  Spring k 2       20.770000    eV*Ang^-2 0.000  0.800
                            Spring k 4       0.0000000    eV*Ang^-4 
--------------------------------------------------------------------------------

********************************************************************************
*  Output for configuration   1                                                *
********************************************************************************


  Components of energy : 

--------------------------------------------------------------------------------
  Interatomic potentials     =          10.39601052 eV    
  Monopole - monopole (real) =        -178.35513507 eV    
--------------------------------------------------------------------------------
  Total lattice energy       =        -167.95912455 eV    
--------------------------------------------------------------------------------
  Total lattice energy       =          -16205.4880 kJ/mol
--------------------------------------------------------------------------------


  Number of variables =       27

  Maximum number of calculations  =          2000
  Maximum Hessian update interval =            10
  Maximum step size               =   1.000000000
  Maximum parameter tolerance     =   0.000001000
  Maximum function  tolerance     =   0.000010000
  Maximum gradient  tolerance     =   0.000000010
  Maximum gradient  component     =   0.010000000

  Symmetry not applied to optimisation

  Newton-Raphson optimiser to be used

  BFGS hessian update to be used

  Lower half triangular hessian to be used

  Minimiser to switch to RFO
  When gradient norm is less than     0.010000

  Shell only optimisation

  Start of cluster optimisation :

  Cycle:      0 Energy:      -167.959125  Gnorm:      1.496978  CPU:    0.004
  ** Hessian calculated **
  Cycle:      1 Energy:      -184.926121  Gnorm:      0.586745  CPU:    0.005
  ** Hessian calculated **
  Cycle:      2 Energy:      -186.334393  Gnorm:      0.035443  CPU:    0.007
  Cycle:      3 Energy:      -186.341642  Gnorm:      0.006523  CPU:    0.009
  ** Hessian has required structure
  Cycle:      4 Energy:      -186.341901  Gnorm:      0.001891  CPU:    0.011
  ** Hessian has required structure
  Cycle:      5 Energy:      -186.341929  Gnorm:      0.000710  CPU:    0.012
  ** Hessian has required structure
  Cycle:      6 Energy:      -186.341933  Gnorm:      0.000388  CPU:    0.013
  ** Hessian has required structure
  Cycle:      7 Energy:      -186.341934  Gnorm:      0.000212  CPU:    0.015
  ** Hessian has required structure
  Cycle:      8 Energy:      -186.341934  Gnorm:      0.000140  CPU:    0.016
  ** Hessian has required structure
  Cycle:      9 Energy:      -186.341934  Gnorm:      0.000080  CPU:    0.017
  ** Hessian has required structure
  Cycle:     10 Energy:      -186.341934  Gnorm:      0.000060  CPU:    0.019
  ** Hessian has required structure
  Cycle:     11 Energy:      -186.341934  Gnorm:      0.000047  CPU:    0.020
  ** Hessian has required structure
  Cycle:     12 Energy:      -186.341934  Gnorm:      0.000000  CPU:    0.022
  ** Hessian has required structure
  Cycle:     13 Energy:      -186.341934  Gnorm:      0.000000  CPU:    0.023
  ** Hessian has required structure
  Cycle:     14 Energy:      -186.341934  Gnorm:      0.000000  CPU:    0.025
  ** Hessian has required structure
  Cycle:     15 Energy:      -186.341934  Gnorm:      0.000000  CPU:    0.026
  ** Hessian has required structure
  Cycle:     16 Energy:      -186.341934  Gnorm:      0.000000  CPU:    0.028
  ** Hessian has required structure
  Cycle:     17 Energy:      -186.341934  Gnorm:      0.000000  CPU:    0.029
  ** Hessian has required structure
  Cycle:     18 Energy:      -186.341934  Gnorm:      0.000000  CPU:    0.031
  ** Hessian has required structure
  Cycle:     19 Energy:      -186.341934  Gnorm:      0.000000  CPU:    0.032
  ** Hessian calculated **

  XYZ File written as 004/0/sp_mod_70/sp_mod_70_eig.xyz



  **** Optimisation achieved ****


  Final energy =    -186.34193433 eV
  Final Gnorm  =       0.00000012

  Components of energy : 

--------------------------------------------------------------------------------
  Interatomic potentials     =          37.43833089 eV    
  Monopole - monopole (real) =        -223.78026522 eV    
--------------------------------------------------------------------------------
  Total lattice energy       =        -186.34193433 eV    
--------------------------------------------------------------------------------
  Total lattice energy       =          -17979.1482 kJ/mol
--------------------------------------------------------------------------------

  Final cartesian coordinates of atoms :

--------------------------------------------------------------------------------
   No.  Atomic        x           y          z          Radius
        Label       (Angs)      (Angs)     (Angs)       (Angs) 
--------------------------------------------------------------------------------
     1  Al    c     0.089451    1.487083    2.184390    0.000000
     2  Al    c     2.692703    2.453449    1.794874    0.000000
     3  Al    c     1.525696    2.510775   -0.617885    0.000000
     4  F     c     1.141656    2.964014    2.859993    0.000000
     5  F     c    -1.437887    2.555767    2.200765    0.000000
     6  F     c    -0.352681   -0.155367    2.777211    0.000000
     7  F     c     1.949838    0.739321    1.958497    0.000000
     8  F     c     3.105508    1.727975   -0.048305    0.000000
     9  F     c     1.228032    2.905838   -2.371112    0.000000
    10  F     c     1.888205    3.886094    0.657518    0.000000
    11  F     c     4.251289    2.996495    2.484176    0.000000
    12  F     c     0.130727    1.671996    0.236405    0.000000
    13  F     s     1.219178    2.758105    2.688509    0.000000
    14  F     s    -1.206822    2.400262    2.194436    0.000000
    15  F     s    -0.281314    0.073290    2.693205    0.000000
    16  F     s     1.912619    0.998320    1.943912    0.000000
    17  F     s     2.897203    1.867873    0.021015    0.000000
    18  F     s     1.280708    2.837932   -2.083754    0.000000
    19  F     s     1.923332    3.597520    0.605142    0.000000
    20  F     s     4.016309    2.910353    2.379129    0.000000
    21  F     s     0.345786    1.762460    0.290584    0.000000
--------------------------------------------------------------------------------


  Final Cartesian derivatives :

--------------------------------------------------------------------------------
   No.  Atomic          x             y             z           Radius
        Label       (eV/Angs)     (eV/Angs)    (eV/Angs)      (eV/Angs)
--------------------------------------------------------------------------------
      1 Al    c       0.000000      0.000000      0.000000      0.000000
      2 Al    c       0.000000      0.000000      0.000000      0.000000
      3 Al    c       0.000000      0.000000      0.000000      0.000000
      4 F     c       0.000000      0.000000      0.000000      0.000000
      5 F     c       0.000000      0.000000      0.000000      0.000000
      6 F     c       0.000000      0.000000      0.000000      0.000000
      7 F     c       0.000000      0.000000      0.000000      0.000000
      8 F     c       0.000000      0.000000      0.000000      0.000000
      9 F     c       0.000000      0.000000      0.000000      0.000000
     10 F     c       0.000000      0.000000      0.000000      0.000000
     11 F     c       0.000000      0.000000      0.000000      0.000000
     12 F     c       0.000000      0.000000      0.000000      0.000000
     13 F     s      -0.000000     -0.000001     -0.000001      0.000000
     14 F     s       0.000000      0.000000      0.000000      0.000000
     15 F     s      -0.000000      0.000000      0.000000      0.000000
     16 F     s      -0.000001      0.000001      0.000000      0.000000
     17 F     s       0.000001     -0.000000      0.000000      0.000000
     18 F     s       0.000000     -0.000001      0.000002      0.000000
     19 F     s       0.000001     -0.000000     -0.000000      0.000000
     20 F     s      -0.000001     -0.000001      0.000000      0.000000
     21 F     s       0.000001     -0.000000      0.000000      0.000000
--------------------------------------------------------------------------------
  Maximum abs         0.000001      0.000001      0.000002      0.000000
--------------------------------------------------------------------------------


  Born effective charge tensors : 

-------------------------------------------------------------------------------
  Atom             x           y             z
-------------------------------------------------------------------------------
    1 Al    x       1.3542      0.1497     -0.0812
            y       0.1256      0.6839      0.1068
            z      -0.1581      0.0739      1.5820
-------------------------------------------------------------------------------
    2 Al    x       0.8068     -0.3270     -0.1771
            y      -0.3019      1.0503     -0.0363
            z      -0.0777      0.0067      1.6032
-------------------------------------------------------------------------------
    3 Al    x       1.0165      0.0439     -0.1166
            y       0.0564      1.1492      0.0841
            z      -0.1264      0.0961      0.6113
-------------------------------------------------------------------------------
    4 F     x      -0.3893      0.0042      0.0348
            y      -0.1099     -0.3652      0.0037
            z       0.0092      0.0063     -0.3786
-------------------------------------------------------------------------------
    5 F     x      -0.2653     -0.2318      0.0220
            y      -0.2214     -0.3533     -0.0044
            z       0.0316      0.0137     -0.5502
-------------------------------------------------------------------------------
    6 F     x      -0.5305      0.1071     -0.0314
            y       0.1133     -0.0583     -0.1627
            z      -0.0124     -0.1736     -0.4855
-------------------------------------------------------------------------------
    7 F     x      -0.5795      0.1220     -0.0039
            y       0.2027     -0.2029      0.0090
            z      -0.0012     -0.0099     -0.4405
-------------------------------------------------------------------------------
    8 F     x      -0.1901     -0.0604      0.1711
            y      -0.0704     -0.3066     -0.1561
            z       0.0521     -0.0544     -0.5567
-------------------------------------------------------------------------------
    9 F     x      -0.5167     -0.0283      0.0928
            y      -0.0355     -0.5065     -0.1250
            z       0.1170     -0.1157      0.0319
-------------------------------------------------------------------------------
   10 F     x      -0.3499      0.0264     -0.0239
            y       0.0633     -0.3303      0.1818
            z       0.0030      0.0695     -0.3553
-------------------------------------------------------------------------------
   11 F     x      -0.0602      0.1731      0.2250
            y       0.1670     -0.4845      0.0754
            z       0.2234      0.0834     -0.4735
-------------------------------------------------------------------------------
   12 F     x      -0.2959      0.0212     -0.1117
            y       0.0109     -0.2757      0.0238
            z      -0.0606      0.0041     -0.5881
-------------------------------------------------------------------------------




  Moment of inertia tensor (10^-46 x kgm^2): 

-------------------------------------------------------------------------------
                x           y           z           Principal axis system
-------------------------------------------------------------------------------
       x        139.91      -21.37       11.33          115.135992
       y        -21.37      188.63       19.30          149.095528
       z         11.33       19.30      135.68          199.988530
-------------------------------------------------------------------------------
  Centre of mass (Ang) =     1.359113     2.145776     1.171064
-------------------------------------------------------------------------------


  Vibrational Frequency Calculation : 

--------------------------------------------------------------------------------

  Frequencies (cm-1) and Eigenvectors : 

  Frequency     -22.5901  -15.9828   -0.0000    0.0000    0.0000   15.5178
  IR Intensity    0.0018    0.0008    0.0000    0.0000    0.0000    0.0011
     in X         0.0005    0.0000    0.0000    0.0000    0.0000    0.0004
     in Y         0.0005    0.0003    0.0000    0.0000    0.0000    0.0006
     in Z         0.0008    0.0005    0.0000    0.0000    0.0000    0.0001
  Raman Intsty    0.0007    0.0000    0.0000    0.0000    0.0000    0.0033

     1 x       0.107703 -0.020854  0.279776  0.025949  0.167753 -0.127201
     1 y      -0.025445  0.192634  0.168217  0.000960 -0.280698  0.173187
     1 z       0.128391  0.103347  0.022750 -0.326213  0.012518 -0.065450
     2 x      -0.003933  0.083693  0.279776  0.025949  0.167753 -0.056885
     2 y       0.155900 -0.201478  0.168217  0.000960 -0.280698  0.038233
     2 z      -0.121928 -0.115398  0.022750 -0.326213  0.012518  0.094704
     3 x      -0.140123 -0.078636  0.279776  0.025949  0.167753  0.214408
     3 y      -0.171959 -0.014062  0.168217  0.000960 -0.280698 -0.246935
     3 z      -0.061277 -0.029811  0.022750 -0.326213  0.012518 -0.043832
     4 x       0.030654  0.206581  0.234783  0.021776  0.140775 -0.130543
     4 y       0.063330  0.018918  0.141164  0.000805 -0.235556  0.191711
     4 z      -0.016045  0.020890  0.019091 -0.273752  0.010505 -0.117912
     5 x       0.019473  0.088922  0.234783  0.021776  0.140775 -0.082656
     5 y      -0.121325  0.314005  0.141164  0.000805 -0.235556  0.183976
     5 z      -0.036504  0.055433  0.019091 -0.273752  0.010505 -0.282491
     6 x       0.300655 -0.151247  0.234783  0.021776  0.140775 -0.208772
     6 y       0.098404  0.303184  0.141164  0.000805 -0.235556  0.236017
     6 z       0.592447  0.381634  0.019091 -0.273752  0.010505  0.121485
     7 x       0.117318 -0.157133  0.234783  0.021776  0.140775 -0.105999
     7 y       0.088541 -0.072643  0.141164  0.000805 -0.235556  0.068902
     7 z      -0.022807 -0.097710  0.019091 -0.273752  0.010505  0.218901
     8 x       0.013014 -0.123766  0.234783  0.021776  0.140775  0.098594
     8 y       0.091321 -0.206853  0.141164  0.000805 -0.235556 -0.192815
     8 z      -0.089177 -0.133659  0.019091 -0.273752  0.010505  0.211968
     9 x      -0.196005 -0.101738  0.234783  0.021776  0.140775  0.331224
     9 y      -0.240130  0.045298  0.141164  0.000805 -0.235556 -0.377185
     9 z      -0.059682 -0.006224  0.019091 -0.273752  0.010505 -0.100297
    10 x      -0.216922  0.163443  0.234783  0.021776  0.140775  0.093987
    10 y      -0.031764 -0.071267  0.141164  0.000805 -0.235556 -0.074657
    10 z      -0.137524 -0.025753  0.019091 -0.273752  0.010505 -0.152948
    11 x      -0.018207  0.206767  0.234783  0.021776  0.140775 -0.111123
    11 y       0.320486 -0.442797  0.141164  0.000805 -0.235556  0.080417
    11 z      -0.217429 -0.191124  0.019091 -0.273752  0.010505  0.185049
    12 x      -0.006658 -0.113002  0.234783  0.021776  0.140775  0.079155
    12 y      -0.219406  0.139451  0.141164  0.000805 -0.235556 -0.074043
    12 z       0.052037  0.046398  0.019091 -0.273752  0.010505 -0.066384


  Frequency      27.0501   76.8120  101.5365  116.6240  124.7781  148.4687
  IR Intensity    0.0010    0.0030    0.0074    0.0111    0.0144    0.0104
     in X         0.0000    0.0002    0.0002    0.0050    0.0021    0.0009
     in Y         0.0001    0.0007    0.0062    0.0018    0.0101    0.0075
     in Z         0.0010    0.0022    0.0009    0.0044    0.0021    0.0020
  Raman Intsty    0.0001    0.0004    0.0060    0.0068    0.0208    0.0029

     1 x      -0.054435 -0.007638  0.035094  0.047185  0.044518 -0.116814
     1 y      -0.101200 -0.127773 -0.004268  0.091445 -0.058552 -0.006145
     1 z      -0.131579  0.056715  0.068590 -0.090419  0.015662 -0.142211
     2 x      -0.062924 -0.049568 -0.041832  0.098322 -0.098680  0.036144
     2 y      -0.056985 -0.020187  0.145334  0.047929  0.212511 -0.146246
     2 z       0.060803 -0.073608 -0.067286 -0.015355  0.056133  0.126698
     3 x       0.099924  0.024784 -0.025921 -0.005040 -0.045839  0.134051
     3 y       0.135153  0.181882 -0.007777 -0.055804  0.065208  0.301059
     3 z      -0.007178 -0.066711 -0.051011 -0.005363  0.025264  0.110869
     4 x      -0.066214 -0.175268  0.013584  0.007430 -0.128128 -0.045804
     4 y      -0.204358  0.190215  0.059362  0.101128  0.189795 -0.154919
     4 z       0.118203 -0.350392  0.021101 -0.144506 -0.040786  0.034983
     5 x      -0.068204 -0.186285 -0.039756  0.038986  0.021984 -0.180369
     5 y      -0.114701 -0.365683 -0.116822  0.084896 -0.073297 -0.104476
     5 z      -0.396541  0.002460  0.336823 -0.145813 -0.119055 -0.227544
     6 x       0.052079  0.186917  0.203278  0.073384 -0.043336 -0.020717
     6 y       0.084325 -0.092970 -0.075053  0.072461 -0.053046  0.032900
     6 z       0.428977  0.251671  0.004730 -0.085554 -0.043039  0.034655
     7 x      -0.091669  0.032892 -0.091381  0.123070  0.013563  0.011077
     7 y      -0.064773 -0.016131  0.115192  0.051215  0.144271 -0.115821
     7 z      -0.315730  0.291758 -0.320446  0.034685  0.239602  0.011300
     8 x       0.140612 -0.188889  0.043970  0.096230  0.032683  0.067973
     8 y       0.214691 -0.228670  0.141338  0.080080  0.273392  0.141411
     8 z      -0.021746  0.029615 -0.035265 -0.094986  0.139961  0.061438
     9 x       0.210623  0.019739  0.184007 -0.643898  0.090757 -0.315976
     9 y       0.291318  0.249265 -0.446872 -0.047781 -0.072693 -0.500165
     9 z       0.012244 -0.035169 -0.178399  0.102088 -0.028702 -0.001099
    10 x      -0.101975  0.347053 -0.010680  0.090803 -0.288099  0.203667
    10 y      -0.000511  0.154612  0.087906 -0.002812  0.126212  0.150348
    10 z       0.181437 -0.168527 -0.110514 -0.073783  0.019629  0.193582
    11 x      -0.111426 -0.057019 -0.065049 -0.059793  0.316644  0.126156
    11 y      -0.160560 -0.115131 -0.277538 -0.242667 -0.575902  0.079819
    11 z       0.271583  0.047303  0.322996  0.538367 -0.264366 -0.262815
    12 x       0.056950  0.059495 -0.199054  0.106403  0.103097  0.090382
    12 y      -0.017985  0.184070  0.353654 -0.196106 -0.219901  0.293745
    12 z      -0.185535  0.030907  0.018206  0.001938 -0.018903  0.041869


  Frequency     150.2064  191.3032  204.4575  218.6049  238.0634  251.9427
  IR Intensity    0.0056    0.0106    0.0065    0.0056    0.0141    0.0288
     in X         0.0001    0.0074    0.0005    0.0015    0.0033    0.0115
     in Y         0.0000    0.0032    0.0043    0.0027    0.0000    0.0086
     in Z         0.0055    0.0000    0.0017    0.0014    0.0108    0.0087
  Raman Intsty    0.0378    0.0766    0.0115    0.0164    0.0188    0.0001

     1 x      -0.120628 -0.170028  0.174635 -0.042354 -0.105589 -0.114379
     1 y       0.136439  0.320293 -0.038985  0.168700  0.001936  0.104530
     1 z      -0.101210 -0.081868 -0.021735  0.279631 -0.173640  0.149607
     2 x      -0.029932  0.212457  0.010074 -0.106720 -0.232689 -0.087875
     2 y       0.211501 -0.260306  0.131647 -0.022433 -0.086276  0.044428
     2 z       0.194106 -0.056079  0.042285 -0.147186  0.099177 -0.004395
     3 x       0.182269 -0.190538 -0.202681  0.067643  0.219702 -0.106691
     3 y      -0.368881  0.066717  0.079732 -0.057903  0.111318  0.148635
     3 z       0.043171  0.137337  0.035406 -0.261651 -0.185578  0.079168
     4 x      -0.151944  0.035287  0.104208  0.119456 -0.156341  0.007786
     4 y       0.059083  0.019484 -0.041617 -0.107322 -0.059838 -0.010141
     4 z       0.161980 -0.238110  0.265485  0.409606  0.069617  0.247801
     5 x      -0.276214 -0.337158  0.230710 -0.226485  0.184674 -0.151151
     5 y      -0.129293  0.045790  0.070433 -0.102701  0.387798  0.044895
     5 z      -0.053527  0.008493 -0.514927 -0.161407  0.259620  0.001702
     6 x       0.295670  0.430573  0.253653  0.017775  0.476963  0.151891
     6 y       0.012784  0.135418 -0.088279  0.012309 -0.069997 -0.052319
     6 z      -0.091718 -0.121787 -0.098461 -0.113739  0.054573 -0.091404
     7 x      -0.074814  0.105331  0.075352  0.062491 -0.103909 -0.221916
     7 y       0.222535 -0.100044  0.091297  0.002227 -0.119971  0.106368
     7 z      -0.194960  0.142570  0.084890  0.314035  0.130483 -0.296498
     8 x       0.167306 -0.077397 -0.421103  0.119249 -0.025529 -0.171838
     8 y      -0.203361  0.066271 -0.303566  0.053380 -0.116459 -0.051892
     8 z       0.042804 -0.156295  0.102307 -0.287745  0.161108 -0.037568
     9 x      -0.149327  0.254603  0.036003 -0.008283 -0.134910  0.092537
     9 y       0.192633 -0.057627 -0.100153  0.067353  0.015911 -0.082769
     9 z       0.208810  0.030423 -0.045084 -0.216410 -0.151058 -0.004068
    10 x       0.095568 -0.168847 -0.044322 -0.096180 -0.164871  0.401761
    10 y      -0.205762 -0.092907  0.047036 -0.129578 -0.022743  0.220160
    10 z      -0.011138  0.246577  0.045696 -0.059188  0.038768 -0.106481
    11 x       0.222636  0.065986  0.028304 -0.148370 -0.159854 -0.046322
    11 y      -0.061954 -0.016125 -0.017086 -0.101666 -0.076577 -0.018956
    11 z      -0.192956  0.070223  0.110788  0.015330 -0.081063 -0.056657
    12 x      -0.166667 -0.131888 -0.241388  0.257382  0.225077  0.305403
    12 y       0.138288 -0.151245  0.136502  0.200701  0.029727 -0.509968
    12 z      -0.031438  0.018636 -0.017373  0.253484 -0.172174  0.075793


  Frequency     267.5751  282.6261  295.6028  311.2526  372.1742  383.8539
  IR Intensity    0.0603    0.0310    0.0195    0.0093    0.0004    0.0082
     in X         0.0178    0.0275    0.0002    0.0072    0.0004    0.0000
     in Y         0.0216    0.0026    0.0068    0.0012    0.0000    0.0009
     in Z         0.0210    0.0009    0.0126    0.0010    0.0000    0.0072
  Raman Intsty    0.0609    0.3582    0.0226    0.0250    0.1067    0.8149

     1 x       0.100272  0.161364 -0.048825 -0.113962  0.227170 -0.193740
     1 y       0.096041  0.102175  0.088198  0.018924  0.116483 -0.057156
     1 z      -0.260035  0.219568 -0.121860 -0.021701 -0.078124  0.215262
     2 x       0.101863  0.055549  0.052382 -0.033575 -0.155067  0.257216
     2 y       0.129000 -0.189288 -0.098641  0.095985 -0.106442 -0.016527
     2 z       0.060105 -0.102701 -0.104856 -0.058764  0.265496  0.180813
     3 x       0.090020  0.129123 -0.036165  0.027880 -0.137574 -0.071988
     3 y       0.166760  0.046894 -0.101308 -0.051888 -0.054671  0.010951
     3 z      -0.139829 -0.007674  0.008742  0.063458 -0.114886 -0.230365
     4 x       0.101347  0.277895  0.304322 -0.154435 -0.187070 -0.019366
     4 y      -0.077820  0.350815 -0.287622 -0.176748  0.303513 -0.137814
     4 z       0.193471 -0.149335  0.137053 -0.176154  0.129973 -0.144156
     5 x      -0.186404 -0.027809 -0.157033 -0.081155  0.089502 -0.121087
     5 y      -0.326189 -0.207821 -0.053048  0.153269 -0.145237  0.156494
     5 z       0.305685 -0.138654  0.033099 -0.042241  0.003625 -0.037264
     6 x      -0.207645  0.055297  0.078806 -0.051200  0.029113 -0.038199
     6 y       0.295651 -0.006566  0.107422  0.037720  0.259822 -0.246920
     6 z       0.036714 -0.123901 -0.020122  0.002402 -0.089011  0.062202
     7 x       0.152411 -0.397599  0.011300  0.461057  0.209836 -0.060711
     7 y       0.121062 -0.080297 -0.135526 -0.086717 -0.384147  0.145294
     7 z      -0.005313 -0.236055  0.142646 -0.344678 -0.167413 -0.076741
     8 x      -0.243448  0.013761  0.032873 -0.101604 -0.168691 -0.204864
     8 y      -0.302330 -0.139956  0.205670 -0.221370  0.278097  0.194937
     8 z       0.041905  0.331325  0.498501  0.147766  0.165993  0.236265
     9 x      -0.065106 -0.126116 -0.033014  0.061251  0.008428 -0.071067
     9 y      -0.038417  0.022830  0.107720  0.024273  0.053483  0.086688
     9 z      -0.174050  0.030616  0.059827  0.094801 -0.175066 -0.354393
    10 x      -0.177977 -0.332743 -0.001179 -0.257505  0.207244  0.031249
    10 y      -0.014843 -0.002883  0.249877  0.160698 -0.269655 -0.296607
    10 z       0.133409  0.103672 -0.496561 -0.116194 -0.039146 -0.060428
    11 x       0.130951 -0.068827 -0.016196 -0.000428 -0.072983  0.394971
    11 y       0.008252  0.048844 -0.035766 -0.082936 -0.022030  0.136043
    11 z       0.118401 -0.018779 -0.005125 -0.006113 -0.065762  0.158407
    12 x       0.147728  0.193792 -0.181022  0.266606 -0.037361  0.099216
    12 y      -0.132251  0.062962 -0.025560  0.116712 -0.020664  0.036639
    12 z      -0.245352  0.070993 -0.089572  0.460678  0.150429  0.018642


  Frequency     395.4920  438.7185  469.5308  520.6982  536.7616  573.4846
  IR Intensity    0.0257    0.0698    0.0395    0.0111    0.0779    0.0465
     in X         0.0006    0.0004    0.0360    0.0003    0.0044    0.0008
     in Y         0.0059    0.0011    0.0010    0.0003    0.0092    0.0073
     in Z         0.0192    0.0683    0.0025    0.0105    0.0643    0.0384
  Raman Intsty    0.4701    3.9042    0.0485    1.8333    0.1791    0.1617

     1 x      -0.046048  0.069744  0.231336 -0.023921  0.057676 -0.009858
     1 y       0.112232  0.008726  0.165350 -0.042378  0.094683  0.025997
     1 z       0.505434 -0.134522  0.285857 -0.119943  0.245202  0.101684
     2 x      -0.062574 -0.061548  0.174241 -0.014360 -0.282526 -0.079305
     2 y       0.028521  0.123650 -0.109672  0.048637  0.314212 -0.196956
     2 z      -0.174195 -0.354690 -0.136477  0.044703  0.388270  0.357332
     3 x       0.118870 -0.087588 -0.008629 -0.015507  0.100920  0.005949
     3 y       0.046482 -0.081824  0.010457 -0.073478 -0.157314  0.439762
     3 z      -0.047439 -0.030205 -0.011459 -0.106388 -0.051795  0.105213
     4 x      -0.041885  0.049044 -0.620206  0.052631  0.289257  0.092687
     4 y       0.058875 -0.275262 -0.340504  0.056320 -0.352520 -0.110275
     4 z       0.011150 -0.175301  0.002234  0.007637 -0.400649 -0.128907
     5 x      -0.134824  0.082982  0.199834 -0.033885  0.035330  0.097311
     5 y       0.095880 -0.051277 -0.126047  0.030811 -0.070840 -0.079486
     5 z      -0.034184  0.028362 -0.004997 -0.009270 -0.030758 -0.027821
     6 x      -0.055477  0.032816  0.056423 -0.000784  0.058985  0.017215
     6 y      -0.101792  0.142037  0.279234 -0.038530  0.180959  0.094879
     6 z      -0.020407 -0.029274 -0.124556  0.022102 -0.095079 -0.045940
     7 x       0.450358 -0.050834 -0.214083 -0.047327 -0.114338  0.115262
     7 y      -0.071448  0.357695 -0.013769 -0.120196 -0.204726  0.365556
     7 z      -0.119451  0.046554  0.024355  0.005753  0.024374 -0.053072
     8 x       0.087532 -0.030340  0.085650  0.342277 -0.155401  0.273945
     8 y      -0.063308  0.119369 -0.066449 -0.190586  0.048492 -0.159326
     8 z       0.208924  0.334712  0.020647  0.057841 -0.169244 -0.007645
     9 x      -0.072389 -0.004620 -0.029105 -0.073927 -0.002526 -0.014101
     9 y      -0.019845  0.011253  0.006482  0.127332 -0.003012  0.006965
     9 z      -0.058902 -0.047993 -0.038865 -0.517920 -0.010282 -0.123544
    10 x       0.098808  0.246218 -0.062841  0.052174  0.025350 -0.082183
    10 y       0.031143 -0.259975  0.142733  0.378393  0.118128 -0.246729
    10 z       0.212866  0.383365 -0.065414  0.273860  0.086923 -0.299034
    11 x      -0.144099 -0.275334  0.156085  0.094821 -0.000942 -0.199519
    11 y      -0.075119 -0.096864  0.051905  0.035946 -0.012682 -0.073154
    11 z      -0.084056 -0.115034  0.054286  0.042107 -0.021227 -0.101744
    12 x      -0.200236  0.044675 -0.044776 -0.321884  0.011965 -0.201456
    12 y      -0.077502 -0.007216 -0.012394 -0.199389 -0.003592 -0.118745
    12 z      -0.454126  0.193565 -0.032042  0.334326 -0.077206  0.115353


  Frequency     607.4481  677.3501  706.2281  778.2139  820.4206  885.8655
  IR Intensity    0.0639    0.0764    0.0303    0.0136    0.0065    0.0001
     in X         0.0028    0.0587    0.0270    0.0009    0.0012    0.0001
     in Y         0.0575    0.0058    0.0015    0.0127    0.0001    0.0000
     in Z         0.0035    0.0119    0.0018    0.0000    0.0051    0.0000
  Raman Intsty    0.0015    0.1597    0.0027    0.0006    0.0537    1.2498

     1 x      -0.068719  0.204352  0.665416 -0.016723  0.156062 -0.153652
     1 y       0.018692  0.020825 -0.069002 -0.681919  0.204020 -0.127937
     1 z       0.016640 -0.024614 -0.054475  0.161610 -0.057710  0.049251
     2 x       0.105839  0.053024  0.094597 -0.161261 -0.450827  0.500255
     2 y      -0.469176  0.051893 -0.047567 -0.124283 -0.249977  0.197826
     2 z       0.228227 -0.116993  0.193626 -0.088264 -0.007368  0.224577
     3 x       0.168036  0.634428 -0.184209  0.042719 -0.184017 -0.176800
     3 y      -0.373206  0.173411 -0.079505  0.012545  0.076757  0.087975
     3 z      -0.096704 -0.155583  0.059413 -0.075294 -0.508580 -0.561587
     4 x      -0.011501 -0.062235 -0.065636  0.053284  0.034051 -0.024906
     4 y       0.056635 -0.032759 -0.081356  0.092540 -0.043672  0.024161
     4 z       0.007395  0.008043 -0.049355  0.031260 -0.046694  0.024372
     5 x       0.129437 -0.150489 -0.486707 -0.198945 -0.008110  0.017982
     5 y      -0.082540  0.102198  0.314062  0.171021 -0.006215 -0.004348
     5 z      -0.000834 -0.005586  0.009349 -0.003032  0.006002 -0.001879
     6 x      -0.012441 -0.037089 -0.049670  0.137251 -0.036620  0.020709
     6 y       0.009615 -0.112056 -0.128842  0.514078 -0.148969  0.079435
     6 z      -0.001640  0.039483  0.045984 -0.183985  0.051717 -0.026357
     7 x       0.134118 -0.069221 -0.053819  0.026156  0.067638 -0.052777
     7 y       0.418102 -0.034329  0.072981  0.094852  0.138249 -0.101200
     7 z      -0.040577  0.008776  0.005610 -0.004782 -0.014116  0.001709
     8 x      -0.271419 -0.302392  0.065347 -0.004870  0.133861  0.102270
     8 y       0.164938  0.146698 -0.032637  0.014403 -0.046529 -0.056870
     8 z      -0.084092 -0.071268 -0.012605 -0.000211  0.061785  0.049383
     9 x      -0.017585 -0.001367 -0.005357  0.005899  0.066352  0.053858
     9 y       0.039410 -0.036793  0.015568 -0.011941 -0.081309 -0.069108
     9 z      -0.057277  0.140722 -0.057946  0.058315  0.367032  0.307815
    10 x      -0.025035 -0.035950 -0.006272  0.005137  0.041711  0.006025
    10 y       0.384004 -0.086976  0.056352  0.009235  0.069489  0.067488
    10 z       0.103441 -0.043608 -0.008889  0.019052  0.079815  0.060565
    11 x      -0.176372 -0.031264 -0.183365  0.168190  0.307848 -0.288251
    11 y      -0.040618 -0.011589 -0.055649  0.065579  0.109332 -0.100703
    11 z      -0.080776 -0.004768 -0.086114  0.076715  0.132775 -0.125746
    12 x       0.006327 -0.372700  0.099328 -0.030913 -0.036195 -0.037254
    12 y       0.031993 -0.227691  0.073170 -0.004015 -0.027079 -0.026971
    12 z      -0.022197  0.282347 -0.082650  0.008990  0.045277  0.053039




--------------------------------------------------------------------------------
  Vibrational properties (for cluster):  Temperature  =       0.000 K
--------------------------------------------------------------------------------
  Zero point energy            =        0.692651 eV
--------------------------------------------------------------------------------

  Phonon density of states : 

--------------------------------------------------------------------------------
 Frequency (cm-1) Density of States                                             
--------------------------------------------------------------------------------
    0.00000 |************************************************************  0.061
   13.84165 |************************************************************  0.061
   27.68330 |                                                              0.000
   41.52495 |                                                              0.000
   55.36660 |                                                              0.000
   69.20824 |******************************                                0.030
   83.04989 |                                                              0.000
   96.89154 |******************************                                0.030
  110.73319 |******************************                                0.030
  124.57484 |******************************                                0.030
  138.41649 |************************************************************  0.061
  152.25814 |                                                              0.000
  166.09979 |                                                              0.000
  179.94143 |******************************                                0.030
  193.78308 |******************************                                0.030
  207.62473 |******************************                                0.030
  221.46638 |                                                              0.000
  235.30803 |******************************                                0.030
  249.14968 |******************************                                0.030
  262.99133 |******************************                                0.030
  276.83298 |******************************                                0.030
  290.67462 |******************************                                0.030
  304.51627 |******************************                                0.030
  318.35792 |                                                              0.000
  332.19957 |                                                              0.000
  346.04122 |                                                              0.000
  359.88287 |******************************                                0.030
  373.72452 |******************************                                0.030
  387.56617 |******************************                                0.030
  401.40781 |                                                              0.000
  415.24946 |                                                              0.000
  429.09111 |******************************                                0.030
  442.93276 |                                                              0.000
  456.77441 |******************************                                0.030
  470.61606 |                                                              0.000
  484.45771 |                                                              0.000
  498.29936 |                                                              0.000
  512.14100 |******************************                                0.030
  525.98265 |******************************                                0.030
  539.82430 |                                                              0.000
  553.66595 |                                                              0.000
  567.50760 |******************************                                0.030
  581.34925 |                                                              0.000
  595.19090 |******************************                                0.030
  609.03255 |                                                              0.000
  622.87420 |                                                              0.000
  636.71584 |                                                              0.000
  650.55749 |                                                              0.000
  664.39914 |******************************                                0.030
  678.24079 |                                                              0.000
  692.08244 |                                                              0.000
  705.92409 |******************************                                0.030
  719.76574 |                                                              0.000
  733.60739 |                                                              0.000
  747.44903 |                                                              0.000
  761.29068 |                                                              0.000
  775.13233 |******************************                                0.030
  788.97398 |                                                              0.000
  802.81563 |                                                              0.000
  816.65728 |******************************                                0.030
  830.49893 |                                                              0.000
  844.34058 |                                                              0.000
  858.18222 |                                                              0.000
  872.02387 |******************************                                0.030
--------------------------------------------------------------------------------



  Time to end of optimisation =       0.0428 seconds


  Peak dynamic memory used =       0.65 MB 


  Timing analysis for GULP :

--------------------------------------------------------------------------------
  Task / Subroutine                                          Time (Seconds)
--------------------------------------------------------------------------------
  Calculation of real space energy and derivatives                0.0030
  Calculation of phonons                                          0.0017
  Calculation and manipulation of Hessian matrix                  0.0021
--------------------------------------------------------------------------------
  Total CPU time                                                  0.0429
--------------------------------------------------------------------------------


  Job Finished at 14:39.15 25th May        2022                               

