********************************************************************************
*                       GENERAL UTILITY LATTICE PROGRAM                        *
*                                 Julian Gale                                  *
*                       Curtin Institute for Computation                       *
*                           Department of Chemistry                            *
*                    Curtin University, Western Australia                      *
********************************************************************************
* Version = 5.1.1 * Last modified =  11th January 2019                         *
********************************************************************************
*  single       - perform a single point run                                   *
*  phonon       - calculate phonons for final geometry                         *
*  eigenvectors - output phonon eigenvectors                                   *
********************************************************************************

  Job Started  at 10:33.43 17th May        2022                               

  Number of CPUs =     1

  Host name      = login04                                 


  Total number of configurations input =      1

********************************************************************************
*  Input for Configuration =   1                                               *
********************************************************************************

  Formula = Al3F9                                                       

  Number of irreducible atoms/shells =      21


  Total number atoms/shells =      21

  Dimensionality = 0               :  Cluster


  Charge on cluster =  -0.000000


  Initial cluster dipoles : x =      0.033263 e.Angs
                            y =     -0.779075 e.Angs
                            z =     -0.114144 e.Angs

  Temperature of configuration =  0.000     K 

  Symmetry number =      1

  Cartesian coordinates of cluster :

--------------------------------------------------------------------------------
   No.  Atomic       x           y          z         Charge      Occupancy
        Label      (Angs)      (Angs)     (Angs)        (e)         (Frac)  
--------------------------------------------------------------------------------
      1 Al    c     -1.7121      2.5549     -1.2415     3.00000    1.000000    
      2 Al    c     -0.6517     -0.0327     -2.2209     3.00000    1.000000    
      3 Al    c     -2.0845     -0.3242     -0.6487     3.00000    1.000000    
      4 F     c     -0.7704      3.6678     -0.1770     0.59000    1.000000    
      5 F     c     -3.0315      3.2059     -2.3232     0.59000    1.000000    
      6 F     c     -1.3813     -2.1955     -1.8209     0.59000    1.000000    
      7 F     c     -2.6436      1.5227      0.2458     0.59000    1.000000    
      8 F     c     -3.0792     -1.1405      0.4235     0.59000    1.000000    
      9 F     c      0.4354     -0.4254     -3.4331     0.59000    1.000000    
     10 F     c     -0.1732      2.0254     -2.4649     0.59000    1.000000    
     11 F     c     -2.4739      0.5047     -2.3158     0.59000    1.000000    
     12 F     c     -0.2607      0.2081     -0.3539     0.59000    1.000000    
     13 F     s     -0.7704      3.6678     -0.1770    -1.59000    1.000000    
     14 F     s     -3.0315      3.2059     -2.3232    -1.59000    1.000000    
     15 F     s     -1.3813     -2.1955     -1.8209    -1.59000    1.000000    
     16 F     s     -2.6436      1.5227      0.2458    -1.59000    1.000000    
     17 F     s     -3.0792     -1.1405      0.4235    -1.59000    1.000000    
     18 F     s      0.4354     -0.4254     -3.4331    -1.59000    1.000000    
     19 F     s     -0.1732      2.0254     -2.4649    -1.59000    1.000000    
     20 F     s     -2.4739      0.5047     -2.3158    -1.59000    1.000000    
     21 F     s     -0.2607      0.2081     -0.3539    -1.59000    1.000000    
--------------------------------------------------------------------------------


  Brillouin zone sampling points :

--------------------------------------------------------------------------------
  Point number          x          y          z            Weight
--------------------------------------------------------------------------------
        1           0.000000   0.000000   0.000000     1.00000000
--------------------------------------------------------------------------------


********************************************************************************
*  General input information                                                   *
********************************************************************************

  Species output for all configurations : 

--------------------------------------------------------------------------------
  Species    Type    Atomic    Atomic    Charge       Radii (Angs)     Library
                     Number     Mass       (e)     Cova   Ionic  VDW   Symbol
--------------------------------------------------------------------------------
    Al       Core       13      26.98   3.000000   1.350  0.000  2.050          
    F        Core        9      19.00   0.590000   0.710  0.000  1.300          
    F        Shell       9       0.00  -1.590000   0.710  0.000  1.300          
--------------------------------------------------------------------------------


  Accuracy factor for short range sums = 12.000

  Time limit = Infinity

  Maximum range for interatomic potentials =    100000.000000 Angstroms

  General interatomic potentials :

--------------------------------------------------------------------------------
Atom  Types   Potential      Parameter       Value         Units   Cutoffs(Ang)
  1     2                                                            Min /  Max 
--------------------------------------------------------------------------------
Al   c F    s Buckingham    Buckingham A     3760.0008    eV        0.000 10.000
                            Buckingham rho  0.22200000    Ang       
                            Buckingham C     0.0000000    eV*Ang^6  
--------------------------------------------------------------------------------
F    s F    s Buck 4 range  Buck4 A          1127.7000    eV        0.000 12.000
                            Buck4 rho       0.27530000    Ang       
                            Buck4 C          15.830000    eV*Ang^6  
                            Buck4 minimum    2.7900000    Ang       
--------------------------------------------------------------------------------
F    c F    s Spring (c-s)  Spring k 2       20.770000    eV*Ang^-2 0.000  0.800
                            Spring k 4       0.0000000    eV*Ang^-4 
--------------------------------------------------------------------------------

********************************************************************************
*  Output for configuration   1                                                *
********************************************************************************


  Components of energy : 

--------------------------------------------------------------------------------
  Interatomic potentials     =           9.93066185 eV    
  Monopole - monopole (real) =        -165.62066132 eV    
--------------------------------------------------------------------------------
  Total lattice energy       =        -155.68999948 eV    
--------------------------------------------------------------------------------
  Total lattice energy       =          -15021.7050 kJ/mol
--------------------------------------------------------------------------------

  Born effective charge tensors : 

-------------------------------------------------------------------------------
  Atom             x           y             z
-------------------------------------------------------------------------------
    1 Al    x       2.4262      0.0353     -0.2469
            y       0.0868      2.1228     -0.0287
            z      -0.2373     -0.0756      2.4740
-------------------------------------------------------------------------------
    2 Al    x       1.7753      0.3058      0.2235
            y       0.5375      3.6006     -0.3849
            z       0.1974     -0.0554      1.7730
-------------------------------------------------------------------------------
    3 Al    x       1.9393     -0.3376      0.0168
            y      -0.6480      3.2217      0.9105
            z       0.0283      0.6528      1.9880
-------------------------------------------------------------------------------
    4 F     x      -0.6194     -0.1904     -0.1614
            y      -0.2284     -0.8852     -0.2830
            z      -0.1684     -0.2485     -0.6807
-------------------------------------------------------------------------------
    5 F     x      -0.8560      0.2606     -0.2860
            y       0.3020     -0.7477      0.2273
            z      -0.2783      0.1896     -0.7077
-------------------------------------------------------------------------------
    6 F     x      -0.5637     -0.0347      0.0977
            y      -0.0302     -2.9230     -0.4438
            z       0.0985     -0.4479     -0.6712
-------------------------------------------------------------------------------
    7 F     x      -0.6517      0.0793      0.4460
            y       0.0815     -1.0726     -0.0911
            z       0.4319     -0.1112     -1.0132
-------------------------------------------------------------------------------
    8 F     x      -0.4821     -0.0148      0.0226
            y      -0.0040     -0.5283      0.0066
            z       0.0242      0.0263     -0.4828
-------------------------------------------------------------------------------
    9 F     x      -0.4847      0.0269      0.0302
            y       0.0088     -0.5171     -0.0065
            z       0.0273     -0.0195     -0.4913
-------------------------------------------------------------------------------
   10 F     x      -0.8843     -0.1540      0.4143
            y      -0.1370     -1.1549      0.0902
            z       0.4319      0.0928     -0.6982
-------------------------------------------------------------------------------
   11 F     x      -0.7151      0.0954     -0.2017
            y       0.0900     -0.6459      0.0502
            z      -0.2027      0.0551     -0.6488
-------------------------------------------------------------------------------
   12 F     x      -0.8838     -0.0720     -0.3553
            y      -0.0591     -0.4705     -0.0468
            z      -0.3529     -0.0585     -0.8410
-------------------------------------------------------------------------------




  Moment of inertia tensor (10^-46 x kgm^2): 

-------------------------------------------------------------------------------
                x           y           z           Principal axis system
-------------------------------------------------------------------------------
       x        174.79        4.73       23.14          105.767256
       y          4.73      106.60       -3.81          150.365333
       z         23.14       -3.81      170.74          196.000649
-------------------------------------------------------------------------------
  Centre of mass (Ang) =    -1.485303     0.791428    -1.361789
-------------------------------------------------------------------------------


  Vibrational Frequency Calculation : 

--------------------------------------------------------------------------------

  Frequencies (cm-1) and Eigenvectors : 

  Frequency    -590.6973 -524.1380 -438.0936 -253.1894 -225.0386 -181.1832
  IR Intensity    1.3162    0.0161    0.0006    0.2905    0.0133    0.0652
     in X         0.0000    0.0072    0.0003    0.1294    0.0011    0.0004
     in Y         1.2713    0.0003    0.0000    0.0054    0.0097    0.0640
     in Z         0.0448    0.0086    0.0003    0.1558    0.0024    0.0008
  Raman Intsty    0.3433    0.0000    0.0000    0.0000    1.7826    5.5233

     1 x      -0.013383  0.233323 -0.067037  0.497599 -0.429261 -0.154497
     1 y       0.033785  0.047473 -0.013640  0.101243 -0.108434  0.113707
     1 z      -0.005932 -0.256028  0.073560 -0.546019 -0.411299 -0.119717
     2 x       0.094354 -0.231368 -0.473941 -0.104246  0.262242  0.072721
     2 y       0.378791 -0.607183  0.147470  0.248756  0.121556 -0.212601
     2 z      -0.019425 -0.000868 -0.494044  0.102097  0.213142  0.060625
     3 x      -0.077314 -0.083893  0.561390 -0.043308  0.214954  0.105729
     3 y       0.343862  0.543039 -0.129677 -0.278776  0.111935 -0.205888
     3 z       0.168949  0.346806  0.398085  0.059815  0.265031  0.024406
     4 x      -0.004460 -0.007232  0.000480  0.083068 -0.198084 -0.053683
     4 y      -0.009988 -0.001471  0.000098  0.016902 -0.160885 -0.052946
     4 z      -0.005917  0.007936 -0.000527 -0.091151 -0.210349 -0.058740
     5 x       0.009103  0.001872 -0.002154  0.112042 -0.217541 -0.088313
     5 y      -0.007904  0.000381 -0.000438  0.022797  0.130129  0.004358
     5 z       0.006830 -0.002054  0.002363 -0.122944 -0.174121 -0.079675
     6 x      -0.007059  0.056299 -0.004097 -0.077391  0.068700  0.026807
     6 y      -0.812243  0.011455 -0.000834 -0.015745  0.163181 -0.239201
     6 z      -0.157041 -0.061777  0.004495  0.084922  0.092865 -0.019921
     7 x       0.030085  0.034717  0.006680 -0.126899  0.039361 -0.319922
     7 y      -0.026981 -0.097176  0.020639 -0.091943 -0.138207  0.229342
     7 z      -0.038414 -0.032391  0.019907  0.236010 -0.073573  0.419433
     8 x       0.008873  0.001217  0.017086 -0.058398  0.044229  0.010783
     8 y       0.004665 -0.036399  0.009760 -0.149302 -0.043884 -0.016907
     8 z      -0.007879 -0.004638  0.008986  0.050841  0.017274  0.017394
     9 x      -0.007576 -0.002196 -0.008881 -0.070362  0.029670  0.021242
     9 y       0.001318  0.036200 -0.008091  0.123104 -0.046846 -0.014777
     9 z       0.010171  0.005712 -0.017989  0.090449  0.033248  0.005918
    10 x      -0.029365  0.010251 -0.016446 -0.233457 -0.042557  0.333394
    10 y      -0.039077  0.106326 -0.022626  0.018621 -0.154875  0.362272
    10 z       0.026821 -0.016953 -0.009190  0.159411  0.016316 -0.297457
    11 x       0.019551  0.000051 -0.044964 -0.038508  0.068885  0.167935
    11 y      -0.012367  0.000010 -0.009149 -0.007835  0.138143  0.094309
    11 z       0.015524 -0.000056  0.049339  0.042254  0.088391  0.170530
    12 x      -0.023508  0.002661  0.027971 -0.007222  0.150215 -0.126786
    12 y       0.001178  0.000541  0.005691 -0.001470 -0.035780 -0.003260
    12 z      -0.021205 -0.002920 -0.030693  0.007926  0.130260 -0.116148


  Frequency     -50.4224   -0.0000   -0.0000    0.0000  106.8652  107.4777
  IR Intensity    0.0462    0.0000    0.0000    0.0000    0.0000    0.0110
     in X         0.0206    0.0000    0.0000    0.0000    0.0000    0.0017
     in Y         0.0009    0.0000    0.0000    0.0000    0.0000    0.0064
     in Z         0.0248    0.0000    0.0000    0.0000    0.0000    0.0028
  Raman Intsty    0.0000    0.0000    0.0000    0.0000    0.0000    0.1373

     1 x      -0.018217 -0.326938  0.013805  0.003143  0.006665 -0.069056
     1 y      -0.003707  0.013119  0.322698 -0.052751  0.001351  0.008395
     1 z       0.019990 -0.005324 -0.052576 -0.322950 -0.007285 -0.061376
     2 x       0.087087 -0.326938  0.013805  0.003143  0.009289 -0.048056
     2 y      -0.132050  0.013119  0.322698 -0.052751 -0.008341 -0.058660
     2 z      -0.088471 -0.005324 -0.052576 -0.322950  0.015465 -0.029487
     3 x       0.053016 -0.326938  0.013805  0.003143 -0.017631 -0.023449
     3 y       0.160555  0.013119  0.322698 -0.052751  0.006663 -0.053649
     3 z      -0.065265 -0.005324 -0.052576 -0.322950 -0.006275 -0.056499
     4 x       0.111918 -0.274360  0.011585  0.002637  0.011041 -0.095455
     4 y       0.022771  0.011009  0.270802 -0.044268  0.002222  0.100490
     4 z      -0.122809 -0.004468 -0.044120 -0.271013 -0.012080 -0.068358
     5 x       0.051947 -0.274360  0.011585  0.002637  0.012979 -0.095231
     5 y       0.010569  0.011009  0.270802 -0.044268  0.002657 -0.098159
     5 z      -0.057003 -0.004468 -0.044120 -0.271013 -0.014199 -0.104989
     6 x       0.181657 -0.274360  0.011585  0.002637 -0.019312 -0.087947
     6 y       0.036960  0.011009  0.270802 -0.044268 -0.003926 -0.038965
     6 z      -0.199334 -0.004468 -0.044120 -0.271013  0.021230 -0.087369
     7 x      -0.292731 -0.274360  0.011585  0.002637 -0.036494 -0.078856
     7 y       0.396201  0.011009  0.270802 -0.044268  0.022541  0.084198
     7 z       0.367209 -0.004468 -0.044120 -0.271013 -0.026399 -0.162037
     8 x       0.049390 -0.274360  0.011585  0.002637  0.521351  0.400639
     8 y       0.157152  0.011009  0.270802 -0.044268 -0.020674  0.108379
     8 z      -0.065867 -0.004468 -0.044120 -0.271013  0.472734  0.456429
     9 x       0.087455 -0.274360  0.011585  0.002637 -0.522965  0.470032
     9 y      -0.129308  0.011009  0.270802 -0.044268  0.020338  0.122562
     9 z      -0.084294 -0.004468 -0.044120 -0.271013 -0.471340  0.379846
    10 x      -0.255087 -0.274360  0.011585  0.002637  0.033951 -0.182233
    10 y      -0.507661  0.011009  0.270802 -0.044268 -0.023099  0.063154
    10 z       0.233916 -0.004468 -0.044120 -0.271013  0.029293 -0.048572
    11 x      -0.045873 -0.274360  0.011585  0.002637 -0.012276 -0.093398
    11 y      -0.009333  0.011009  0.270802 -0.044268 -0.002464 -0.183858
    11 z       0.050339 -0.004468 -0.044120 -0.271013  0.013518 -0.119202
    12 x      -0.033920 -0.274360  0.011585  0.002637  0.013723 -0.070053
    12 y      -0.006901  0.011009  0.270802 -0.044268  0.002795 -0.033976
    12 z       0.037220 -0.004468 -0.044120 -0.271013 -0.015027 -0.070147


  Frequency     111.1761  119.0783  146.5175  158.7483  162.3349  182.0688
  IR Intensity    0.0005    0.0375    0.0005    0.0002    0.0049    0.0085
     in X         0.0002    0.0013    0.0002    0.0001    0.0009    0.0023
     in Y         0.0000    0.0361    0.0002    0.0000    0.0026    0.0053
     in Z         0.0003    0.0000    0.0001    0.0001    0.0014    0.0009
  Raman Intsty    0.0000    0.4378    0.8899    0.0000    0.4288    1.1929

     1 x      -0.078539 -0.035186  0.017425 -0.018306  0.017458 -0.035274
     1 y      -0.015980 -0.005833  0.120264 -0.003725 -0.097469  0.075276
     1 z       0.086181 -0.033149  0.038180  0.020087 -0.002163 -0.018188
     2 x       0.042803  0.047098  0.000216  0.000345  0.040811  0.035187
     2 y       0.012188 -0.138252 -0.029214 -0.005646  0.062100 -0.085631
     2 z      -0.034528  0.050045  0.006826 -0.008483  0.038041  0.037955
     3 x       0.031277  0.079114  0.011989  0.007230  0.030387  0.056460
     3 y       0.002882 -0.131738 -0.026818  0.007188  0.059979 -0.081303
     3 z      -0.046757  0.014914 -0.006093  0.000171  0.049479  0.014612
     4 x      -0.173940 -0.085052 -0.394828 -0.427465 -0.058411  0.003910
     4 y      -0.035391  0.159473  0.734973 -0.086974  0.014936  0.045590
     4 z       0.190867 -0.047944 -0.223534  0.469061 -0.050463  0.012017
     5 x      -0.145199 -0.083895  0.006621  0.483159 -0.063963  0.062065
     5 y      -0.029544 -0.161387 -0.074563  0.098305 -0.603467  0.485143
     5 z       0.159328 -0.106384 -0.007792 -0.530175 -0.170186  0.146517
     6 x       0.213309  0.115000  0.023735  0.021054  0.250494  0.473004
     6 y       0.043399 -0.137652 -0.032781  0.004284  0.026028 -0.153384
     6 z      -0.234062  0.079283  0.015551 -0.023102  0.233107  0.402618
     7 x      -0.119892  0.144647  0.096893 -0.149576 -0.013960 -0.174118
     7 y      -0.129710  0.134243 -0.019166  0.009649 -0.014825  0.033515
     7 z       0.122504 -0.048633  0.082469 -0.089243  0.011527 -0.165826
     8 x       0.221712 -0.302800  0.090845 -0.014742 -0.063728 -0.018015
     8 y      -0.476829  0.397831 -0.250739  0.029723  0.064236 -0.044243
     8 z      -0.241374  0.053774 -0.118008 -0.001184 -0.021505 -0.037827
     9 x       0.125246 -0.052642 -0.059964  0.008155 -0.039626 -0.030922
     9 y       0.547435  0.448715 -0.281422 -0.031063  0.069140 -0.046869
     9 z      -0.139371 -0.220718  0.047475  0.008411 -0.047952 -0.023664
    10 x      -0.130126 -0.056043  0.094667  0.105322  0.012427 -0.187178
    10 y       0.078841  0.093407 -0.019619 -0.018653 -0.009456  0.030857
    10 z       0.151851  0.171584  0.084912  0.137803 -0.017427 -0.151494
    11 x       0.001590  0.043896  0.006564  0.001417  0.023739 -0.133689
    11 y       0.000323 -0.193409 -0.065241  0.000288 -0.189258 -0.331715
    11 z      -0.001741  0.004141 -0.006116 -0.001555 -0.013459 -0.183341
    12 x       0.012614  0.168420  0.100160 -0.014537 -0.152617 -0.062233
    12 y       0.002562 -0.412541 -0.067985 -0.002957  0.613341  0.090329
    12 z      -0.013837  0.076991  0.078672  0.015951 -0.025356 -0.039965


  Frequency     192.7197  201.9871  204.7888  214.0838  224.4146  232.1177
  IR Intensity    0.0226    0.0474    0.0491    0.0608    0.0041    0.0122
     in X         0.0101    0.0046    0.0219    0.0271    0.0015    0.0005
     in Y         0.0004    0.0423    0.0009    0.0011    0.0010    0.0103
     in Z         0.0121    0.0005    0.0263    0.0326    0.0016    0.0015
  Raman Intsty    0.0000    0.3058    0.0000    0.0000    0.6395    2.6242

     1 x      -0.078522  0.003788  0.171776  0.082472 -0.129931  0.014933
     1 y      -0.015977 -0.212779  0.034948  0.016780  0.140358 -0.086364
     1 z       0.086163 -0.035999 -0.188491 -0.090497 -0.092383 -0.002403
     2 x      -0.052273  0.022569  0.024760  0.090122 -0.013095 -0.137388
     2 y      -0.034870 -0.146795  0.074945 -0.078985  0.023353 -0.025047
     2 z       0.022802 -0.031901 -0.050929 -0.111270  0.048196 -0.083812
     3 x      -0.022891 -0.002110  0.060651  0.084583  0.041440 -0.092395
     3 y       0.019577 -0.151815 -0.057571  0.114531  0.034449 -0.015892
     3 z       0.059675 -0.004821 -0.042792 -0.080436 -0.011646 -0.133184
     4 x       0.302287 -0.208046 -0.182387 -0.177922  0.111555  0.004983
     4 y       0.061505  0.080313 -0.037108 -0.036201 -0.184867  0.007879
     4 z      -0.331703 -0.174707  0.200131  0.195236  0.067383  0.006000
     5 x       0.110930  0.094168 -0.309788 -0.133356 -0.191733 -0.112703
     5 y       0.022571  0.355494 -0.063028 -0.027133  0.089090 -0.064217
     5 z      -0.121723  0.151729  0.339935  0.146332 -0.158212 -0.114617
     6 x      -0.160496 -0.102486  0.186562 -0.497487 -0.054174  0.367953
     6 y      -0.032655 -0.089929  0.037958 -0.101222  0.031515 -0.092962
     6 z       0.176112 -0.110068 -0.204719  0.545898 -0.043526  0.318085
     7 x      -0.396897  0.225554 -0.355301 -0.049635  0.396739  0.201229
     7 y       0.050668 -0.245911 -0.074779  0.170685  0.228497  0.051651
     7 z      -0.348034  0.167284 -0.226599  0.062396  0.197532 -0.066697
     8 x       0.009567 -0.114941 -0.070935  0.117955  0.083766  0.093593
     8 y      -0.194439  0.175124  0.232797 -0.011172 -0.105258 -0.041163
     8 z      -0.085346  0.165270  0.076233 -0.155408 -0.108971  0.013563
     9 x       0.047131  0.117224 -0.024561  0.136967 -0.078269  0.030947
     9 y       0.205977  0.222365 -0.252224  0.063039 -0.138226 -0.053909
     9 z       0.023131 -0.089487  0.028557 -0.124320  0.068832  0.082305
    10 x       0.392724  0.232712  0.246761 -0.024626  0.195022 -0.052547
    10 y      -0.051519 -0.244454  0.052692 -0.185792  0.187455  0.000018
    10 z       0.352614  0.159416  0.345710  0.019090  0.418878  0.211773
    11 x       0.000486 -0.000693  0.134840  0.146097 -0.208617  0.007486
    11 y       0.000099  0.029798  0.027436  0.029726 -0.352039  0.562417
    11 z      -0.000534  0.004896 -0.147960 -0.160312 -0.255392  0.111107
    12 x      -0.122595 -0.272387  0.068336  0.175544 -0.133234 -0.284918
    12 y      -0.024943  0.326591  0.013908  0.035717  0.007698 -0.218015
    12 z       0.134525 -0.187675 -0.074992 -0.192627 -0.119992 -0.300076


  Frequency     252.6282  275.0437  289.4244  306.4425  328.5625  344.7512
  IR Intensity    0.1911    0.0048    0.0019    0.0667    0.0701    0.0874
     in X         0.0135    0.0021    0.0008    0.0324    0.0339    0.0389
     in Y         0.1767    0.0001    0.0000    0.0037    0.0040    0.0016
     in Z         0.0008    0.0026    0.0010    0.0307    0.0322    0.0469
  Raman Intsty    0.2826    0.0000    0.0000    7.4812    0.1910    0.0000

     1 x      -0.027205 -0.173307  0.063529  0.012402  0.003862 -0.083697
     1 y       0.112324 -0.035262  0.012926 -0.197757 -0.204968 -0.017030
     1 z      -0.003968  0.190172 -0.069711 -0.025367 -0.034486  0.091842
     2 x      -0.054769  0.043517 -0.006259  0.150212 -0.147334 -0.177199
     2 y       0.254218 -0.060234  0.017183  0.135544  0.002506  0.016075
     2 z      -0.107952 -0.016351  0.071550  0.180927 -0.138098  0.170629
     3 x      -0.157564  0.000307 -0.066129  0.168686 -0.151530 -0.144480
     3 y       0.233303  0.069152 -0.031912  0.139303  0.001653 -0.081525
     3 z       0.004846 -0.031737  0.007885  0.160655 -0.133493  0.182349
     4 x      -0.077104  0.143389 -0.043432 -0.127677 -0.338574  0.020020
     4 y      -0.084210  0.029175 -0.008836 -0.001721 -0.351220  0.004073
     4 z      -0.085879 -0.157344  0.047659 -0.116673 -0.373673 -0.021970
     5 x       0.112637  0.110741 -0.049178  0.341674  0.279770  0.032259
     5 y      -0.138138  0.022531 -0.010006 -0.126747 -0.032010  0.006564
     5 z       0.077036 -0.121515  0.053964  0.287873  0.249025 -0.035398
     6 x       0.169364 -0.049256  0.042270 -0.101129  0.077121  0.100615
     6 y       0.170417 -0.010021  0.008601  0.192319 -0.063899  0.020471
     6 z       0.185944  0.054048 -0.046384 -0.056501  0.058434 -0.110405
     7 x      -0.114181 -0.193820  0.021502 -0.041682  0.078376  0.028445
     7 y      -0.264504 -0.399186  0.216121  0.159347  0.278601  0.249003
     7 z       0.340467  0.184635 -0.181656 -0.104057  0.029156  0.003934
     8 x       0.005977 -0.014436 -0.037594  0.016729  0.050000 -0.181446
     8 y       0.084336  0.116897 -0.078741  0.000195 -0.014745 -0.223249
     8 z       0.092053  0.014043 -0.004482 -0.098603 -0.001251  0.185006
     9 x       0.075337  0.009038 -0.005780 -0.094575  0.006916 -0.201436
     9 y       0.098448 -0.117995  0.069916 -0.022451 -0.023512  0.145345
     9 z       0.015943 -0.008119  0.052075  0.023532  0.046025  0.235133
    10 x       0.368206 -0.231604  0.214354 -0.135133 -0.013424  0.038170
    10 y      -0.166358  0.312627 -0.168132  0.140332  0.259923 -0.235448
    10 z      -0.188861  0.282186 -0.077153 -0.001513  0.129890 -0.077030
    11 x      -0.253704 -0.015206 -0.480214  0.129655 -0.061029  0.365312
    11 y      -0.077307 -0.003095 -0.097707 -0.188471  0.085396  0.074328
    11 z      -0.245540  0.016686  0.526944  0.083209 -0.039780 -0.400860
    12 x      -0.001089  0.395451  0.348630 -0.382650  0.272378  0.281122
    12 y      -0.337483  0.080460  0.070934 -0.244666  0.100757  0.057199
    12 z      -0.063569 -0.433933 -0.382556 -0.394081  0.266907 -0.308476


  Frequency     379.1965  420.0373  447.9462  495.4696  690.2467  881.1524
  IR Intensity    0.0476    0.0066    0.4701    0.2414    0.1998    0.0017
     in X         0.0130    0.0024    0.2567    0.0463    0.0890    0.0000
     in Y         0.0294    0.0030    0.0280    0.1264    0.0037    0.0017
     in Z         0.0052    0.0012    0.1855    0.0687    0.1071    0.0000
  Raman Intsty    1.5583    1.4313    0.0117    0.9159    0.0000    1.0538

     1 x      -0.141287 -0.048079  0.470857 -0.130673  0.026064 -0.002480
     1 y       0.047879 -0.019851 -0.358087 -0.719868  0.005303 -0.074790
     1 z      -0.119880 -0.047496  0.362705 -0.252564 -0.028600 -0.016128
     2 x       0.160891  0.173434  0.174354 -0.075794  0.330134 -0.437347
     2 y      -0.164115  0.080377  0.051421  0.096123 -0.103860  0.076327
     2 z       0.189331 -0.201055  0.120863 -0.098516 -0.358811  0.469189
     3 x       0.232372 -0.192106  0.127868 -0.121991  0.295771  0.396915
     3 y      -0.149571  0.006003  0.041962  0.086724  0.231210  0.246070
     3 z       0.110894  0.200055  0.171873 -0.047825 -0.328000 -0.446254
     4 x       0.107374  0.063703 -0.167485  0.242403 -0.005077  0.001512
     4 y       0.114580  0.065998 -0.066348  0.328141 -0.001033  0.005992
     4 z       0.119097  0.070291 -0.164935  0.281751  0.005571  0.002489
     5 x       0.245220  0.027465 -0.326461 -0.005752 -0.004388 -0.001779
     5 y      -0.216949 -0.023524  0.145838  0.078376 -0.000893  0.010336
     5 z       0.183247  0.020667 -0.270469  0.009291  0.004815  0.000296
     6 x      -0.060029  0.004387 -0.038883  0.022795 -0.029442  0.000618
     6 y      -0.126461  0.094478  0.030236  0.014294 -0.005991 -0.065874
     6 z      -0.078155  0.021516 -0.029828  0.023424  0.032306 -0.011651
     7 x      -0.011329  0.025723 -0.111841 -0.054562 -0.014856 -0.019126
     7 y       0.026736  0.153060  0.081034  0.086153 -0.023110 -0.016520
     7 z      -0.033634 -0.013859  0.034981  0.129726  0.020698  0.027162
     8 x      -0.020301 -0.355172 -0.029930  0.074601 -0.292264 -0.162634
     8 y       0.019389 -0.334845 -0.017511  0.052809 -0.244318 -0.135688
     8 z      -0.023143  0.380597 -0.006629 -0.060555  0.314667  0.175328
     9 x      -0.028352  0.393828 -0.006577 -0.060598 -0.319863  0.178167
     9 y       0.017751 -0.182450 -0.012760  0.025301  0.119771 -0.066348
     9 z      -0.014308 -0.441287 -0.032254  0.087799  0.357026 -0.198636
    10 x      -0.038956 -0.038471  0.007277  0.105210 -0.022793  0.027450
    10 y       0.021115  0.139998  0.105270  0.118661  0.015450 -0.007044
    10 z      -0.003319  0.056581 -0.095728 -0.045592  0.020615 -0.023946
    11 x      -0.510559 -0.017885 -0.245665 -0.022838 -0.046600  0.005696
    11 y       0.391782  0.013056  0.104132 -0.058536 -0.009482 -0.015232
    11 z      -0.392638 -0.013878 -0.204571 -0.031667  0.051135  0.002367
    12 x       0.016667 -0.024034 -0.001665  0.090144 -0.041628  0.021231
    12 y       0.068804 -0.005049 -0.054460 -0.005265 -0.008470 -0.004680
    12 z       0.027946 -0.022839 -0.011615  0.081174  0.045679  0.018481




--------------------------------------------------------------------------------
  Vibrational properties (for cluster):  Temperature  =       0.000 K
--------------------------------------------------------------------------------
  Zero point energy            =        0.463411 eV
--------------------------------------------------------------------------------

  Phonon density of states : 

--------------------------------------------------------------------------------
 Frequency (cm-1) Density of States                                             
--------------------------------------------------------------------------------
    0.00000 |******************************                                0.037
   13.76801 |                                                              0.000
   27.53601 |                                                              0.000
   41.30402 |                                                              0.000
   55.07203 |                                                              0.000
   68.84003 |                                                              0.000
   82.60804 |                                                              0.000
   96.37605 |************************************************************  0.074
  110.14405 |************************************************************  0.074
  123.91206 |                                                              0.000
  137.68007 |******************************                                0.037
  151.44807 |************************************************************  0.074
  165.21608 |                                                              0.000
  178.98409 |************************************************************  0.074
  192.75209 |************************************************************  0.074
  206.52010 |******************************                                0.037
  220.28811 |************************************************************  0.074
  234.05611 |                                                              0.000
  247.82412 |******************************                                0.037
  261.59213 |******************************                                0.037
  275.36013 |                                                              0.000
  289.12814 |******************************                                0.037
  302.89615 |******************************                                0.037
  316.66415 |******************************                                0.037
  330.43216 |                                                              0.000
  344.20017 |******************************                                0.037
  357.96817 |                                                              0.000
  371.73618 |******************************                                0.037
  385.50418 |                                                              0.000
  399.27219 |                                                              0.000
  413.04020 |******************************                                0.037
  426.80820 |                                                              0.000
  440.57621 |******************************                                0.037
  454.34422 |                                                              0.000
  468.11222 |                                                              0.000
  481.88023 |******************************                                0.037
  495.64824 |                                                              0.000
  509.41624 |                                                              0.000
  523.18425 |                                                              0.000
  536.95226 |                                                              0.000
  550.72026 |                                                              0.000
  564.48827 |                                                              0.000
  578.25628 |                                                              0.000
  592.02428 |                                                              0.000
  605.79229 |                                                              0.000
  619.56030 |                                                              0.000
  633.32830 |                                                              0.000
  647.09631 |                                                              0.000
  660.86432 |                                                              0.000
  674.63232 |                                                              0.000
  688.40033 |******************************                                0.037
  702.16834 |                                                              0.000
  715.93634 |                                                              0.000
  729.70435 |                                                              0.000
  743.47236 |                                                              0.000
  757.24036 |                                                              0.000
  771.00837 |                                                              0.000
  784.77638 |                                                              0.000
  798.54438 |                                                              0.000
  812.31239 |                                                              0.000
  826.08040 |                                                              0.000
  839.84840 |                                                              0.000
  853.61641 |                                                              0.000
  867.38442 |******************************                                0.037
--------------------------------------------------------------------------------



  XYZ File written as 005/4/sp_mod_-80/sp_mod_-80_eig.xyz


  Time to end of properties =       0.0122 seconds


  Peak dynamic memory used =       0.64 MB 


  Timing analysis for GULP :

--------------------------------------------------------------------------------
  Task / Subroutine                                          Time (Seconds)
--------------------------------------------------------------------------------
  Calculation of phonons                                          0.0037
--------------------------------------------------------------------------------
  Total CPU time                                                  0.0123
--------------------------------------------------------------------------------


  Job Finished at 10:33.43 17th May        2022                               

