12
Properties=species:S:1:pos:R:3:forces:R:3 energy=-186.55966184 pbc="F F F"
Al    -0.447781538    1.1044480600000002    -2.135729236    0.039664    0.210004    0.040936
Al    -0.526532214    1.052725753    0.9667732360000001    -0.028355    -0.070244    -0.006519
Al    -3.072634719    0.386944089    -2.1851439420000003    0.000716    -0.115106    -0.068515
F    -3.572854561    0.272935608    -3.875995808    0.000361    0.009921    0.014379
F    -1.374999157    -0.547942001    -2.143751045    -0.103025    -0.117723    -0.005325
F    -2.0626231870000002    2.055768803    -2.130020783    0.092294    0.030333    0.003702
F    -2.085598325    0.6451921389999999    0.186060124    0.000991    0.00085    0.004755
F    0.518392527    1.336926643    -0.556421611    0.016311    -0.002634    -0.037356
F    -0.442104775    2.710721197    1.766044147    0.003517    0.069984    0.027509
F    0.36729371499999997    -0.354098058    1.7498796449999998    0.005096    -0.008611    0.004322
F    -4.307205991999999    0.06357027    -0.858062265    -0.051895    -0.000444    0.04885
F    0.664232927    1.390415137    -3.4964160289999997    0.024325    -0.00633    -0.026738
