------------------------------------------------------------
          Invoking FHI-aims ...

          When using FHI-aims, please cite the following reference:

            Volker Blum, Ralf Gehrke, Felix Hanke, Paula Havu,
            Ville Havu, Xinguo Ren, Karsten Reuter, and Matthias Scheffler,
            'Ab Initio Molecular Simulations with Numeric Atom-Centered Orbitals',
            Computer Physics Communications 180, 2175-2196 (2009)

          In addition, many other developments in FHI-aims are likely important for
          your particular application. A partial list of references is given at the end of
          this file. Thank you for giving credit to the authors of these developments.

          For any questions about FHI-aims, please visit our slack channel at

            https://fhi-aims.slack.com

          and our main development and support site at

            https://aims-git.rz-berlin.mpg.de .

          The latter site, in particular, has a wiki to collect information, as well
          as an issue tracker to log discussions, suggest improvements, and report issues
          or bugs. https://aims-git.rz-berlin.mpg.de is also the main development site
          of the project and all new and updated code versions can be obtained there.
          Please send an email to aims-coordinators@fhi-berlin.mpg.de and we will add
          you to these sites. They are for you and everyone is welcome there.

------------------------------------------------------------



  Date     :  20220517, Time     :  121200.209
  Time zero on CPU 1             :   0.411980000000000E-01  s.
  Internal wall clock time zero  :           422021520.209  s.

  FHI-aims created a unique identifier for this run for later identification
  aims_uuid : 8BA420FC-EB22-46F2-A105-AEB4CA0DD801

  Build configuration of the current instance of FHI-aims
  -------------------------------------------------------
  FHI-aims version      : 210914
  Commit number         : GITDIR-NOTFOUND
  CMake host system     : Linux-3.10.0-693.17.1.el7.x86_64
  CMake version         : 3.21.1
  Fortran compiler      : /shared/ucl/apps/intel/2018.Update3/impi/2018.3.222/intel64/bin/mpiifort (Intel) version 18.0.3.20180410
  Fortran compiler flags: -O3 -ip -fp-model precise
  C compiler            : /shared/ucl/apps/intel/2018.Update3/compilers_and_libraries_2018.3.222/linux/bin/intel64/icc (Intel) version 18.0.3.20180410
  C compiler flags      : -O3 -ip -fp-model precise -std=gnu99
  ELPA2 kernel          : AVX2
  Using MPI
  Using ScaLAPACK
  Using LibXC
  Using i-PI
  Using RLSY
  Linking against: /shared/ucl/apps/intel/2019.Update5/compilers_and_libraries_2019.5.281/linux/mkl/lib/intel64/libmkl_intel_lp64.so
                   /shared/ucl/apps/intel/2019.Update5/compilers_and_libraries_2019.5.281/linux/mkl/lib/intel64/libmkl_sequential.so
                   /shared/ucl/apps/intel/2019.Update5/compilers_and_libraries_2019.5.281/linux/mkl/lib/intel64/libmkl_core.so
                   /shared/ucl/apps/intel/2019.Update5/compilers_and_libraries_2019.5.281/linux/mkl/lib/intel64/libmkl_blacs_intelmpi_lp64.so
                   /shared/ucl/apps/intel/2019.Update5/compilers_and_libraries_2019.5.281/linux/mkl/lib/intel64/libmkl_scalapack_lp64.so

  Using       24 parallel tasks.
  Task        0 on host node-k98a-014 reporting.
  Task        1 on host node-k98a-014 reporting.
  Task        2 on host node-k98a-014 reporting.
  Task        3 on host node-k98a-014 reporting.
  Task        4 on host node-k98a-014 reporting.
  Task        5 on host node-k98a-014 reporting.
  Task        6 on host node-k98a-014 reporting.
  Task        7 on host node-k98a-014 reporting.
  Task        8 on host node-k98a-014 reporting.
  Task        9 on host node-k98a-014 reporting.
  Task       10 on host node-k98a-014 reporting.
  Task       11 on host node-k98a-014 reporting.
  Task       12 on host node-k98a-014 reporting.
  Task       13 on host node-k98a-014 reporting.
  Task       14 on host node-k98a-014 reporting.
  Task       15 on host node-k98a-014 reporting.
  Task       16 on host node-k98a-014 reporting.
  Task       17 on host node-k98a-014 reporting.
  Task       18 on host node-k98a-014 reporting.
  Task       19 on host node-k98a-014 reporting.
  Task       20 on host node-k98a-014 reporting.
  Task       21 on host node-k98a-014 reporting.
  Task       22 on host node-k98a-014 reporting.
  Task       23 on host node-k98a-014 reporting.

  Performing system and environment tests:
  | Environment variable OMP_NUM_THREADS correctly set to 1.
  | Checking for ScaLAPACK...
  | Testing pdtran()...
  | All pdtran() tests passed.

  Obtaining array dimensions for all initial allocations:
  
  -----------------------------------------------------------------------
  Parsing control.in (first pass over file, find array dimensions only).
  The contents of control.in will be repeated verbatim below
  unless switched off by setting 'verbatim_writeout .false.' .
  in the first line of control.in .
  -----------------------------------------------------------------------
  
  #########################################################################################  Physical model
  #########################################################################################
  xc                 pbesol
  spin               none
  relativistic       atomic_zora scalar
  charge             0.0
  #  SCF convergence
  occupation_type    gaussian 0.01
  mixer              pulay
  n_max_pulay        10
  charge_mix_param   0.5
  sc_accuracy_rho    1E-5
  sc_accuracy_eev    1E-3
  sc_accuracy_etot   1E-6
  sc_accuracy_forces 1E-4
  sc_iter_limit      1500
  #  Relaxation
  #relax_geometry   bfgs 1.e-3
  
  ################################################################################
  #
  #  FHI-aims code project
  #  VB, Fritz-Haber Institut, 2009
  #
  #  Suggested "light" defaults for Al atom (to be pasted into control.in file)
  #  Be sure to double-check any results obtained with these settings for post-processing,
  #  e.g., with the "tight" defaults and larger basis sets.
  #
  ################################################################################
    species        Al
  #     global species definitions
      nucleus             13
      mass                26.9815386
  #
      l_hartree           4
  #
      cut_pot             3.5          1.5  1.0
      basis_dep_cutoff    1e-4
  #
      radial_base         41 5.0
      radial_multiplier   1
      angular_grids       specified
        division   0.6594  110
        division   0.8170  194
        division   0.9059  302
  #      division   1.0363  434
  #      division   1.1443  590
  #      division   1.2621  770
  #      division   2.8177  974
  #      outer_grid   974
        outer_grid   302
  ################################################################################
  #
  #  Definition of "minimal" basis
  #
  ################################################################################
  #     valence basis states
      valence      3  s   2.
      valence      3  p   1.
  #     ion occupancy
      ion_occ      3  s   1.
      ion_occ      2  p   6.
  ################################################################################
  #
  #  Suggested additional basis functions. For production calculations,
  #  uncomment them one after another (the most important basis functions are
  #  listed first).
  #
  #  Constructed for dimers: 2.0 A, 2.5 A, 3.0 A, 3.75 A, 4.5 A
  #
  ################################################################################
  #  "First tier" - improvements: -199.47 meV to -10.63 meV
       ionic 3 d auto
       ionic 3 p auto
  #     hydro 4 f 4.7
       ionic 3 s auto
  #  "Second tier" - improvements: -5.35 meV to -1.57 meV
  #     hydro 5 g 7
  #     hydro 3 d 6
  #     hydro 2 s 11.6
  #     hydro 2 p 0.9
  #  "Third tier" - improvements: -0.63 meV to -0.20 meV
  #     hydro 5 f 7.6
  #     hydro 4 p 7.2
  #     hydro 4 s 3.7
  #     hydro 4 d 7.6
  #  "Fourth tier" - improvements: -0.17 meV to -0.08 meV
  #     hydro 4 d 13.6
  #     hydro 5 g 11.2
  #     hydro 4 d 0.9
  #     hydro 1 s 0.4
  #     hydro 4 p 0.1
  #     hydro 5 f 9.8
  #  Further basis functions that fell out of the optimization - noise level...
  #     hydro 4 p 5
  
  ################################################################################
  #
  #  FHI-aims code project
  #  VB, Fritz-Haber Institut, 2009
  #
  #  Suggested "light" defaults for F atom (to be pasted into control.in file)
  #  Be sure to double-check any results obtained with these settings for post-processing,
  #  e.g., with the "tight" defaults and larger basis sets.
  #
  ################################################################################
    species        F
  #     global species definitions
      nucleus             9
      mass                18.9984032
  #
      l_hartree           4
  #
      cut_pot             3.5  1.5  1.0
      basis_dep_cutoff    1e-4
  #
      radial_base         37 5.0
      radial_multiplier   1
      angular_grids specified
        division   0.4014  110
        division   0.5291  194
        division   0.6019  302
  #      division   0.6814  434
  #      division   0.7989  590
  #      division   0.8965  770
  #      division   1.3427  974
  #      outer_grid   974
        outer_grid   302
  ################################################################################
  #
  #  Definition of "minimal" basis
  #
  ################################################################################
  #     valence basis states
      valence      2  s   2.
      valence      2  p   5.
  #     ion occupancy
      ion_occ      2  s   1.
      ion_occ      2  p   4.
  ################################################################################
  #
  #  Suggested additional basis functions. For production calculations,
  #  uncomment them one after another (the most important basis functions are
  #  listed first).
  #
  #  Constructed for dimers: 1.2 A, 1.418 A, 1.75 A, 2.25 A, 3.25 A
  #
  ################################################################################
  #  "First tier" - improvements: -149.44 meV to -45.88 meV
       hydro 2 p 1.7
       hydro 3 d 7.4
       hydro 3 s 6.8
  #  "Second tier" - improvements: -12.96 meV to -1.56 meV
  #     hydro 4 f 11.2
  #     ionic 2 p auto
  #     hydro 1 s 0.75
  #     hydro 4 d 8.8
  #     hydro 5 g 16.8
  #  "Third tier" - improvements: -0.58 meV to -0.05 meV
  #     hydro 3 p 6.2
  #     hydro 3 s 3.2
  #     hydro 4 f 9.6
  #     hydro 3 s 19.6
  #     hydro 4 d 8.6
  #     hydro 5 g 14.4
  # Further basis functions: -0.05 meV and below
  #     hydro 3 p 4.2
  
  -----------------------------------------------------------------------
  Completed first pass over input file control.in .
  -----------------------------------------------------------------------
  
  
  -----------------------------------------------------------------------
  Parsing geometry.in (first pass over file, find array dimensions only).
  The contents of geometry.in will be repeated verbatim below
  unless switched off by setting 'verbatim_writeout .false.' .
  in the first line of geometry.in .
  -----------------------------------------------------------------------
  
  atom -0.126042613 1.652741172 2.173027220 Al
  atom 2.620815296 2.179717025 1.962943175 Al
  atom 1.529876084 2.460466984 -0.701452854 Al
  atom 0.982905378 3.133065736 2.845604063 F
  atom -1.467091483 2.613765122 2.172136386 F
  atom -0.503322671 -0.015262266 2.749363030 F
  atom 1.908768153 1.245417593 1.896199465 F
  atom 2.772834145 1.980974253 -0.127776816 F
  atom 1.071289009 3.064318933 -2.459127812 F
  atom 1.703798894 4.277052187 0.639745267 F
  atom 3.968218968 3.099081177 2.394145580 F
  atom -0.057348991 1.792632610 0.233305893 F
  
  -----------------------------------------------------------------------
  Completed first pass over input file geometry.in .
  -----------------------------------------------------------------------
  

  Basic array size parameters:
  | Number of species                 :        2
  | Number of atoms                   :       12
  | Max. basis fn. angular momentum   :        2
  | Max. atomic/ionic basis occupied n:        3
  | Max. number of basis fn. types    :        3
  | Max. radial fns per species/type  :        5
  | Max. logarithmic grid size        :     1340
  | Max. radial integration grid size :       41
  | Max. angular integration grid size:      302
  | Max. angular grid division number :        8
  | Radial grid for Hartree potential :     1340
  | Number of spin channels           :        1

------------------------------------------------------------
          Reading file control.in.
------------------------------------------------------------
  XC: Using PBEsol gradient-corrected functionals.
  Spin treatment: No spin polarisation.
  Scalar relativistic treatment of kinetic energy: on-site free-atom approximation to ZORA.
  Charge =   0.000000E+00: Neutral system requested explicitly.
  Occupation type: Gaussian broadening, width =   0.100000E-01 eV.
  Using pulay charge density mixing.
  Pulay mixing - number of memorized iterations:   10
  Charge density mixing - mixing parameter:     0.5000
  Convergence accuracy of self-consistent charge density:  0.1000E-04
  Convergence accuracy of sum of eigenvalues:  0.1000E-02
  Convergence accuracy of total energy:  0.1000E-05
  Convergence accuracy of forces:  0.1000E-03
  Maximum number of s.-c. iterations  :  1500
 
  Reading configuration options for species Al                  .
  | Found nuclear charge :  13.0000
  | Found atomic mass :    26.9815386000000      amu
  | Found l_max for Hartree potential  :   4
  | Found cutoff potl. onset [A], width [A], scale factor :    3.50000    1.50000    1.00000
  | Threshold for basis-dependent cutoff potential is   0.100000E-03
  | Found data for basic radial integration grid :    41 points, outermost radius =    5.000 A
  | Found multiplier for basic radial grid :   1
  | Found angular grid specification: user-specified.
  | Specified grid contains     4 separate shells.
  | Check grid settings after all constraints further below.
  | Found free-atom valence shell :  3 s   2.000
  | Found free-atom valence shell :  3 p   1.000
  | Found free-ion valence shell :  3 s   1.000
  | Found free-ion valence shell :  2 p   6.000
  | Found ionic basis function :  3 d , default cutoff radius.
  | Found ionic basis function :  3 p , default cutoff radius.
  | Found ionic basis function :  3 s , default cutoff radius.
  Species Al                  : Missing cutoff potential type.
  Defaulting to exp(1/x)/(1-x)^2 type cutoff potential.
  Species Al: No 'logarithmic' tag. Using default grid for free atom:
  | Default logarithmic grid data [bohr] : 0.1000E-03 0.1000E+03 0.1012E+01
  | Will include ionic basis functions of  2.0-fold positive Al                   ion.
  Species Al: On-site basis accuracy parameter (for Gram-Schmidt orthonormalisation) not specified.
  Using default value basis_acc =  0.1000000E-03.
  Species Al                  : Using default innermost maximum threshold i_radial=  2 for radial functions.
  Species Al                  : Default cutoff onset for free atom density etc. : 0.35000000E+01 AA.
  Species Al                  : Basic radial grid will be enhanced according to radial_multiplier =   1, to contain    41 grid points.
 
  Reading configuration options for species F                   .
  | Found nuclear charge :   9.0000
  | Found atomic mass :    18.9984032000000      amu
  | Found l_max for Hartree potential  :   4
  | Found cutoff potl. onset [A], width [A], scale factor :    3.50000    1.50000    1.00000
  | Threshold for basis-dependent cutoff potential is   0.100000E-03
  | Found data for basic radial integration grid :    37 points, outermost radius =    5.000 A
  | Found multiplier for basic radial grid :   1
  | Found angular grid specification: user-specified.
  | Specified grid contains     4 separate shells.
  | Check grid settings after all constraints further below.
  | Found free-atom valence shell :  2 s   2.000
  | Found free-atom valence shell :  2 p   5.000
  | Found free-ion valence shell :  2 s   1.000
  | Found free-ion valence shell :  2 p   4.000
  | Found hydrogenic basis function :  2 p   1.700
  | Found hydrogenic basis function :  3 d   7.400
  | Found hydrogenic basis function :  3 s   6.800
  Species F                   : Missing cutoff potential type.
  Defaulting to exp(1/x)/(1-x)^2 type cutoff potential.
  Species F : No 'logarithmic' tag. Using default grid for free atom:
  | Default logarithmic grid data [bohr] : 0.1000E-03 0.1000E+03 0.1012E+01
  Species F : On-site basis accuracy parameter (for Gram-Schmidt orthonormalisation) not specified.
  Using default value basis_acc =  0.1000000E-03.
  Species F                   : Using default innermost maximum threshold i_radial=  2 for radial functions.
  Species F                   : Default cutoff onset for free atom density etc. : 0.35000000E+01 AA.
  Species F                   : Basic radial grid will be enhanced according to radial_multiplier =   1, to contain    37 grid points.
 
  Finished reading input file 'control.in'.
 
------------------------------------------------------------


------------------------------------------------------------
          Reading geometry description geometry.in.
------------------------------------------------------------
  | The smallest distance between any two atoms is         1.17659733 AA.
  | The first atom of this pair is atom number                      2 .
  | The second atom of this pair is atom number                     7 .
  Input structure read successfully.
  The structure contains       12 atoms,  and a total of        120.000 electrons.

  Input geometry:
  | No unit cell requested.
  | Atomic structure:
  |       Atom                x [A]            y [A]            z [A]
  |    1: Species Al           -0.12604261        1.65274117        2.17302722
  |    2: Species Al            2.62081530        2.17971702        1.96294317
  |    3: Species Al            1.52987608        2.46046698       -0.70145285
  |    4: Species F             0.98290538        3.13306574        2.84560406
  |    5: Species F            -1.46709148        2.61376512        2.17213639
  |    6: Species F            -0.50332267       -0.01526227        2.74936303
  |    7: Species F             1.90876815        1.24541759        1.89619947
  |    8: Species F             2.77283415        1.98097425       -0.12777682
  |    9: Species F             1.07128901        3.06431893       -2.45912781
  |   10: Species F             1.70379889        4.27705219        0.63974527
  |   11: Species F             3.96821897        3.09908118        2.39414558
  |   12: Species F            -0.05734899        1.79263261        0.23330589

 
  Finished reading input file 'control.in'.
 

------------------------------------------------------------
          Reading geometry description geometry.in.
------------------------------------------------------------
 
  Consistency checks for stacksize environment parameter are next.
 
  | Maximum stacksize for task 0: unlimited
  | Maximum stacksize for task 1: unlimited
  | Maximum stacksize for task 2: unlimited
  | Maximum stacksize for task 3: unlimited
  | Maximum stacksize for task 4: unlimited
  | Maximum stacksize for task 5: unlimited
  | Maximum stacksize for task 6: unlimited
  | Maximum stacksize for task 7: unlimited
  | Maximum stacksize for task 8: unlimited
  | Maximum stacksize for task 9: unlimited
  | Maximum stacksize for task 10: unlimited
  | Maximum stacksize for task 11: unlimited
  | Maximum stacksize for task 12: unlimited
  | Maximum stacksize for task 13: unlimited
  | Maximum stacksize for task 14: unlimited
  | Maximum stacksize for task 15: unlimited
  | Maximum stacksize for task 16: unlimited
  | Maximum stacksize for task 17: unlimited
  | Maximum stacksize for task 18: unlimited
  | Maximum stacksize for task 19: unlimited
  | Maximum stacksize for task 20: unlimited
  | Maximum stacksize for task 21: unlimited
  | Maximum stacksize for task 22: unlimited
  | Maximum stacksize for task 23: unlimited
  | Current stacksize for task 0: unlimited
  | Current stacksize for task 1: unlimited
  | Current stacksize for task 2: unlimited
  | Current stacksize for task 3: unlimited
  | Current stacksize for task 4: unlimited
  | Current stacksize for task 5: unlimited
  | Current stacksize for task 6: unlimited
  | Current stacksize for task 7: unlimited
  | Current stacksize for task 8: unlimited
  | Current stacksize for task 9: unlimited
  | Current stacksize for task 10: unlimited
  | Current stacksize for task 11: unlimited
  | Current stacksize for task 12: unlimited
  | Current stacksize for task 13: unlimited
  | Current stacksize for task 14: unlimited
  | Current stacksize for task 15: unlimited
  | Current stacksize for task 16: unlimited
  | Current stacksize for task 17: unlimited
  | Current stacksize for task 18: unlimited
  | Current stacksize for task 19: unlimited
  | Current stacksize for task 20: unlimited
  | Current stacksize for task 21: unlimited
  | Current stacksize for task 22: unlimited
  | Current stacksize for task 23: unlimited
 
  Consistency checks for the contents of control.in are next.
 
  MPI_IN_PLACE appears to work with this MPI implementation.
  | Keeping use_mpi_in_place .true. (see manual).
  Target number of points in a grid batch is not set. Defaulting to  100
  Method for grid partitioning is not set. Defaulting to parallel hash+maxmin partitioning.
  Batch size limit is not set. Defaulting to    200
  By default, will store active basis functions for each batch.
  If in need of memory, prune_basis_once .false. can be used to disable this option.
  communication_type for Hartree potential was not specified.
  Defaulting to calc_hartree .
  Pulay mixer: Number of initial linear mixing iterations not set.
  Defaulting to    0 iterations.
  Work space size for distributed Hartree potential not set.
  Defaulting to   0.200000E+03 MB.
  Algorithm-dependent basis array size parameters:
  | n_max_pulay                         :       10
  Presetting      1001 iterations before the initial mixing cycle
  is restarted anyway using the sc_init_iter criterion / keyword.
  Presetting a factor      1.000 between actual scf density residual
  and density convergence criterion sc_accuracy_rho below which sc_init_iter
  takes no effect.
  Geometry relaxation not requested: no relaxation will be performed.
  Forces evaluation will include force correction term due to incomplete self-consistency (default).
  Handling of forces: Unphysical translation and rotation will be removed from forces.
  No accuracy limit for integral partition fn. given. Defaulting to  0.1000E-14.
  No threshold value for u(r) in integrations given. Defaulting to  0.1000E-05.
  No accuracy for occupation numbers given. Defaulting to  0.1000E-12.
  No threshold value for occupation numbers given. Defaulting to  0.0000E+00.
  No accuracy for fermi level given. Defaulting to  0.1000E-19.
  Maximum # of iterations to find E_F not set. Defaulting to  200.
  Preferred method for the eigenvalue solver ('KS_method') not specified in 'control.in'.
  Calling BLACS routine to test compilation state
  Since ScaLAPACK support is enabled, defaulting to ELPA (via ELSI).
  Will not use alltoall communication since running on < 1024 CPUs.
  Threshold for basis singularities not set.
  Default threshold for basis singularities:  0.1000E-04
  partition_type (choice of integration weights) for integrals was not specified.
  | Using a version of the partition function of Stratmann and coworkers ('stratmann_sparse').
  | At each grid point, the set of atoms used to build the partition table is smoothly restricted to
  | only those atoms whose free-atom density would be non-zero at that grid point.
  Partitioning for Hartree potential was not defined. Using partition_type for integrals.
  | Adjusted default value of keyword multip_moments_threshold to:       0.10000000E-11
  | This value may affect high angular momentum components of the Hartree potential in periodic systems.
  No q(lm)/r^(l+1) cutoff set for long-range Hartree potential.
  | Using default value of  0.100000E-09 .
  | Verify using the multipole_threshold keyword.
  Defaulting to new monopole extrapolation.
  Density update method: automatic selection selected.
  Charge integration errors on the 3D integration grid will be compensated
  by explicit normalization and distribution of residual charges.
  Use the "compensate_multipole_errors" flag to change this behaviour.
  Set 'collect_eigenvectors' to be '.true.' for use_density_matrix .false.
 
  Consistency checks for the contents of geometry.in are next.
 
  Number of empty states per atom not set in control.in - providing a guess from actual geometry.
  | Total number of empty states used during s.c.f. cycle:       36
  If you use a very high smearing, use empty_states (per atom!) in control.in to increase this value.

  Structure-dependent array size parameters: 
  | Maximum number of distinct radial functions  :       14
  | Maximum number of basis functions            :      180
  | Number of Kohn-Sham states (occupied + empty):       96
------------------------------------------------------------

------------------------------------------------------------
          Preparing all fixed parts of the calculation.
------------------------------------------------------------
  Determining machine precision:
    2.225073858507201E-308
  Setting up grids for atomic and cluster calculations.

  Creating wave function, potential, and density for free atoms.

  Species: Al

  List of occupied orbitals and eigenvalues:
    n    l              occ      energy [Ha]    energy [eV]
    1    0           2.0000       -55.621123     -1513.5278
    2    0           2.0000        -3.957030      -107.6763
    3    0           2.0000        -0.272233        -7.4078
    2    1           6.0000        -2.540949       -69.1427
    3    1           1.0000        -0.083300        -2.2667


  Species: F

  List of occupied orbitals and eigenvalues:
    n    l              occ      energy [Ha]    energy [eV]
    1    0           2.0000       -24.399611      -663.9472
    2    0           2.0000        -1.098702       -29.8972
    2    1           5.0000        -0.408210       -11.1080


  Adding cutoff potential to free-atom effective potential.
  Creating fixed part of basis set: Ionic, confined, hydrogenic.
 
  Al                   ion:

  List of free ionic orbitals and eigenvalues:
    n    l      energy [Ha]    energy [eV]
    1    0       -56.418846     -1535.2349
    2    0        -4.732717      -128.7838
    3    0        -0.872690       -23.7471
    2    1        -3.317230       -90.2664


  List of ionic basis orbitals and eigenvalues:
    n    l      energy [Ha]    energy [eV]    outer radius [A]
    3    2        -0.346815        -9.4373       4.594041
    3    1        -0.631870       -17.1940       4.538221
    3    0        -0.872657       -23.7462       4.538221

 
  F                    hydrogenic:
 
  List of hydrogenic basis orbitals: 
    n    l      effective z      eigenvalue [eV]  inner max. [A]     outer max. [A]     outer radius [A]   
    2    1         1.700000        -9.7616           1.243167           1.243167           4.598524
    3    2         7.400000       -82.7828           0.642437           0.642437           3.305741
    3    0         6.800000       -69.9026           0.057798           1.022307           3.781556
 
  Creating atomic-like basis functions for current effective potential.

  Species Al                  :

  List of atomic basis orbitals and eigenvalues:
    n    l      energy [Ha]    energy [eV]    outer radius [A]
    1    0       -55.621123     -1513.5278       0.850197
    2    0        -3.957030      -107.6763       3.144911
    3    0        -0.272233        -7.4078       4.594041
    2    1        -2.540949       -69.1427       3.731966
    3    1        -0.083300        -2.2667       4.594041


  Species F                   :

  List of atomic basis orbitals and eigenvalues:
    n    l      energy [Ha]    energy [eV]    outer radius [A]
    1    0       -24.399611      -663.9472       1.258458
    2    0        -1.098702       -29.8972       4.325857
    2    1        -0.408210       -11.1080       4.487453

  Assembling full basis from fixed parts.
  | Species Al :   atomic orbital   1 s accepted.
  | Species Al :   atomic orbital   2 s accepted.
  | Species Al :    ionic orbital   3 s accepted.
  | Species Al :   atomic orbital   3 s accepted.
  | Species Al :   atomic orbital   2 p accepted.
  | Species Al :    ionic orbital   3 p accepted.
  | Species Al :   atomic orbital   3 p accepted.
  | Species Al :    ionic orbital   3 d accepted.
  | Species F :   atomic orbital   1 s accepted.
  | Species F :    hydro orbital   3 s accepted.
  | Species F :   atomic orbital   2 s accepted.
  | Species F :   atomic orbital   2 p accepted.
  | Species F :    hydro orbital   2 p accepted.
  | Species F :    hydro orbital   3 d accepted.
 
  Basis size parameters after reduction:
  | Total number of radial functions:       14
  | Total number of basis functions :      180
 
  Per-task memory consumption for arrays in subroutine allocate_ext:
  |           4.807768MB.
  Testing on-site integration grid accuracy.
  |  Species  Function  <phi|h_atom|phi> (log., in eV)  <phi|h_atom|phi> (rad., in eV)
           1        1              -1513.5277717935              -1513.5271881332
           1        2               -107.6762691836               -107.6762662489
           1        3                 -6.9467474784                 -6.9471269649
           1        4                  5.5771951849                  5.4862107220 ***
           1        5                -69.1427313144                -69.1427312731
           1        6                 -1.5197375330                 -1.5230432022
           1        7                  6.8210948310                  6.5529872240 ***
           1        8                  4.3216540965                  4.2851170187 ***
           2        9               -663.9471986398               -663.9470363334
           2       10                 16.8514011578                 16.8512525338
           2       11                -28.4490593856                -28.4490661472
           2       12                -11.1080115307                -11.1080620173
           2       13                  7.1940182175                  7.1685154137
           2       14                 44.8544281765                 44.8543763625
 * Note: Onsite integrals marked "***" above are less accurate than
 * onsite_accuracy_threshold =    0.03000 eV. Usually, this is harmless.
 * When in doubt, tighten the "radial" and/or "radial_multiplier" flags to check.

  Preparing densities etc. for the partition functions (integrals / Hartree potential).

  Preparations completed.
  max(cpu_time)          :      0.184 s.
  Wall clock time (cpu1) :      0.185 s.
------------------------------------------------------------

------------------------------------------------------------
          Begin self-consistency loop: Initialization.

          Date     :  20220517, Time     :  121200.438
------------------------------------------------------------

  Initializing index lists of integration centers etc. from given atomic structure:
  | Number of centers in hartree potential         :        12
  | Number of centers in hartree multipole         :        12
  | Number of centers in electron density summation:        12
  | Number of centers in basis integrals           :        12
  | Number of centers in integrals                 :        12
  | Number of centers in hamiltonian               :        12
  * Using 24 tasks for Scalapack Eigenvalue solver.
  Detailed listing of tasks and assigned k-points:
  (for non-periodic systems, the "k-point" denotes an internal label only)
   Task     0 k-point     1 on node-k98a-014
   Task     1 k-point     1 on node-k98a-014
   Task     2 k-point     1 on node-k98a-014
   Task     3 k-point     1 on node-k98a-014
   Task     4 k-point     1 on node-k98a-014
   Task     5 k-point     1 on node-k98a-014
   Task     6 k-point     1 on node-k98a-014
   Task     7 k-point     1 on node-k98a-014
   Task     8 k-point     1 on node-k98a-014
   Task     9 k-point     1 on node-k98a-014
   Task    10 k-point     1 on node-k98a-014
   Task    11 k-point     1 on node-k98a-014
   Task    12 k-point     1 on node-k98a-014
   Task    13 k-point     1 on node-k98a-014
   Task    14 k-point     1 on node-k98a-014
   Task    15 k-point     1 on node-k98a-014
   Task    16 k-point     1 on node-k98a-014
   Task    17 k-point     1 on node-k98a-014
   Task    18 k-point     1 on node-k98a-014
   Task    19 k-point     1 on node-k98a-014
   Task    20 k-point     1 on node-k98a-014
   Task    21 k-point     1 on node-k98a-014
   Task    22 k-point     1 on node-k98a-014
   Task    23 k-point     1 on node-k98a-014
  Tasks:    24 split into      6 X      4 BLACS grid
  Calculating block size based on n_basis =          180  max_nprow =            6  max_npcol =            4
  ScaLAPACK block size set to:           16
  Allocating        0.012 MB for ovlp
  Allocating        0.012 MB for ham
  Allocating        0.012 MB for eigenvec
  Required Scalapack workspace - INTEGER:            1  REAL:             1
  Partitioning the integration grid into batches with parallel hashing+maxmin method.
  | Number of batches:     1075
  | Maximal batch size:     189
  | Minimal batch size:      19
  | Average batch size:      85.507
  | Standard deviation of batch sizes:      26.174

  Integration load balanced across    24 MPI tasks.
  Work distribution over tasks is as follows:
  Task     0 has       3849 integration points.
  Task     1 has       3798 integration points.
  Task     2 has       3853 integration points.
  Task     3 has       3776 integration points.
  Task     4 has       3900 integration points.
  Task     5 has       3848 integration points.
  Task     6 has       3795 integration points.
  Task     7 has       3904 integration points.
  Task     8 has       3772 integration points.
  Task     9 has       3838 integration points.
  Task    10 has       3863 integration points.
  Task    11 has       3857 integration points.
  Task    12 has       3773 integration points.
  Task    13 has       3859 integration points.
  Task    14 has       3843 integration points.
  Task    15 has       3789 integration points.
  Task    16 has       3844 integration points.
  Task    17 has       3783 integration points.
  Task    18 has       3787 integration points.
  Task    19 has       3853 integration points.
  Task    20 has       3808 integration points.
  Task    21 has       3849 integration points.
  Task    22 has       3843 integration points.
  Task    23 has       3836 integration points.
  Initializing partition tables, free-atom densities, potentials, etc. across the integration grid (initialize_grid_storage).
  | initialize_grid_storage: Actual outermost partition radius vs. multipole_radius_free
  | (-- VB: in principle, multipole_radius_free should be larger, hence this output)
  | Species        1: Confinement radius =              4.999999999999999 AA, multipole_radius_free =              5.004487022111096 AA.
  | Species        1: outer_partition_radius set to              5.004487022111096 AA .
  | Species        2: Confinement radius =              4.999999999999999 AA, multipole_radius_free =              5.009370088163274 AA.
  | Species        2: outer_partition_radius set to              5.009370088163274 AA .
  | The sparse table of interatomic distances needs          1.64 kbyte instead of         1.15 kbyte of memory.
  | Using the partition_type stratmann_smoother will reduce your memory usage.
  | Net number of integration points:    91920
  | of which are non-zero points    :    84898
  Renormalizing the initial density to the exact electron count on the 3D integration grid.
  | Initial density: Formal number of electrons (from input files) :     120.0000000000
  | Integrated number of electrons on 3D grid     :     119.9998757107
  | Charge integration error                      :      -0.0001242893
  | Normalization factor for density and gradient :       1.0000010357
  Renormalizing the free-atom superposition density to the exact electron count on the 3D integration grid.
  | Formal number of electrons (from input files) :     120.0000000000
  | Integrated number of electrons on 3D grid     :     119.9998757107
  | Charge integration error                      :      -0.0001242893
  | Normalization factor for density and gradient :       1.0000010357
  Obtaining max. number of non-zero basis functions in each batch (get_n_compute_maxes).
  | Maximal number of non-zero basis functions:      172 in task     0
  | Maximal number of non-zero basis functions:      170 in task     1
  | Maximal number of non-zero basis functions:      165 in task     2
  | Maximal number of non-zero basis functions:      172 in task     3
  | Maximal number of non-zero basis functions:      165 in task     4
  | Maximal number of non-zero basis functions:      166 in task     5
  | Maximal number of non-zero basis functions:      171 in task     6
  | Maximal number of non-zero basis functions:      167 in task     7
  | Maximal number of non-zero basis functions:      170 in task     8
  | Maximal number of non-zero basis functions:      166 in task     9
  | Maximal number of non-zero basis functions:      166 in task    10
  | Maximal number of non-zero basis functions:      170 in task    11
  | Maximal number of non-zero basis functions:      172 in task    12
  | Maximal number of non-zero basis functions:      165 in task    13
  | Maximal number of non-zero basis functions:      171 in task    14
  | Maximal number of non-zero basis functions:      165 in task    15
  | Maximal number of non-zero basis functions:      165 in task    16
  | Maximal number of non-zero basis functions:      162 in task    17
  | Maximal number of non-zero basis functions:      166 in task    18
  | Maximal number of non-zero basis functions:      171 in task    19
  | Maximal number of non-zero basis functions:      167 in task    20
  | Maximal number of non-zero basis functions:      165 in task    21
  | Maximal number of non-zero basis functions:      165 in task    22
  | Maximal number of non-zero basis functions:      165 in task    23
  Selecting the method for density update.
  Loop over occupied states selected for charge density update.
  Allocating        0.132 MB for KS_eigenvector
  Integrating Hamiltonian matrix: batch-based integration.
  Time summed over all CPUs for integration: real work        0.756 s, elapsed        0.803 s
  Integrating overlap matrix.
  Time summed over all CPUs for integration: real work        0.290 s, elapsed        0.314 s
  Deallocating overlap matrix.

  Updating Kohn-Sham eigenvalues and eigenvectors using ELSI and the ELPA eigensolver.
  Overlap matrix is not singular
  | Lowest and highest eigenvalues :  0.2973E-02,  0.5794E+01
  Finished singularity check of overlap matrix
  | Time :     0.004 s
  Starting ELPA eigensolver
  Finished Cholesky decomposition
  | Time :     0.003 s
  Finished transformation to standard eigenproblem
  | Time :     0.001 s
  Finished solving standard eigenproblem
  | Time :     0.003 s
  Finished back-transformation of eigenvectors
  | Time :     0.001 s

  Obtaining occupation numbers and chemical potential using ELSI.
  | Chemical potential (Fermi level):    -7.55235397 eV
  Writing Kohn-Sham eigenvalues.

  State    Occupation    Eigenvalue [Ha]    Eigenvalue [eV]
      1       2.00000         -55.511277        -1510.53869
      2       2.00000         -55.488056        -1509.90682
      3       2.00000         -55.485528        -1509.83804
      4       2.00000         -24.574981         -668.71927
      5       2.00000         -24.432796         -664.85022
      6       2.00000         -24.365633         -663.02261
      7       2.00000         -24.358847         -662.83796
      8       2.00000         -24.353494         -662.69228
      9       2.00000         -24.343288         -662.41458
     10       2.00000         -24.341935         -662.37775
     11       2.00000         -24.330562         -662.06827
     12       2.00000         -24.314072         -661.61955
     13       2.00000          -3.998380         -108.80146
     14       2.00000          -3.956403         -107.65921
     15       2.00000          -3.951698         -107.53118
     16       2.00000          -2.630876          -71.58979
     17       2.00000          -2.574030          -70.04291
     18       2.00000          -2.573843          -70.03783
     19       2.00000          -2.556632          -69.56950
     20       2.00000          -2.545775          -69.27407
     21       2.00000          -2.545540          -69.26767
     22       2.00000          -2.544311          -69.23422
     23       2.00000          -2.543497          -69.21207
     24       2.00000          -2.541926          -69.16933
     25       2.00000          -1.371349          -37.31632
     26       2.00000          -1.266799          -34.47135
     27       2.00000          -1.186223          -32.27878
     28       2.00000          -1.174218          -31.95209
     29       2.00000          -1.168204          -31.78845
     30       2.00000          -1.156101          -31.45910
     31       2.00000          -1.150861          -31.31652
     32       2.00000          -1.134636          -30.87502
     33       2.00000          -1.111111          -30.23488
     34       2.00000          -0.700348          -19.05743
     35       2.00000          -0.685095          -18.64238
     36       2.00000          -0.659619          -17.94914
     37       2.00000          -0.597507          -16.25900
     38       2.00000          -0.568384          -15.46650
     39       2.00000          -0.551793          -15.01504
     40       2.00000          -0.546571          -14.87296
     41       2.00000          -0.521111          -14.18015
     42       2.00000          -0.516367          -14.05105
     43       2.00000          -0.501362          -13.64275
     44       2.00000          -0.494023          -13.44305
     45       2.00000          -0.490654          -13.35137
     46       2.00000          -0.481576          -13.10434
     47       2.00000          -0.476984          -12.97940
     48       2.00000          -0.476374          -12.96278
     49       2.00000          -0.474648          -12.91582
     50       2.00000          -0.472946          -12.86951
     51       2.00000          -0.466321          -12.68924
     52       2.00000          -0.462182          -12.57662
     53       2.00000          -0.458335          -12.47193
     54       2.00000          -0.451975          -12.29885
     55       2.00000          -0.450197          -12.25048
     56       2.00000          -0.442642          -12.04490
     57       2.00000          -0.440567          -11.98843
     58       2.00000          -0.436171          -11.86881
     59       2.00000          -0.423303          -11.51866
     60       2.00000          -0.416372          -11.33006
     61       0.00000          -0.147689           -4.01882
     62       0.00000          -0.101133           -2.75198
     63       0.00000          -0.076476           -2.08103
     64       0.00000          -0.036640           -0.99703
     65       0.00000          -0.014333           -0.39002
     66       0.00000          -0.000870           -0.02368
     67       0.00000           0.009488            0.25818
     68       0.00000           0.041834            1.13837
     69       0.00000           0.043438            1.18201
     70       0.00000           0.069567            1.89301
     71       0.00000           0.075085            2.04317
     72       0.00000           0.111697            3.03944
     73       0.00000           0.139060            3.78401
     74       0.00000           0.158490            4.31272
     75       0.00000           0.165793            4.51147
     76       0.00000           0.176879            4.81312
     77       0.00000           0.182385            4.96296
     78       0.00000           0.201739            5.48959
     79       0.00000           0.206462            5.61813
     80       0.00000           0.210587            5.73036
     81       0.00000           0.216226            5.88381
     82       0.00000           0.221158            6.01801
     83       0.00000           0.229447            6.24358
     84       0.00000           0.242907            6.60983
     85       0.00000           0.258187            7.02562
     86       0.00000           0.259911            7.07254
     87       0.00000           0.274526            7.47024
     88       0.00000           0.282877            7.69747
     89       0.00000           0.285949            7.78107
     90       0.00000           0.299065            8.13797
     91       0.00000           0.316418            8.61018
     92       0.00000           0.333453            9.07371
     93       0.00000           0.338128            9.20093
     94       0.00000           0.347477            9.45533
     95       0.00000           0.360114            9.79920
     96       0.00000           0.377402           10.26962

  Highest occupied state (VBM) at    -11.33006203 eV
  | Occupation number:      2.00000000

  Lowest unoccupied state (CBM) at    -4.01881696 eV
  | Occupation number:      0.00000000

  Overall HOMO-LUMO gap:      7.31124507 eV.
  Calculating total energy contributions from superposition of free atom densities.

  Total energy components:
  | Sum of eigenvalues            :        -890.49261362 Ha      -24231.53690358 eV
  | XC energy correction          :        -144.57681264 Ha       -3934.13523854 eV
  | XC potential correction       :         188.26469391 Ha        5122.94297365 eV
  | Free-atom electrostatic energy:        -778.14682725 Ha      -21174.45251375 eV
  | Hartree energy correction     :           0.00000000 Ha           0.00000000 eV
  | Entropy correction            :           0.00000000 Ha           0.00000000 eV
  | ---------------------------
  | Total energy                  :       -1624.95155960 Ha      -44217.18168222 eV
  | Total energy, T -> 0          :       -1624.95155960 Ha      -44217.18168222 eV  <-- do not rely on this value for anything but (periodic) metals
  | Electronic free energy        :       -1624.95155960 Ha      -44217.18168222 eV

  Derived energy quantities:
  | Kinetic energy                :        1628.64039319 Ha       44317.55995128 eV
  | Electrostatic energy          :       -3109.01514015 Ha      -84600.60639496 eV
  | Energy correction for multipole
  | error in Hartree potential    :           0.00000000 Ha           0.00000000 eV
  | Sum of eigenvalues per atom                           :       -2019.29474197 eV
  | Total energy (T->0) per atom                          :       -3684.76514019 eV  <-- do not rely on this value for anything but (periodic) metals
  | Electronic free energy per atom                       :       -3684.76514019 eV
  Initialize hartree_potential_storage
  Max. number of atoms included in rho_multipole:           12

  End scf initialization - timings             :  max(cpu_time)    wall_clock(cpu1)
  | Time for scf. initialization                :        0.123 s           0.123 s
  | Boundary condition initialization           :        0.000 s           0.000 s
  | Integration                                 :        0.048 s           0.048 s
  | Solution of K.-S. eqns.                     :        0.013 s           0.013 s
  | Grid partitioning                           :        0.038 s           0.038 s
  | Preloading free-atom quantities on grid     :        0.016 s           0.016 s
  | Free-atom superposition energy              :        0.005 s           0.005 s
  | Total energy evaluation                     :        0.000 s           0.001 s

  Partial memory accounting:
  | Current value for overall tracked memory usage:
  |   Minimum:        0.273 MB (on task 23)
  |   Maximum:        0.292 MB (on task  0)
  |   Average:        0.287 MB
  | Peak value for overall tracked memory usage:
  |   Minimum:        1.321 MB (on task 17 after allocating wave)
  |   Maximum:        1.390 MB (on task  0 after allocating wave)
  |   Average:        1.354 MB
  | Largest tracked array allocation so far:
  |   Minimum:        0.234 MB (H_times_psi on task 17)
  |   Maximum:        0.524 MB (all_coords on task 14)
  |   Average:        0.266 MB
  Note:  These values currently only include a subset of arrays which are explicitly tracked.
  The "true" memory usage will be greater.
------------------------------------------------------------
  Evaluating new KS density.
  Integration grid: deviation in total charge (<rho> - N_e) =   2.842171E-14

  Time for density update prior                :  max(cpu_time)    wall_clock(cpu1)
  | self-consistency iterative process          :        0.030 s           0.030 s

------------------------------------------------------------
          Begin self-consistency iteration #    1

  Date     :  20220517, Time     :  121200.591
------------------------------------------------------------
  Pulay mixing of updated and previous charge densities.
  Renormalizing the density to the exact electron count on the 3D integration grid.
  | Formal number of electrons (from input files) :     120.0000000000
  | Integrated number of electrons on 3D grid     :     120.0000000000
  | Charge integration error                      :       0.0000000000
  | Normalization factor for density and gradient :       1.0000000000

  Evaluating partitioned Hartree potential by multipole expansion.
  | Original multipole sum: apparent total charge =   0.153908E-12
  | Sum of charges compensated after spline to logarithmic grids =   0.167669E-03
  | Analytical far-field extrapolation by fixed multipoles:
  | Hartree multipole sum: apparent total charge =   0.154474E-12
  Summing up the Hartree potential.
  Time summed over all CPUs for potential: real work        0.380 s, elapsed        0.392 s
  | RMS charge density error from multipole expansion :   0.134892E-01

  Integrating Hamiltonian matrix: batch-based integration.
  Time summed over all CPUs for integration: real work        0.709 s, elapsed        0.748 s

  Updating Kohn-Sham eigenvalues and eigenvectors using ELSI and the ELPA eigensolver.
  Starting ELPA eigensolver
  Finished transformation to standard eigenproblem
  | Time :     0.000 s
  Finished solving standard eigenproblem
  | Time :     0.004 s
  Finished back-transformation of eigenvectors
  | Time :     0.000 s

  Obtaining occupation numbers and chemical potential using ELSI.
  | Chemical potential (Fermi level):    -6.85890412 eV
  Writing Kohn-Sham eigenvalues.

  State    Occupation    Eigenvalue [Ha]    Eigenvalue [eV]
      1       2.00000         -55.646005        -1514.20482
      2       2.00000         -55.609440        -1513.20987
      3       2.00000         -55.598184        -1512.90356
      4       2.00000         -24.262858         -660.22595
      5       2.00000         -24.258939         -660.11932
      6       2.00000         -24.214393         -658.90715
      7       2.00000         -24.138514         -656.84240
      8       2.00000         -24.101600         -655.83790
      9       2.00000         -24.067994         -654.92343
     10       2.00000         -24.052298         -654.49632
     11       2.00000         -24.050593         -654.44993
     12       2.00000         -23.999626         -653.06305
     13       2.00000          -4.093855         -111.39946
     14       2.00000          -4.088305         -111.24845
     15       2.00000          -4.051661         -110.25131
     16       2.00000          -2.706424          -73.64553
     17       2.00000          -2.690515          -73.21264
     18       2.00000          -2.684779          -73.05656
     19       2.00000          -2.684586          -73.05129
     20       2.00000          -2.669761          -72.64790
     21       2.00000          -2.668432          -72.61174
     22       2.00000          -2.645386          -71.98462
     23       2.00000          -2.644582          -71.96273
     24       2.00000          -2.642626          -71.90950
     25       2.00000          -1.286785          -35.01521
     26       2.00000          -1.232340          -33.53368
     27       2.00000          -1.128419          -30.70585
     28       2.00000          -1.063788          -28.94714
     29       2.00000          -1.054502          -28.69447
     30       2.00000          -1.019647          -27.74602
     31       2.00000          -1.011922          -27.53581
     32       2.00000          -0.993474          -27.03379
     33       2.00000          -0.939532          -25.56596
     34       2.00000          -0.635766          -17.30008
     35       2.00000          -0.622027          -16.92621
     36       2.00000          -0.581563          -15.82514
     37       2.00000          -0.571173          -15.54239
     38       2.00000          -0.534227          -14.53706
     39       2.00000          -0.517167          -14.07284
     40       2.00000          -0.500848          -13.62877
     41       2.00000          -0.451632          -12.28954
     42       2.00000          -0.432354          -11.76496
     43       2.00000          -0.426716          -11.61155
     44       2.00000          -0.412124          -11.21447
     45       2.00000          -0.388679          -10.57649
     46       2.00000          -0.384296          -10.45723
     47       2.00000          -0.372130          -10.12617
     48       2.00000          -0.367897          -10.01097
     49       2.00000          -0.359961           -9.79505
     50       2.00000          -0.358796           -9.76333
     51       2.00000          -0.352609           -9.59499
     52       2.00000          -0.328779           -8.94654
     53       2.00000          -0.327623           -8.91509
     54       2.00000          -0.312646           -8.50753
     55       2.00000          -0.311268           -8.47003
     56       2.00000          -0.307158           -8.35819
     57       2.00000          -0.304919           -8.29728
     58       2.00000          -0.292884           -7.96978
     59       2.00000          -0.266607           -7.25475
     60       2.00000          -0.254719           -6.93127
     61       0.00000          -0.152554           -4.15120
     62       0.00000          -0.111794           -3.04207
     63       0.00000          -0.068604           -1.86681
     64       0.00000          -0.043621           -1.18700
     65       0.00000          -0.017505           -0.47633
     66       0.00000          -0.009684           -0.26351
     67       0.00000          -0.004991           -0.13580
     68       0.00000           0.039231            1.06753
     69       0.00000           0.051026            1.38849
     70       0.00000           0.063894            1.73863
     71       0.00000           0.086661            2.35817
     72       0.00000           0.107624            2.92859
     73       0.00000           0.133694            3.63801
     74       0.00000           0.153118            4.16654
     75       0.00000           0.156037            4.24599
     76       0.00000           0.176431            4.80094
     77       0.00000           0.177795            4.83805
     78       0.00000           0.196470            5.34622
     79       0.00000           0.211655            5.75942
     80       0.00000           0.215403            5.86142
     81       0.00000           0.221182            6.01867
     82       0.00000           0.225414            6.13382
     83       0.00000           0.239932            6.52887
     84       0.00000           0.247418            6.73258
     85       0.00000           0.248857            6.77175
     86       0.00000           0.272993            7.42853
     87       0.00000           0.282844            7.69657
     88       0.00000           0.290075            7.89334
     89       0.00000           0.298524            8.12326
     90       0.00000           0.302434            8.22965
     91       0.00000           0.321098            8.73751
     92       0.00000           0.347074            9.44437
     93       0.00000           0.350969            9.55036
     94       0.00000           0.363805            9.89965
     95       0.00000           0.382290           10.40263
     96       0.00000           0.404785           11.01476

  Highest occupied state (VBM) at     -6.93126788 eV
  | Occupation number:      2.00000000

  Lowest unoccupied state (CBM) at    -4.15120074 eV
  | Occupation number:      0.00000000

  Overall HOMO-LUMO gap:      2.78006714 eV.

  Total energy components:
  | Sum of eigenvalues            :        -881.95667328 Ha      -23999.26214900 eV
  | XC energy correction          :        -146.16308158 Ha       -3977.29981245 eV
  | XC potential correction       :         190.34968727 Ha        5179.67852983 eV
  | Free-atom electrostatic energy:        -778.14682725 Ha      -21174.45251375 eV
  | Hartree energy correction     :          -8.73185059 Ha        -237.60574371 eV
  | Entropy correction            :          -0.00000000 Ha          -0.00000000 eV
  | ---------------------------
  | Total energy                  :       -1624.64874542 Ha      -44208.94168908 eV
  | Total energy, T -> 0          :       -1624.64874542 Ha      -44208.94168908 eV  <-- do not rely on this value for anything but (periodic) metals
  | Electronic free energy        :       -1624.64874542 Ha      -44208.94168908 eV

  Derived energy quantities:
  | Kinetic energy                :        1637.49923710 Ha       44558.62135906 eV
  | Electrostatic energy          :       -3115.98490094 Ha      -84790.26323569 eV
  | Energy correction for multipole
  | error in Hartree potential    :           0.04562302 Ha           1.24146559 eV
  | Sum of eigenvalues per atom                           :       -1999.93851242 eV
  | Total energy (T->0) per atom                          :       -3684.07847409 eV  <-- do not rely on this value for anything but (periodic) metals
  | Electronic free energy per atom                       :       -3684.07847409 eV
  Evaluating new KS density.
  Integration grid: deviation in total charge (<rho> - N_e) =  -1.421085E-14

  Self-consistency convergence accuracy:
  | Change of charge density      :  0.7225E+00
  | Change of sum of eigenvalues  :  0.2323E+03 eV
  | Change of total energy        :  0.8240E+01 eV


------------------------------------------------------------
  End self-consistency iteration #     1       :  max(cpu_time)    wall_clock(cpu1)
  | Time for this iteration                     :        0.084 s           0.084 s
  | Charge density update                       :        0.029 s           0.029 s
  | Density mixing                              :        0.000 s           0.000 s
  | Hartree multipole update                    :        0.001 s           0.001 s
  | Hartree multipole summation                 :        0.017 s           0.016 s
  | Integration                                 :        0.032 s           0.032 s
  | Solution of K.-S. eqns.                     :        0.004 s           0.004 s
  | Total energy evaluation                     :        0.000 s           0.000 s

  Partial memory accounting:
  | Current value for overall tracked memory usage:
  |   Minimum:        0.273 MB (on task 23)
  |   Maximum:        0.292 MB (on task  0)
  |   Average:        0.287 MB
  | Peak value for overall tracked memory usage:
  |   Minimum:        1.321 MB (on task 17 after allocating wave)
  |   Maximum:        1.390 MB (on task  0 after allocating wave)
  |   Average:        1.354 MB
  | Largest tracked array allocation so far:
  |   Minimum:        0.701 MB (gradient_basis_wave on task 17)
  |   Maximum:        0.744 MB (gradient_basis_wave on task  0)
  |   Average:        0.724 MB
  Note:  These values currently only include a subset of arrays which are explicitly tracked.
  The "true" memory usage will be greater.
------------------------------------------------------------

------------------------------------------------------------
          Begin self-consistency iteration #    2

  Date     :  20220517, Time     :  121200.680
------------------------------------------------------------
  Pulay mixing of updated and previous charge densities.
  Renormalizing the density to the exact electron count on the 3D integration grid.
  | Formal number of electrons (from input files) :     120.0000000000
  | Integrated number of electrons on 3D grid     :     120.0000000000
  | Charge integration error                      :      -0.0000000000
  | Normalization factor for density and gradient :       1.0000000000

  Evaluating partitioned Hartree potential by multipole expansion.
  | Original multipole sum: apparent total charge =   0.327519E-13
  | Sum of charges compensated after spline to logarithmic grids =   0.141578E-03
  | Analytical far-field extrapolation by fixed multipoles:
  | Hartree multipole sum: apparent total charge =   0.334160E-13
  Summing up the Hartree potential.
  Time summed over all CPUs for potential: real work        0.378 s, elapsed        0.391 s
  | RMS charge density error from multipole expansion :   0.159279E-01

  Integrating Hamiltonian matrix: batch-based integration.
  Time summed over all CPUs for integration: real work        0.707 s, elapsed        0.749 s

  Updating Kohn-Sham eigenvalues and eigenvectors using ELSI and the ELPA eigensolver.
  Starting ELPA eigensolver
  Finished transformation to standard eigenproblem
  | Time :     0.001 s
  Finished solving standard eigenproblem
  | Time :     0.003 s
  Finished back-transformation of eigenvectors
  | Time :     0.000 s

  Obtaining occupation numbers and chemical potential using ELSI.
  | Chemical potential (Fermi level):    -7.22857858 eV
  Highest occupied state (VBM) at     -8.94917547 eV
  | Occupation number:      2.00000000

  Lowest unoccupied state (CBM) at    -4.44756766 eV
  | Occupation number:      0.00000000

  Overall HOMO-LUMO gap:      4.50160781 eV.

  Checking to see if s.c.f. parameters should be adjusted.

  Total energy components:
  | Sum of eigenvalues            :        -885.23570637 Ha      -24088.48917911 eV
  | XC energy correction          :        -145.63695774 Ha       -3962.98325438 eV
  | XC potential correction       :         189.65738833 Ha        5160.84011704 eV
  | Free-atom electrostatic energy:        -778.14682725 Ha      -21174.45251375 eV
  | Hartree energy correction     :          -5.21805420 Ha        -141.99047929 eV
  | Entropy correction            :           0.00000000 Ha           0.00000000 eV
  | ---------------------------
  | Total energy                  :       -1624.58015723 Ha      -44207.07530948 eV
  | Total energy, T -> 0          :       -1624.58015723 Ha      -44207.07530948 eV  <-- do not rely on this value for anything but (periodic) metals
  | Electronic free energy        :       -1624.58015723 Ha      -44207.07530948 eV

  Derived energy quantities:
  | Kinetic energy                :        1633.39975624 Ha       44447.06880915 eV
  | Electrostatic energy          :       -3112.34295573 Ha      -84691.16086425 eV
  | Energy correction for multipole
  | error in Hartree potential    :           0.04819289 Ha           1.31139536 eV
  | Sum of eigenvalues per atom                           :       -2007.37409826 eV
  | Total energy (T->0) per atom                          :       -3683.92294246 eV  <-- do not rely on this value for anything but (periodic) metals
  | Electronic free energy per atom                       :       -3683.92294246 eV
  Evaluating new KS density.
  Integration grid: deviation in total charge (<rho> - N_e) =   1.421085E-14

  Self-consistency convergence accuracy:
  | Change of charge density      :  0.5060E+00
  | Change of sum of eigenvalues  : -0.8923E+02 eV
  | Change of total energy        :  0.1866E+01 eV


------------------------------------------------------------
  End self-consistency iteration #     2       :  max(cpu_time)    wall_clock(cpu1)
  | Time for this iteration                     :        0.087 s           0.084 s
  | Charge density update                       :        0.029 s           0.029 s
  | Density mixing                              :        0.004 s           0.002 s
  | Hartree multipole update                    :        0.001 s           0.001 s
  | Hartree multipole summation                 :        0.017 s           0.016 s
  | Integration                                 :        0.032 s           0.032 s
  | Solution of K.-S. eqns.                     :        0.004 s           0.004 s
  | Total energy evaluation                     :        0.000 s           0.000 s

  Partial memory accounting:
  | Current value for overall tracked memory usage:
  |   Minimum:        0.274 MB (on task 23)
  |   Maximum:        0.293 MB (on task  0)
  |   Average:        0.288 MB
  | Peak value for overall tracked memory usage:
  |   Minimum:        1.321 MB (on task 17 after allocating wave)
  |   Maximum:        1.390 MB (on task  0 after allocating wave)
  |   Average:        1.354 MB
  | Largest tracked array allocation so far:
  |   Minimum:        0.701 MB (gradient_basis_wave on task 17)
  |   Maximum:        0.744 MB (gradient_basis_wave on task  0)
  |   Average:        0.724 MB
  Note:  These values currently only include a subset of arrays which are explicitly tracked.
  The "true" memory usage will be greater.
------------------------------------------------------------

------------------------------------------------------------
          Begin self-consistency iteration #    3

  Date     :  20220517, Time     :  121200.770
------------------------------------------------------------
  Pulay mixing of updated and previous charge densities.
  Renormalizing the density to the exact electron count on the 3D integration grid.
  | Formal number of electrons (from input files) :     120.0000000000
  | Integrated number of electrons on 3D grid     :     120.0000000000
  | Charge integration error                      :       0.0000000000
  | Normalization factor for density and gradient :       1.0000000000

  Evaluating partitioned Hartree potential by multipole expansion.
  | Original multipole sum: apparent total charge =   0.102523E-12
  | Sum of charges compensated after spline to logarithmic grids =   0.175282E-03
  | Analytical far-field extrapolation by fixed multipoles:
  | Hartree multipole sum: apparent total charge =   0.101355E-12
  Summing up the Hartree potential.
  Time summed over all CPUs for potential: real work        0.378 s, elapsed        0.391 s
  | RMS charge density error from multipole expansion :   0.198312E-01

  Integrating Hamiltonian matrix: batch-based integration.
  Time summed over all CPUs for integration: real work        0.707 s, elapsed        0.748 s

  Updating Kohn-Sham eigenvalues and eigenvectors using ELSI and the ELPA eigensolver.
  Starting ELPA eigensolver
  Finished transformation to standard eigenproblem
  | Time :     0.001 s
  Finished solving standard eigenproblem
  | Time :     0.003 s
  Finished back-transformation of eigenvectors
  | Time :     0.000 s

  Obtaining occupation numbers and chemical potential using ELSI.
  | Chemical potential (Fermi level):    -7.17355015 eV
  Highest occupied state (VBM) at     -7.74176362 eV
  | Occupation number:      2.00000000

  Lowest unoccupied state (CBM) at    -4.55993463 eV
  | Occupation number:      0.00000000

  Overall HOMO-LUMO gap:      3.18182900 eV.

  Total energy components:
  | Sum of eigenvalues            :        -885.66117383 Ha      -24100.06673785 eV
  | XC energy correction          :        -145.66024515 Ha       -3963.61693705 eV
  | XC potential correction       :         189.68706314 Ha        5161.64760990 eV
  | Free-atom electrostatic energy:        -778.14682725 Ha      -21174.45251375 eV
  | Hartree energy correction     :          -4.79565984 Ha        -130.49654395 eV
  | Entropy correction            :           0.00000000 Ha           0.00000000 eV
  | ---------------------------
  | Total energy                  :       -1624.57684293 Ha      -44206.98512270 eV
  | Total energy, T -> 0          :       -1624.57684293 Ha      -44206.98512270 eV  <-- do not rely on this value for anything but (periodic) metals
  | Electronic free energy        :       -1624.57684293 Ha      -44206.98512270 eV

  Derived energy quantities:
  | Kinetic energy                :        1632.61619353 Ha       44425.74698300 eV
  | Electrostatic energy          :       -3111.53279131 Ha      -84669.11516865 eV
  | Energy correction for multipole
  | error in Hartree potential    :           0.05700117 Ha           1.55108081 eV
  | Sum of eigenvalues per atom                           :       -2008.33889482 eV
  | Total energy (T->0) per atom                          :       -3683.91542689 eV  <-- do not rely on this value for anything but (periodic) metals
  | Electronic free energy per atom                       :       -3683.91542689 eV
  Evaluating new KS density.
  Integration grid: deviation in total charge (<rho> - N_e) =   5.684342E-14

  Self-consistency convergence accuracy:
  | Change of charge density      :  0.1342E+00
  | Change of sum of eigenvalues  : -0.1158E+02 eV
  | Change of total energy        :  0.9019E-01 eV


------------------------------------------------------------
  End self-consistency iteration #     3       :  max(cpu_time)    wall_clock(cpu1)
  | Time for this iteration                     :        0.086 s           0.084 s
  | Charge density update                       :        0.029 s           0.028 s
  | Density mixing                              :        0.004 s           0.002 s
  | Hartree multipole update                    :        0.001 s           0.001 s
  | Hartree multipole summation                 :        0.017 s           0.017 s
  | Integration                                 :        0.032 s           0.031 s
  | Solution of K.-S. eqns.                     :        0.004 s           0.004 s
  | Total energy evaluation                     :        0.000 s           0.000 s

  Partial memory accounting:
  | Current value for overall tracked memory usage:
  |   Minimum:        0.274 MB (on task 23)
  |   Maximum:        0.293 MB (on task  0)
  |   Average:        0.288 MB
  | Peak value for overall tracked memory usage:
  |   Minimum:        1.321 MB (on task 17 after allocating wave)
  |   Maximum:        1.390 MB (on task  0 after allocating wave)
  |   Average:        1.354 MB
  | Largest tracked array allocation so far:
  |   Minimum:        0.701 MB (gradient_basis_wave on task 17)
  |   Maximum:        0.744 MB (gradient_basis_wave on task  0)
  |   Average:        0.724 MB
  Note:  These values currently only include a subset of arrays which are explicitly tracked.
  The "true" memory usage will be greater.
------------------------------------------------------------

------------------------------------------------------------
          Begin self-consistency iteration #    4

  Date     :  20220517, Time     :  121200.861
------------------------------------------------------------
  Pulay mixing of updated and previous charge densities.
  Renormalizing the density to the exact electron count on the 3D integration grid.
  | Formal number of electrons (from input files) :     120.0000000000
  | Integrated number of electrons on 3D grid     :     120.0000000000
  | Charge integration error                      :       0.0000000000
  | Normalization factor for density and gradient :       1.0000000000

  Evaluating partitioned Hartree potential by multipole expansion.
  | Original multipole sum: apparent total charge =   0.103507E-12
  | Sum of charges compensated after spline to logarithmic grids =   0.201239E-03
  | Analytical far-field extrapolation by fixed multipoles:
  | Hartree multipole sum: apparent total charge =   0.101343E-12
  Summing up the Hartree potential.
  Time summed over all CPUs for potential: real work        0.378 s, elapsed        0.392 s
  | RMS charge density error from multipole expansion :   0.230404E-01

  Integrating Hamiltonian matrix: batch-based integration.
  Time summed over all CPUs for integration: real work        0.707 s, elapsed        0.748 s

  Updating Kohn-Sham eigenvalues and eigenvectors using ELSI and the ELPA eigensolver.
  Starting ELPA eigensolver
  Finished transformation to standard eigenproblem
  | Time :     0.000 s
  Finished solving standard eigenproblem
  | Time :     0.003 s
  Finished back-transformation of eigenvectors
  | Time :     0.001 s

  Obtaining occupation numbers and chemical potential using ELSI.
  | Chemical potential (Fermi level):    -7.18596915 eV
  Highest occupied state (VBM) at     -8.29096432 eV
  | Occupation number:      2.00000000

  Lowest unoccupied state (CBM) at    -4.59063393 eV
  | Occupation number:      0.00000000

  Overall HOMO-LUMO gap:      3.70033039 eV.

  Total energy components:
  | Sum of eigenvalues            :        -885.83411782 Ha      -24104.77278312 eV
  | XC energy correction          :        -145.65013860 Ha       -3963.34192387 eV
  | XC potential correction       :         189.67280281 Ha        5161.25956640 eV
  | Free-atom electrostatic energy:        -778.14682725 Ha      -21174.45251375 eV
  | Hartree energy correction     :          -4.61525319 Ha        -125.58742903 eV
  | Entropy correction            :           0.00000000 Ha           0.00000000 eV
  | ---------------------------
  | Total energy                  :       -1624.57353404 Ha      -44206.89508337 eV
  | Total energy, T -> 0          :       -1624.57353404 Ha      -44206.89508337 eV  <-- do not rely on this value for anything but (periodic) metals
  | Electronic free energy        :       -1624.57353404 Ha      -44206.89508337 eV

  Derived energy quantities:
  | Kinetic energy                :        1631.82145979 Ha       44404.12117760 eV
  | Electrostatic energy          :       -3110.74485523 Ha      -84647.67433710 eV
  | Energy correction for multipole
  | error in Hartree potential    :           0.06414218 Ha           1.74539741 eV
  | Sum of eigenvalues per atom                           :       -2008.73106526 eV
  | Total energy (T->0) per atom                          :       -3683.90792361 eV  <-- do not rely on this value for anything but (periodic) metals
  | Electronic free energy per atom                       :       -3683.90792361 eV
  Evaluating new KS density.
  Integration grid: deviation in total charge (<rho> - N_e) =   5.684342E-14

  Self-consistency convergence accuracy:
  | Change of charge density      :  0.1204E+00
  | Change of sum of eigenvalues  : -0.4706E+01 eV
  | Change of total energy        :  0.9004E-01 eV


------------------------------------------------------------
  End self-consistency iteration #     4       :  max(cpu_time)    wall_clock(cpu1)
  | Time for this iteration                     :        0.086 s           0.084 s
  | Charge density update                       :        0.029 s           0.029 s
  | Density mixing                              :        0.004 s           0.001 s
  | Hartree multipole update                    :        0.001 s           0.002 s
  | Hartree multipole summation                 :        0.017 s           0.016 s
  | Integration                                 :        0.032 s           0.032 s
  | Solution of K.-S. eqns.                     :        0.004 s           0.004 s
  | Total energy evaluation                     :        0.000 s           0.000 s

  Partial memory accounting:
  | Current value for overall tracked memory usage:
  |   Minimum:        0.274 MB (on task 23)
  |   Maximum:        0.293 MB (on task  0)
  |   Average:        0.288 MB
  | Peak value for overall tracked memory usage:
  |   Minimum:        1.321 MB (on task 17 after allocating wave)
  |   Maximum:        1.390 MB (on task  0 after allocating wave)
  |   Average:        1.354 MB
  | Largest tracked array allocation so far:
  |   Minimum:        0.701 MB (gradient_basis_wave on task 17)
  |   Maximum:        0.744 MB (gradient_basis_wave on task  0)
  |   Average:        0.724 MB
  Note:  These values currently only include a subset of arrays which are explicitly tracked.
  The "true" memory usage will be greater.
------------------------------------------------------------

------------------------------------------------------------
          Begin self-consistency iteration #    5

  Date     :  20220517, Time     :  121200.950
------------------------------------------------------------
  Pulay mixing of updated and previous charge densities.
  Renormalizing the density to the exact electron count on the 3D integration grid.
  | Formal number of electrons (from input files) :     120.0000000000
  | Integrated number of electrons on 3D grid     :     120.0000000000
  | Charge integration error                      :      -0.0000000000
  | Normalization factor for density and gradient :       1.0000000000

  Evaluating partitioned Hartree potential by multipole expansion.
  | Original multipole sum: apparent total charge =   0.212278E-13
  | Sum of charges compensated after spline to logarithmic grids =   0.206046E-03
  | Analytical far-field extrapolation by fixed multipoles:
  | Hartree multipole sum: apparent total charge =   0.181408E-13
  Summing up the Hartree potential.
  Time summed over all CPUs for potential: real work        0.378 s, elapsed        0.391 s
  | RMS charge density error from multipole expansion :   0.236978E-01

  Integrating Hamiltonian matrix: batch-based integration.
  Time summed over all CPUs for integration: real work        0.707 s, elapsed        0.749 s

  Updating Kohn-Sham eigenvalues and eigenvectors using ELSI and the ELPA eigensolver.
  Starting ELPA eigensolver
  Finished transformation to standard eigenproblem
  | Time :     0.000 s
  Finished solving standard eigenproblem
  | Time :     0.003 s
  Finished back-transformation of eigenvectors
  | Time :     0.000 s

  Obtaining occupation numbers and chemical potential using ELSI.
  | Chemical potential (Fermi level):    -7.18037791 eV
  Highest occupied state (VBM) at     -8.16307087 eV
  | Occupation number:      2.00000000

  Lowest unoccupied state (CBM) at    -4.56909366 eV
  | Occupation number:      0.00000000

  Overall HOMO-LUMO gap:      3.59397722 eV.

  Total energy components:
  | Sum of eigenvalues            :        -885.84461027 Ha      -24105.05829724 eV
  | XC energy correction          :        -145.63704589 Ha       -3962.98565319 eV
  | XC potential correction       :         189.65541135 Ha        5160.78632070 eV
  | Free-atom electrostatic energy:        -778.14682725 Ha      -21174.45251375 eV
  | Hartree energy correction     :          -4.60000062 Ha        -125.17238556 eV
  | Entropy correction            :           0.00000000 Ha           0.00000000 eV
[...]
   Total forces(   7)            : -0.370299E+02 -0.512950E+02 -0.321434E+01
  atom #    8
   Hellmann-Feynman              :  0.976067E+01 -0.507829E+01  0.663354E+01
   Ionic forces                  :  0.000000E+00  0.000000E+00  0.000000E+00
   Multipole                     :  0.991123E+00 -0.284051E-02  0.744585E+00
   Hartree pot. SCF incomplete   :  0.154864E-05 -0.148908E-05 -0.693227E-05
   Pulay + GGA                   : -0.173863E+00  0.475934E+00 -0.270969E+01
   ----------------------------------------------------------------
   Total forces(   8)            :  0.105779E+02 -0.460519E+01  0.466844E+01
  atom #    9
   Hellmann-Feynman              : -0.545091E+00  0.511917E+00 -0.240984E+01
   Ionic forces                  :  0.000000E+00  0.000000E+00  0.000000E+00
   Multipole                     : -0.247549E+00  0.390818E+00 -0.661945E+00
   Hartree pot. SCF incomplete   : -0.810638E-06  0.994635E-06 -0.144723E-05
   Pulay + GGA                   :  0.189792E+01 -0.261159E+01  0.677368E+01
   ----------------------------------------------------------------
   Total forces(   9)            :  0.110528E+01 -0.170885E+01  0.370190E+01
  atom #   10
   Hellmann-Feynman              :  0.245416E+00  0.266112E+00  0.816410E+00
   Ionic forces                  :  0.000000E+00  0.000000E+00  0.000000E+00
   Multipole                     : -0.342077E-01  0.878880E-01  0.222241E-03
   Hartree pot. SCF incomplete   : -0.197162E-05  0.259326E-05 -0.118872E-05
   Pulay + GGA                   : -0.198051E-01 -0.393960E+01 -0.230440E+01
   ----------------------------------------------------------------
   Total forces(  10)            :  0.191401E+00 -0.358560E+01 -0.148777E+01
  atom #   11
   Hellmann-Feynman              :  0.458693E+01  0.216628E+01  0.150470E+01
   Ionic forces                  :  0.000000E+00  0.000000E+00  0.000000E+00
   Multipole                     :  0.571609E+00  0.119578E+01 -0.706733E-01
   Hartree pot. SCF incomplete   :  0.278046E-05  0.261449E-06  0.141723E-05
   Pulay + GGA                   : -0.588075E+01 -0.479116E+01 -0.167852E+01
   ----------------------------------------------------------------
   Total forces(  11)            : -0.722207E+00 -0.142909E+01 -0.244489E+00
  atom #   12
   Hellmann-Feynman              :  0.224614E-01 -0.830650E-01 -0.664003E+00
   Ionic forces                  :  0.000000E+00  0.000000E+00  0.000000E+00
   Multipole                     : -0.234553E+00 -0.126770E+00  0.760574E-01
   Hartree pot. SCF incomplete   : -0.203644E-05  0.335900E-06 -0.275203E-05
   Pulay + GGA                   :  0.257034E+01  0.245098E+00  0.359324E+00
   ----------------------------------------------------------------
   Total forces(  12)            :  0.235825E+01  0.352634E-01 -0.228624E+00


  Self-consistency convergence accuracy:
  | Change of charge density      :  0.2588E-06
  | Change of sum of eigenvalues  : -0.3611E-04 eV
  | Change of total energy        :  0.1198E-07 eV
  | Change of forces              :  0.2057E-05 eV/A

  Writing Kohn-Sham eigenvalues.

  State    Occupation    Eigenvalue [Ha]    Eigenvalue [eV]
      1       2.00000         -55.621583        -1513.54029
      2       2.00000         -55.581495        -1512.44944
      3       2.00000         -55.564268        -1511.98067
      4       2.00000         -24.334742         -662.18202
      5       2.00000         -24.331667         -662.09834
      6       2.00000         -24.285089         -660.83089
      7       2.00000         -24.236470         -659.50791
      8       2.00000         -24.235966         -659.49419
      9       2.00000         -24.206852         -658.70196
     10       2.00000         -24.195425         -658.39100
     11       2.00000         -24.170214         -657.70500
     12       2.00000         -24.163659         -657.52660
     13       2.00000          -4.089069         -111.26923
     14       2.00000          -4.087666         -111.23104
     15       2.00000          -4.038243         -109.88619
     16       2.00000          -2.702298          -73.53328
     17       2.00000          -2.682154          -72.98512
     18       2.00000          -2.678398          -72.88293
     19       2.00000          -2.676591          -72.83375
     20       2.00000          -2.669642          -72.64465
     21       2.00000          -2.667982          -72.59949
     22       2.00000          -2.631436          -71.60502
     23       2.00000          -2.630474          -71.57883
     24       2.00000          -2.626529          -71.47150
     25       2.00000          -1.310406          -35.65796
     26       2.00000          -1.253083          -34.09813
     27       2.00000          -1.145292          -31.16498
     28       2.00000          -1.099256          -29.91227
     29       2.00000          -1.089108          -29.63614
     30       2.00000          -1.045319          -28.44457
     31       2.00000          -1.042541          -28.36897
     32       2.00000          -1.034701          -28.15566
     33       2.00000          -0.993070          -27.02280
     34       2.00000          -0.661933          -18.01212
     35       2.00000          -0.647237          -17.61220
     36       2.00000          -0.608399          -16.55538
     37       2.00000          -0.594599          -16.17985
     38       2.00000          -0.557158          -15.16103
     39       2.00000          -0.539135          -14.67062
     40       2.00000          -0.517811          -14.09036
     41       2.00000          -0.467972          -12.73418
     42       2.00000          -0.459970          -12.51643
     43       2.00000          -0.445155          -12.11329
     44       2.00000          -0.440814          -11.99516
     45       2.00000          -0.417132          -11.35075
     46       2.00000          -0.410260          -11.16376
     47       2.00000          -0.407125          -11.07842
     48       2.00000          -0.404281          -11.00105
     49       2.00000          -0.398144          -10.83404
     50       2.00000          -0.392726          -10.68663
     51       2.00000          -0.376817          -10.25370
     52       2.00000          -0.354581           -9.64864
     53       2.00000          -0.353675           -9.62398
     54       2.00000          -0.352263           -9.58555
     55       2.00000          -0.350891           -9.54824
     56       2.00000          -0.339938           -9.25018
     57       2.00000          -0.333300           -9.06955
     58       2.00000          -0.327053           -8.89957
     59       2.00000          -0.313976           -8.54372
     60       2.00000          -0.301106           -8.19352
     61       0.00000          -0.167107           -4.54720
     62       0.00000          -0.124553           -3.38925
     63       0.00000          -0.076130           -2.07160
     64       0.00000          -0.054005           -1.46954
     65       0.00000          -0.024635           -0.67036
     66       0.00000          -0.016660           -0.45334
     67       0.00000          -0.012860           -0.34995
     68       0.00000           0.035361            0.96223
     69       0.00000           0.045753            1.24499
     70       0.00000           0.062244            1.69374
     71       0.00000           0.085360            2.32275
     72       0.00000           0.101844            2.77133
     73       0.00000           0.126157            3.43290
     74       0.00000           0.145413            3.95689
     75       0.00000           0.147952            4.02599
     76       0.00000           0.171483            4.66630
     77       0.00000           0.174395            4.74552
     78       0.00000           0.192060            5.22621
     79       0.00000           0.206719            5.62511
     80       0.00000           0.213108            5.79897
     81       0.00000           0.217868            5.92849
     82       0.00000           0.221065            6.01549
     83       0.00000           0.235795            6.41630
     84       0.00000           0.241552            6.57297
     85       0.00000           0.246115            6.69714
     86       0.00000           0.264197            7.18915
     87       0.00000           0.276708            7.52961
     88       0.00000           0.284136            7.73174
     89       0.00000           0.294854            8.02338
     90       0.00000           0.297283            8.08949
     91       0.00000           0.312115            8.49307
     92       0.00000           0.338304            9.20573
     93       0.00000           0.348578            9.48528
     94       0.00000           0.358262            9.74881
     95       0.00000           0.374408           10.18816
     96       0.00000           0.392848           10.68994

  Highest occupied state (VBM) at     -8.19351920 eV
  | Occupation number:      2.00000000

  Lowest unoccupied state (CBM) at    -4.54720099 eV
  | Occupation number:      0.00000000

  Overall HOMO-LUMO gap:      3.64631821 eV.
  | Chemical Potential                          :    -7.17213109 eV

  Self-consistency cycle converged.


------------------------------------------------------------
  End self-consistency iteration #    15       :  max(cpu_time)    wall_clock(cpu1)
  | Time for this iteration                     :        0.277 s           0.278 s
  | Charge density & force component update     :        0.155 s           0.154 s
  | Density mixing                              :        0.005 s           0.005 s
  | Hartree multipole update                    :        0.001 s           0.001 s
  | Hartree multipole summation                 :        0.049 s           0.049 s
  | Hartree pot. SCF incomplete forces          :        0.031 s           0.032 s
  | Integration                                 :        0.032 s           0.031 s
  | Solution of K.-S. eqns.                     :        0.004 s           0.004 s
  | Total energy evaluation                     :        0.000 s           0.001 s

  Partial memory accounting:
  | Current value for overall tracked memory usage:
  |   Minimum:        0.274 MB (on task 23)
  |   Maximum:        0.293 MB (on task  0)
  |   Average:        0.289 MB
  | Peak value for overall tracked memory usage:
  |   Minimum:        2.888 MB (on task 17 after allocating hessian_basis_wave)
  |   Maximum:        3.033 MB (on task  0 after allocating hessian_basis_wave)
  |   Average:        2.963 MB
  | Largest tracked array allocation so far:
  |   Minimum:        1.402 MB (hessian_basis_wave on task 17)
  |   Maximum:        1.488 MB (hessian_basis_wave on task  0)
  |   Average:        1.449 MB
  Note:  These values currently only include a subset of arrays which are explicitly tracked.
  The "true" memory usage will be greater.
------------------------------------------------------------
  Removing unitary transformations (pure translations, rotations) from forces on atoms.
  Atomic forces before filtering:
  | Net force on center of mass :  -0.474424E-02  0.650769E-02 -0.660828E-02 eV/A
  | Net torque on center of mass:   0.101330E-01  0.100999E-04  0.270915E-02 eV
  Atomic forces after filtering:
  | Net force on center of mass :   0.356812E-15 -0.443785E-14  0.107044E-14 eV/A
  | Net torque on center of mass:  -0.236021E-14 -0.266704E-13  0.490924E-14 eV

  Energy and forces in a compact form:
  | Total energy uncorrected      :         -0.442068810860441E+05 eV
  | Total energy corrected        :         -0.442068810860441E+05 eV  <-- do not rely on this value for anything but (periodic) metals
  | Electronic free energy        :         -0.442068810860441E+05 eV
  Total atomic forces (unitary forces cleaned) [eV/Ang]:
  |    1         -0.191506407006390E+01         -0.228252108734471E+00          0.690046499263732E+00
  |    2          0.372785672552680E+02          0.543161786356592E+02          0.404417480931635E+01
  |    3         -0.132298840821531E+02          0.864511981056094E+01         -0.649318784376866E+01
  |    4          0.766089873847068E+00         -0.268133909973881E+01         -0.790365986952706E+00
  |    5         -0.614965926843158E+00          0.418998244588742E-01          0.241243673331623E+00
  |    6          0.123199698303441E+01          0.249933816584989E+01         -0.890012890252474E+00
  |    7         -0.370296050312081E+02         -0.512954070949064E+02         -0.321352399209475E+01
  |    8          0.105783357905007E+02         -0.460610959169883E+01          0.466909541888255E+01
  |    9          0.110578884750759E+01         -0.171024322872705E+01          0.370226378455911E+01
  |   10          0.191897977283972E+00         -0.358628089723263E+01         -0.148768065859754E+01
  |   11         -0.721801400614302E+00         -0.142946583910866E+01         -0.244069724197101E+00
  |   12          0.235864378344080E+01          0.345614236179264E-01         -0.227983089490128E+00

  ------------------------------------ 
  Start decomposition of the XC Energy 
  ------------------------------------ 
  X and C from original XC functional choice 
  Hartree-Fock Energy :          0.000000000 Ha              0.000000000 eV
  X Energy            :       -140.660247035 Ha          -3827.560065938 eV
  C Energy            :         -4.977172870 Ha           -135.435764678 eV
  Total XC Energy     :       -145.637419905 Ha          -3962.995830616 eV
  ------------------------------------ 
  LDA X and C from self-consistent density 
  X Energy LDA        :       -133.265326210 Ha          -3626.334032025 eV
  C Energy LDA        :         -8.846420090 Ha           -240.723338507 eV
  ------------------------------------ 
  End decomposition of the XC Energy 
  ------------------------------------ 

------------------------------------------------------------

------------------------------------------------------------------------------
  Final output of selected total energy values:

  The following output summarizes some interesting total energy values
  at the end of a run (AFTER all relaxation, molecular dynamics, etc.).

  | Total energy of the DFT / Hartree-Fock s.c.f. calculation      :         -44206.881086044 eV
  | Final zero-broadening corrected energy (caution - metals only) :         -44206.881086044 eV
  | For reference only, the value of 1 Hartree used in FHI-aims is :             27.211384500 eV

  Before relying on these values, please be sure to understand exactly which
  total energy value is referred to by a given number. Different objects may
  all carry the same name 'total energy'. Definitions:

  Total energy of the DFT / Hartree-Fock s.c.f. calculation:
  | Note that this energy does not include ANY quantities calculated after the
  | s.c.f. cycle, in particular not ANY RPA, MP2, etc. many-body perturbation terms.

  Final zero-broadening corrected energy:
  | For metallic systems only, a broadening of the occupation numbers at the Fermi
  | level can be extrapolated back to zero broadening by an electron-gas inspired
  | formula. For all systems that are not real metals, this value can be
  | meaningless and should be avoided.

------------------------------------------------------------------------------
  Methods described in the following list of references were used in this FHI-aims run.
  If you publish the results, please make sure to cite these reference if they apply.
  FHI-aims is an academic code, and for our developers (often, Ph.D. students
  and postdocs), scientific credit in the community is essential.
  Thank you for helping us!

  For any use of FHI-aims, please cite:

    Volker Blum, Ralf Gehrke, Felix Hanke, Paula Havu, Ville Havu,
    Xinguo Ren, Karsten Reuter, and Matthias Scheffler
    'Ab initio molecular simulations with numeric atom-centered orbitals'
    Computer Physics Communications 180, 2175-2196 (2009)
    http://dx.doi.org/10.1016/j.cpc.2009.06.022


  The ELSI infrastructure was used in your run to solve the Kohn-Sham electronic structure.
  Please check out http://elsi-interchange.org to learn more.
  If scalability is important for your project, please acknowledge ELSI by citing:

    V. W-z. Yu, F. Corsetti, A. Garcia, W. P. Huhn, M. Jacquelin, W. Jia,
    B. Lange, L. Lin, J. Lu, W. Mi, A. Seifitokaldani, A. Vazquez-Mayagoitia,
    C. Yang, H. Yang, and V. Blum
    'ELSI: A unified software interface for Kohn-Sham electronic structure solvers'
    Computer Physics Communications 222, 267-285 (2018).
    http://dx.doi.org/10.1016/j.cpc.2017.09.007


  For the real-space grid partitioning and parallelization used in this calculation, please cite:

    Ville Havu, Volker Blum, Paula Havu, and Matthias Scheffler,
    'Efficient O(N) integration for all-electron electronic structure calculation'
    'using numerically tabulated basis functions'
    Journal of Computational Physics 228, 8367-8379 (2009).
    http://dx.doi.org/10.1016/j.jcp.2009.08.008

  Of course, there are many other important community references, e.g., those cited in the
  above references. Our list is limited to references that describe implementations in the
  FHI-aims code. The reason is purely practical (length of this list) - please credit others as well.

------------------------------------------------------------
          Leaving FHI-aims.
          Date     :  20220517, Time     :  121202.347

          Computational steps:
          | Number of self-consistency cycles          :           15
          | Number of SCF (re)initializations          :            1

          Detailed time accounting                     :  max(cpu_time)    wall_clock(cpu1)
          | Total time                                  :        2.068 s           2.138 s
          | Preparation time                            :        0.184 s           0.185 s
          | Boundary condition initalization            :        0.000 s           0.000 s
          | Grid partitioning                           :        0.038 s           0.038 s
          | Preloading free-atom quantities on grid     :        0.016 s           0.016 s
          | Free-atom superposition energy              :        0.005 s           0.005 s
          | Total time for integrations                 :        0.521 s           0.522 s
          | Total time for solution of K.-S. equations  :        0.073 s           0.073 s
          | Total time for density & force components   :        0.711 s           0.712 s
          | Total time for mixing                       :        0.065 s           0.035 s
          | Total time for Hartree multipole update     :        0.019 s           0.018 s
          | Total time for Hartree multipole sum        :        0.314 s           0.313 s
          | Total time for total energy evaluation      :        0.002 s           0.003 s
          | Total time NSC force correction             :        0.063 s           0.063 s
          | Total time for scaled ZORA corrections      :        0.000 s           0.000 s

          Partial memory accounting:
          | Residual value for overall tracked memory usage across tasks:     0.000000 MB (should be 0.000000 MB)
          | Peak values for overall tracked memory usage:
          |   Minimum:        2.888 MB (on task 17 after allocating hessian_basis_wave)
          |   Maximum:        3.033 MB (on task  0 after allocating hessian_basis_wave)
          |   Average:        2.963 MB
          | Largest tracked array allocation:
          |   Minimum:        1.402 MB (hessian_basis_wave on task 17)
          |   Maximum:        1.488 MB (hessian_basis_wave on task  0)
          |   Average:        1.449 MB
          Note:  These values currently only include a subset of arrays which are explicitly tracked.
          The "true" memory usage will be greater.

          Have a nice day.
------------------------------------------------------------
