********************************************************************************
*                       GENERAL UTILITY LATTICE PROGRAM                        *
*                                 Julian Gale                                  *
*                       Curtin Institute for Computation                       *
*                           Department of Chemistry                            *
*                    Curtin University, Western Australia                      *
********************************************************************************
* Version = 5.1.1 * Last modified =  24th November 2018                        *
********************************************************************************
*  optimise     - perform optimisation run                                     *
*  conp         - constant pressure calculation                                *
*  shell        - only shells and radii to be optimised                        *
*  phonon       - calculate phonons for final geometry                         *
*  eigenvectors - output phonon eigenvectors                                   *
********************************************************************************

  Job Started  at 14:39.56 25th May        2022                               

  Number of CPUs =     1

  Host name      = login03                                 


  Total number of configurations input =      1

********************************************************************************
*  Input for Configuration =   1                                               *
********************************************************************************

  Formula = Al3F9                                                       

  Number of irreducible atoms/shells =      21


  Total number atoms/shells =      21

  Dimensionality = 0               :  Cluster


  Charge on cluster =  -0.000000


  Initial cluster dipoles : x =      1.693895 e.Angs
                            y =     -2.312272 e.Angs
                            z =     -0.040043 e.Angs

  Temperature of configuration =  0.000     K 

  Symmetry number =      1

  Cartesian coordinates of cluster :

--------------------------------------------------------------------------------
   No.  Atomic       x           y          z         Charge      Occupancy
        Label      (Angs)      (Angs)     (Angs)        (e)         (Frac)  
--------------------------------------------------------------------------------
      1 Al    c     -0.1260      1.6527      2.1730     3.00000    1.000000    
      2 Al    c      2.6208      2.1797      1.9629     3.00000    1.000000    
      3 Al    c      1.5299      2.4605     -0.7015     3.00000    1.000000    
      4 F     c      0.9829      3.1331      2.8456     0.59000    1.000000    
      5 F     c     -1.4671      2.6138      2.1721     0.59000    1.000000    
      6 F     c     -0.5033     -0.0153      2.7494     0.59000    1.000000    
      7 F     c      1.9088      1.2454      1.8962     0.59000    1.000000    
      8 F     c      2.7728      1.9810     -0.1278     0.59000    1.000000    
      9 F     c      1.0713      3.0643     -2.4591     0.59000    1.000000    
     10 F     c      1.7038      4.2771      0.6397     0.59000    1.000000    
     11 F     c      3.9682      3.0991      2.3941     0.59000    1.000000    
     12 F     c     -0.0573      1.7926      0.2333     0.59000    1.000000    
     13 F     s      0.9829 *    3.1331 *    2.8456 *  -1.59000    1.000000    
     14 F     s     -1.4671 *    2.6138 *    2.1721 *  -1.59000    1.000000    
     15 F     s     -0.5033 *   -0.0153 *    2.7494 *  -1.59000    1.000000    
     16 F     s      1.9088 *    1.2454 *    1.8962 *  -1.59000    1.000000    
     17 F     s      2.7728 *    1.9810 *   -0.1278 *  -1.59000    1.000000    
     18 F     s      1.0713 *    3.0643 *   -2.4591 *  -1.59000    1.000000    
     19 F     s      1.7038 *    4.2771 *    0.6397 *  -1.59000    1.000000    
     20 F     s      3.9682 *    3.0991 *    2.3941 *  -1.59000    1.000000    
     21 F     s     -0.0573 *    1.7926 *    0.2333 *  -1.59000    1.000000    
--------------------------------------------------------------------------------


  Brillouin zone sampling points :

--------------------------------------------------------------------------------
  Point number          x          y          z            Weight
--------------------------------------------------------------------------------
        1           0.000000   0.000000   0.000000     1.00000000
--------------------------------------------------------------------------------


********************************************************************************
*  General input information                                                   *
********************************************************************************

  Species output for all configurations : 

--------------------------------------------------------------------------------
  Species    Type    Atomic    Atomic    Charge       Radii (Angs)     Library
                     Number     Mass       (e)     Cova   Ionic  VDW   Symbol
--------------------------------------------------------------------------------
    Al       Core       13      26.98   3.000000   1.350  0.000  2.050          
    F        Core        9      19.00   0.590000   0.710  0.000  1.300          
    F        Shell       9       0.00  -1.590000   0.710  0.000  1.300          
--------------------------------------------------------------------------------


  Accuracy factor for short range sums = 12.000

  Time limit = Infinity

  Maximum range for interatomic potentials =    100000.000000 Angstroms

  General interatomic potentials :

--------------------------------------------------------------------------------
Atom  Types   Potential      Parameter       Value         Units   Cutoffs(Ang)
  1     2                                                            Min /  Max 
--------------------------------------------------------------------------------
Al   c F    s Buckingham    Buckingham A     3760.0008    eV        0.000 10.000
                            Buckingham rho  0.22200000    Ang       
                            Buckingham C     0.0000000    eV*Ang^6  
--------------------------------------------------------------------------------
F    s F    s Buck 4 range  Buck4 A          1127.7000    eV        0.000 12.000
                            Buck4 rho       0.27530000    Ang       
                            Buck4 C          15.830000    eV*Ang^6  
                            Buck4 minimum    2.7900000    Ang       
--------------------------------------------------------------------------------
F    c F    s Spring (c-s)  Spring k 2       20.770000    eV*Ang^-2 0.000  0.800
                            Spring k 4       0.0000000    eV*Ang^-4 
--------------------------------------------------------------------------------

********************************************************************************
*  Output for configuration   1                                                *
********************************************************************************


  Components of energy : 

--------------------------------------------------------------------------------
  Interatomic potentials     =          32.99883754 eV    
  Monopole - monopole (real) =        -190.56070047 eV    
--------------------------------------------------------------------------------
  Total lattice energy       =        -157.56186292 eV    
--------------------------------------------------------------------------------
  Total lattice energy       =          -15202.3112 kJ/mol
--------------------------------------------------------------------------------


  Number of variables =       27

  Maximum number of calculations  =          2000
  Maximum Hessian update interval =            10
  Maximum step size               =   1.000000000
  Maximum parameter tolerance     =   0.000001000
  Maximum function  tolerance     =   0.000010000
  Maximum gradient  tolerance     =   0.000000010
  Maximum gradient  component     =   0.010000000

  Symmetry not applied to optimisation

  Newton-Raphson optimiser to be used

  BFGS hessian update to be used

  Lower half triangular hessian to be used

  Minimiser to switch to RFO
  When gradient norm is less than     0.010000

  Shell only optimisation

  Start of cluster optimisation :

  Cycle:      0 Energy:      -157.561863  Gnorm:      2.030032  CPU:    0.004
  ** Hessian calculated **
  Cycle:      1 Energy:      -172.670139  Gnorm:      0.912148  CPU:    0.005
  ** Hessian calculated **
  Cycle:      2 Energy:      -175.457536  Gnorm:      0.218026  CPU:    0.007
  Cycle:      3 Energy:      -175.810643  Gnorm:      0.077899  CPU:    0.008
  Cycle:      4 Energy:      -175.841243  Gnorm:      0.014717  CPU:    0.010
  Cycle:      5 Energy:      -175.842922  Gnorm:      0.006265  CPU:    0.011
  ** Hessian has required structure
  Cycle:      6 Energy:      -175.843149  Gnorm:      0.002314  CPU:    0.013
  ** Hessian has required structure
  Cycle:      7 Energy:      -175.843171  Gnorm:      0.001092  CPU:    0.014
  ** Hessian has required structure
  Cycle:      8 Energy:      -175.843178  Gnorm:      0.000674  CPU:    0.016
  ** Hessian has required structure
  Cycle:      9 Energy:      -175.843181  Gnorm:      0.000322  CPU:    0.017
  ** Hessian has required structure
  Cycle:     10 Energy:      -175.843181  Gnorm:      0.000211  CPU:    0.019
  ** Hessian has required structure
  Cycle:     11 Energy:      -175.843182  Gnorm:      0.000114  CPU:    0.020
  ** Hessian has required structure

  XYZ File written as 004/5/sp_mod_-80/sp_mod_-80_eig.xyz



  **** Optimisation achieved ****


  Final energy =    -175.84318179 eV
  Final Gnorm  =       0.00000001

  Components of energy : 

--------------------------------------------------------------------------------
  Interatomic potentials     =          41.93807480 eV    
  Monopole - monopole (real) =        -217.78125660 eV    
--------------------------------------------------------------------------------
  Total lattice energy       =        -175.84318179 eV    
--------------------------------------------------------------------------------
  Total lattice energy       =          -16966.1790 kJ/mol
--------------------------------------------------------------------------------

  Final cartesian coordinates of atoms :

--------------------------------------------------------------------------------
   No.  Atomic        x           y          z          Radius
        Label       (Angs)      (Angs)     (Angs)       (Angs) 
--------------------------------------------------------------------------------
     1  Al    c    -0.126043    1.652741    2.173027    0.000000
     2  Al    c     2.620815    2.179717    1.962943    0.000000
     3  Al    c     1.529876    2.460466   -0.701453    0.000000
     4  F     c     0.982905    3.133066    2.845604    0.000000
     5  F     c    -1.467092    2.613765    2.172136    0.000000
     6  F     c    -0.503323   -0.015262    2.749363    0.000000
     7  F     c     1.908768    1.245418    1.896199    0.000000
     8  F     c     2.772834    1.980974   -0.127777    0.000000
     9  F     c     1.071289    3.064319   -2.459128    0.000000
    10  F     c     1.703799    4.277052    0.639745    0.000000
    11  F     c     3.968219    3.099081    2.394146    0.000000
    12  F     c    -0.057349    1.792633    0.233306    0.000000
    13  F     s     1.087169    2.820222    2.697890    0.000000
    14  F     s    -1.350561    2.531375    2.178290    0.000000
    15  F     s    -0.454677    0.222232    2.680324    0.000000
    16  F     s     1.728130    1.076382    1.923251    0.000000
    17  F     s     2.734929    1.947296    0.051802    0.000000
    18  F     s     1.179757    2.910582   -2.145858    0.000000
    19  F     s     1.725578    3.892966    0.475148    0.000000
    20  F     s     3.823662    2.938448    2.364416    0.000000
    21  F     s     0.203254    1.843574    0.273954    0.000000
--------------------------------------------------------------------------------


  Final Cartesian derivatives :

--------------------------------------------------------------------------------
   No.  Atomic          x             y             z           Radius
        Label       (eV/Angs)     (eV/Angs)    (eV/Angs)      (eV/Angs)
--------------------------------------------------------------------------------
      1 Al    c       0.000000      0.000000      0.000000      0.000000
      2 Al    c       0.000000      0.000000      0.000000      0.000000
      3 Al    c       0.000000      0.000000      0.000000      0.000000
      4 F     c       0.000000      0.000000      0.000000      0.000000
      5 F     c       0.000000      0.000000      0.000000      0.000000
      6 F     c       0.000000      0.000000      0.000000      0.000000
      7 F     c       0.000000      0.000000      0.000000      0.000000
      8 F     c       0.000000      0.000000      0.000000      0.000000
      9 F     c       0.000000      0.000000      0.000000      0.000000
     10 F     c       0.000000      0.000000      0.000000      0.000000
     11 F     c       0.000000      0.000000      0.000000      0.000000
     12 F     c       0.000000      0.000000      0.000000      0.000000
     13 F     s      -0.000000     -0.000000     -0.000000      0.000000
     14 F     s      -0.000000      0.000000     -0.000000      0.000000
     15 F     s      -0.000000      0.000000     -0.000000      0.000000
     16 F     s       0.000000     -0.000000      0.000000      0.000000
     17 F     s       0.000000     -0.000000      0.000000      0.000000
     18 F     s       0.000000     -0.000000      0.000000      0.000000
     19 F     s      -0.000000      0.000000     -0.000000      0.000000
     20 F     s      -0.000000     -0.000000     -0.000000      0.000000
     21 F     s       0.000000     -0.000000     -0.000000      0.000000
--------------------------------------------------------------------------------
  Maximum abs         0.000000      0.000000      0.000000      0.000000
--------------------------------------------------------------------------------


  Born effective charge tensors : 

-------------------------------------------------------------------------------
  Atom             x           y             z
-------------------------------------------------------------------------------
    1 Al    x       1.2272      0.4394     -0.0952
            y       0.1403      0.7360      0.0390
            z      -0.1144      0.0463      1.6331
-------------------------------------------------------------------------------
    2 Al    x       1.0641     -1.2697     -0.2376
            y      -0.9915      1.0802     -0.3269
            z       0.0493     -0.3130      2.2997
-------------------------------------------------------------------------------
    3 Al    x       1.0107      0.3642     -0.3454
            y       0.4045      1.5228      0.4462
            z      -0.5901      0.4580      0.9818
-------------------------------------------------------------------------------
    4 F     x      -0.5621      0.1975      0.1527
            y      -0.0585     -0.3891     -0.0409
            z       0.0959     -0.0475     -0.3878
-------------------------------------------------------------------------------
    5 F     x      -0.1607     -0.3922      0.0233
            y      -0.3210     -0.3180      0.0149
            z       0.0170      0.0291     -0.6274
-------------------------------------------------------------------------------
    6 F     x      -0.4796      0.0648     -0.0472
            y       0.1441     -0.0629     -0.1686
            z      -0.0062     -0.1634     -0.4725
-------------------------------------------------------------------------------
    7 F     x      -0.5016      0.5069      0.0319
            y       0.6039     -0.1951      0.1215
            z      -0.0690      0.0434     -0.6361
-------------------------------------------------------------------------------
    8 F     x      -0.1054     -0.1310      0.3791
            y      -0.1103     -0.3402     -0.2400
            z       0.2949     -0.0874     -0.6479
-------------------------------------------------------------------------------
    9 F     x      -0.4853     -0.0547      0.1034
            y      -0.0650     -0.4674     -0.1244
            z       0.1387     -0.1464     -0.0942
-------------------------------------------------------------------------------
   10 F     x      -0.4914     -0.0417     -0.1348
            y       0.0543     -0.8438      0.0254
            z      -0.0741     -0.0396     -0.7149
-------------------------------------------------------------------------------
   11 F     x      -0.0943      0.3808      0.1739
            y       0.2847     -0.3508      0.0788
            z       0.1688      0.1565     -0.5472
-------------------------------------------------------------------------------
   12 F     x      -0.4217     -0.0642     -0.0041
            y      -0.0857     -0.3717      0.1750
            z       0.0892      0.0641     -0.7865
-------------------------------------------------------------------------------




  Moment of inertia tensor (10^-46 x kgm^2): 

-------------------------------------------------------------------------------
                x           y           z           Principal axis system
-------------------------------------------------------------------------------
       x        142.08      -20.45       11.51          113.488722
       y        -20.45      188.36       19.43          148.549323
       z         11.51       19.43      130.83          199.227173
-------------------------------------------------------------------------------
  Centre of mass (Ang) =     1.213805     2.272021     1.147859
-------------------------------------------------------------------------------


  Vibrational Frequency Calculation : 

--------------------------------------------------------------------------------

  Frequencies (cm-1) and Eigenvectors : 

  Frequency    -552.7598 -514.5664 -292.7474 -218.1171 -171.1457 -137.1101
  IR Intensity    0.1644    0.1559    0.0336    0.0374    0.0076    0.0214
     in X         0.0105    0.1079    0.0044    0.0066    0.0013    0.0023
     in Y         0.0276    0.0447    0.0199    0.0307    0.0001    0.0002
     in Z         0.1262    0.0033    0.0094    0.0001    0.0063    0.0188
  Raman Intsty    0.2791    0.0342    0.0445    0.0026    0.0870    0.1065

     1 x      -0.002802 -0.036948 -0.034042  0.000822 -0.003877 -0.007695
     1 y      -0.000108 -0.041880 -0.038330 -0.015949 -0.030445  0.033696
     1 z      -0.095398 -0.063047 -0.118765 -0.080628  0.028883  0.154112
     2 x       0.126603 -0.416730 -0.008809  0.096337 -0.195722  0.096613
     2 y      -0.231509  0.432500 -0.218636 -0.218419  0.141207 -0.130941
     2 z       0.560016  0.248012  0.147495  0.122201  0.100501 -0.015467
     3 x       0.016391  0.000870  0.136655  0.003109  0.267674 -0.012990
     3 y       0.016999 -0.071595  0.573173 -0.089984 -0.066919  0.075380
     3 z       0.062750 -0.039480  0.099461 -0.083695 -0.244452  0.094467
     4 x       0.032120 -0.063885  0.043016  0.070098 -0.132661 -0.020077
     4 y      -0.028635 -0.043327 -0.025733 -0.040858  0.125649 -0.071108
     4 z       0.057280  0.022255 -0.124598 -0.156841  0.043840  0.007975
     5 x       0.007421  0.001747  0.023421  0.029480 -0.030954 -0.191466
     5 y       0.009604  0.011068  0.041013  0.028445 -0.064177 -0.228494
     5 z       0.024236  0.016968  0.118247  0.066856 -0.375006 -0.631368
     6 x       0.018472  0.031688 -0.032240 -0.013823 -0.086867  0.127987
     6 y       0.013544 -0.010419 -0.000905 -0.000370  0.013871  0.086894
     6 z       0.019164  0.001161 -0.019428 -0.040524  0.085960  0.368433
     7 x      -0.235713  0.563803  0.118258  0.113664 -0.157101  0.101694
     7 y       0.176329 -0.371748 -0.274981 -0.208067  0.132117 -0.137750
     7 z      -0.706708 -0.297028  0.102799  0.119156  0.021144 -0.046046
     8 x       0.028848  0.040601 -0.251068 -0.029033 -0.210364  0.071768
     8 y       0.011567  0.043243 -0.488204  0.557002 -0.164511  0.022571
     8 z       0.005779 -0.013479  0.070722  0.424902  0.522970 -0.109734
     9 x       0.005008 -0.019408  0.008927  0.024576  0.194649  0.018671
     9 y      -0.007404  0.008396  0.087837 -0.146629  0.015198  0.032235
     9 z       0.019618  0.000698 -0.009986 -0.087726 -0.156964  0.055720
    10 x      -0.031504 -0.006185 -0.020150 -0.268304  0.165801 -0.032041
    10 y       0.026547 -0.000537  0.148544  0.211762  0.035932  0.021561
    10 z      -0.010500  0.077515 -0.228196 -0.359479 -0.006087  0.011983
    11 x       0.049552 -0.009520 -0.063509 -0.079214  0.039340 -0.257121
    11 y       0.030394 -0.015354  0.046967  0.081324 -0.216023  0.378320
    11 z      -0.000086 -0.013287 -0.108786  0.076674  0.153972  0.030669
    12 x      -0.041261  0.000743  0.061563  0.033072  0.137034  0.090107
    12 y       0.023802 -0.001482  0.088658 -0.096098  0.069699 -0.078175
    12 z      -0.037216  0.031833  0.046469  0.007177 -0.152710  0.034584


  Frequency    -100.9631  -94.7194  -69.9583   -0.0000   -0.0000    0.0000
  IR Intensity    0.0258    0.0128    0.0090    0.0000    0.0000    0.0000
     in X         0.0017    0.0099    0.0003    0.0000    0.0000    0.0000
     in Y         0.0097    0.0007    0.0012    0.0000    0.0000    0.0000
     in Z         0.0143    0.0021    0.0075    0.0000    0.0000    0.0000
  Raman Intsty    0.0981    0.0012    0.0058    0.0000    0.0000    0.0000

     1 x      -0.046243  0.027520  0.078679  0.319583  0.008690  0.069857
     1 y       0.054827 -0.028507 -0.054630  0.053058  0.183687 -0.265580
     1 z       0.040790 -0.071922  0.103909 -0.046264  0.270689  0.177978
     2 x      -0.032552  0.011695 -0.022533  0.319583  0.008690  0.069857
     2 y      -0.039232  0.124742  0.099797  0.053058  0.183687 -0.265580
     2 z       0.158977  0.074526  0.078962 -0.046264  0.270689  0.177978
     3 x       0.016187  0.141163 -0.095091  0.319583  0.008690  0.069857
     3 y      -0.202803 -0.158835  0.044285  0.053058  0.183687 -0.265580
     3 z       0.003622 -0.065874 -0.024718 -0.046264  0.270689  0.177978
     4 x       0.055841 -0.099946  0.002022  0.268188  0.007292  0.058623
     4 y      -0.033202  0.042004  0.112215  0.044525  0.154147 -0.222870
     4 z       0.140798  0.036977  0.010554 -0.038824  0.227157  0.149355
     5 x       0.291115 -0.168819 -0.161218  0.268188  0.007292  0.058623
     5 y       0.507295 -0.295452 -0.363987  0.044525  0.154147 -0.222870
     5 z      -0.204941  0.293594  0.052975 -0.038824  0.227157  0.149355
     6 x      -0.258544  0.102591  0.217253  0.268188  0.007292  0.058623
     6 y       0.110005 -0.126289 -0.015631  0.044525  0.154147 -0.222870
     6 z       0.049254 -0.275531  0.293354 -0.038824  0.227157  0.149355
     7 x      -0.026905 -0.024963 -0.020499  0.268188  0.007292  0.058623
     7 y      -0.034665  0.138192  0.092484  0.044525  0.154147 -0.222870
     7 z       0.138344  0.060781  0.069677 -0.038824  0.227157  0.149355
     8 x      -0.001458 -0.006612 -0.101021  0.268188  0.007292  0.058623
     8 y      -0.106885 -0.125051  0.088376  0.044525  0.154147 -0.222870
     8 z       0.079393  0.182731  0.055137 -0.038824  0.227157  0.149355
     9 x       0.002750  0.104980 -0.091734  0.268188  0.007292  0.058623
     9 y      -0.125033 -0.093220  0.004412  0.044525  0.154147 -0.222870
     9 z       0.018509 -0.037059 -0.027156 -0.038824  0.227157  0.149355
    10 x      -0.041376  0.113863 -0.134119  0.268188  0.007292  0.058623
    10 y      -0.136456 -0.106599  0.117522  0.044525  0.154147 -0.222870
    10 z       0.049340  0.039229 -0.076800 -0.038824  0.227157  0.149355
    11 x       0.028103 -0.249749  0.371983  0.268188  0.007292  0.058623
    11 y       0.209992  0.618193 -0.164444  0.044525  0.154147 -0.222870
    11 z      -0.531769 -0.199093 -0.625841 -0.038824  0.227157  0.149355
    12 x       0.025080  0.013711 -0.036259  0.268188  0.007292  0.058623
    12 y      -0.167967  0.022820  0.022459  0.044525  0.154147 -0.222870
    12 z       0.018706 -0.026233  0.059639 -0.038824  0.227157  0.149355


  Frequency      79.1435  120.3305  151.4345  178.0187  183.8210  191.6409
  IR Intensity    0.0310    0.0130    0.0169    0.0077    0.0465    0.0161
     in X         0.0000    0.0008    0.0070    0.0009    0.0057    0.0011
     in Y         0.0004    0.0112    0.0039    0.0001    0.0126    0.0003
     in Z         0.0306    0.0010    0.0059    0.0068    0.0282    0.0148
  Raman Intsty    0.0598    0.3914    0.0014    0.0060    0.0054    0.0075

     1 x       0.016325 -0.189057  0.180261  0.033630 -0.012290 -0.079536
     1 y       0.100212  0.453718  0.008907 -0.013527 -0.006034 -0.271733
     1 z       0.017770 -0.150197 -0.004461  0.311569 -0.041667 -0.051407
     2 x      -0.028786  0.106008  0.106659 -0.003955  0.027970 -0.150879
     2 y       0.027045 -0.097702  0.198911 -0.047787 -0.175934  0.109431
     2 z      -0.161869  0.139365  0.112878 -0.117955 -0.091585  0.155503
     3 x       0.000660  0.104856 -0.109458 -0.074170  0.135394  0.187651
     3 y      -0.168861 -0.144464 -0.030220  0.076901 -0.082478  0.126511
     3 z      -0.171650  0.091662  0.047141 -0.017596 -0.168506  0.112774
     4 x       0.062948 -0.017522  0.057257  0.113292  0.063687 -0.227405
     4 y       0.087568  0.098092  0.204288 -0.105903 -0.160303  0.143073
     4 z      -0.132289 -0.092283 -0.046496  0.234966  0.004280 -0.267858
     5 x       0.058640 -0.472093  0.157355  0.043942 -0.018553  0.063700
     5 y       0.144942 -0.034990  0.006052  0.009317 -0.016464 -0.054869
     5 z       0.347844 -0.047771 -0.222295 -0.093347  0.060286  0.027569
     6 x       0.167618 -0.060504  0.203640 -0.071561 -0.063327 -0.323228
     6 y       0.256165  0.358964 -0.067875 -0.135647  0.045052 -0.121179
     6 z       0.605343 -0.173147 -0.191554 -0.140089  0.072944  0.184538
     7 x      -0.007051  0.092511  0.092927  0.019411 -0.001579 -0.139386
     7 y       0.009075 -0.112664  0.184269 -0.063149 -0.139005  0.116793
     7 z      -0.143629  0.117606  0.045443 -0.120564 -0.062778  0.116033
     8 x      -0.087445  0.154612 -0.163767 -0.073619  0.011981  0.371003
     8 y      -0.192867 -0.100933 -0.210300  0.050991  0.134046  0.121964
     8 z      -0.017030 -0.016397  0.046608 -0.032211  0.193319 -0.228964
     9 x      -0.016198 -0.010090 -0.586369  0.011313 -0.638361 -0.101263
     9 y      -0.256332 -0.297018 -0.280830 -0.512190  0.270620 -0.282538
     9 z      -0.177708  0.051400  0.080836 -0.227767  0.151102  0.042990
    10 x       0.057497  0.118380 -0.070814  0.120116  0.443545  0.211143
    10 y      -0.105674 -0.072385  0.037418  0.192225 -0.025542  0.112192
    10 z      -0.203063 -0.010650 -0.162023  0.029731  0.084187 -0.180641
    11 x      -0.146804  0.181028  0.111683 -0.049268 -0.070230 -0.030947
    11 y       0.079259 -0.156754  0.092734  0.000123 -0.001335  0.011803
    11 z       0.122006 -0.005368  0.224488 -0.057503 -0.122291 -0.009270
    12 x      -0.075141 -0.012308 -0.013383 -0.060602  0.092811  0.227342
    12 y       0.027441  0.065595 -0.177389  0.545659  0.208054 -0.004589
    12 z      -0.025214  0.080289  0.039625  0.197035 -0.021462  0.057172


  Frequency     222.3898  238.3394  247.5859  264.2783  304.8253  315.7812
  IR Intensity    0.0139    0.0373    0.0290    0.0211    0.0161    0.0547
     in X         0.0125    0.0072    0.0139    0.0006    0.0119    0.0023
     in Y         0.0001    0.0096    0.0000    0.0127    0.0003    0.0339
     in Z         0.0013    0.0205    0.0151    0.0077    0.0039    0.0185
  Raman Intsty    0.0014    0.1549    0.1142    0.0778    0.3098    3.9260

     1 x      -0.176302 -0.023879 -0.204458  0.044433  0.090979  0.040267
     1 y      -0.088309 -0.030689  0.146282 -0.073500  0.014588  0.000752
     1 z      -0.322469  0.262547  0.357520 -0.063206  0.050526  0.117981
     2 x      -0.085346  0.025133 -0.167422  0.001334 -0.057358  0.067153
     2 y      -0.049875 -0.045605 -0.054502  0.039801 -0.063947 -0.163278
     2 z       0.107486 -0.082344  0.013296  0.211646 -0.044961  0.425313
     3 x       0.042731 -0.152645  0.078369  0.026100  0.222301 -0.176520
     3 y       0.047929 -0.193333 -0.060448 -0.270223 -0.048046 -0.169832
     3 z       0.098711  0.222183 -0.133282 -0.084472 -0.088059 -0.337776
     4 x      -0.211387 -0.025569 -0.092114  0.046259  0.077978  0.015633
     4 y      -0.124564  0.277857  0.067664 -0.050759  0.195417  0.156087
     4 z      -0.075484 -0.557543  0.145540  0.219205 -0.282025 -0.228433
     5 x       0.072578  0.053357 -0.135189  0.047084  0.066907  0.036617
     5 y       0.252567  0.084534  0.229832 -0.068389 -0.034181 -0.015388
     5 z      -0.120335 -0.090227  0.054212 -0.097909 -0.003175  0.017229
     6 x       0.625767  0.017683  0.394737 -0.070312  0.001664 -0.002517
     6 y      -0.130974 -0.155425 -0.166094 -0.019424  0.004222 -0.040919
     6 z       0.059876 -0.077614 -0.170159  0.036200 -0.029961 -0.001793
     7 x      -0.113742  0.044709 -0.161165  0.019335 -0.064002  0.016554
     7 y      -0.017809 -0.055781 -0.049196  0.026636 -0.047057 -0.114731
     7 z       0.206078 -0.158707 -0.057152  0.206227 -0.055566  0.274128
     8 x       0.086546 -0.082686  0.094788  0.146345  0.155842 -0.124727
     8 y       0.084203 -0.034022 -0.025024 -0.116022 -0.082844 -0.015524
     8 z       0.032957  0.165327 -0.112084 -0.161306  0.051607 -0.311819
     9 x       0.004319  0.191856 -0.029104  0.027240 -0.133950 -0.009896
     9 y      -0.144371  0.132712  0.145809  0.284284  0.017723  0.148439
     9 z       0.045597  0.254156 -0.044611  0.095793  0.021377 -0.367509
    10 x       0.035254  0.243526  0.033088 -0.122013 -0.603281  0.132189
    10 y      -0.019934 -0.051483  0.044560 -0.166538 -0.233411  0.198144
    10 z       0.181723 -0.089737 -0.304994 -0.534894  0.297504  0.295781
    11 x      -0.041173 -0.002861 -0.117965  0.045875 -0.092715  0.028279
    11 y      -0.043447  0.002194 -0.102954  0.032154 -0.040357  0.065695
    11 z      -0.037479 -0.091510 -0.047160  0.101608 -0.022665  0.095805
    12 x      -0.197293 -0.259612  0.362682 -0.225453  0.286590 -0.009789
    12 y       0.251880  0.120713 -0.181933  0.440223  0.336557  0.014247
    12 z      -0.154378  0.166358  0.253353  0.058850  0.121207 -0.018291


  Frequency     347.6015  361.0438  384.5281  409.9067  490.7602  510.7574
  IR Intensity    0.0228    0.0381    0.0890    0.0557    0.0614    0.0780
     in X         0.0001    0.0006    0.0100    0.0437    0.0321    0.0001
     in Y         0.0127    0.0375    0.0026    0.0085    0.0045    0.0230
     in Z         0.0101    0.0001    0.0764    0.0034    0.0249    0.0548
  Raman Intsty    0.9923    0.0049    1.9160    0.0319    0.3128    2.0788

     1 x      -0.245371  0.052462  0.103180  0.308212  0.030264  0.200767
     1 y      -0.084848  0.033059 -0.050837  0.082780  0.002738  0.148917
     1 z       0.005464  0.008824 -0.475273 -0.010002  0.025581  0.339740
     2 x       0.316217 -0.154184 -0.139216  0.089078  0.017820 -0.170224
     2 y       0.089847 -0.009977  0.046083 -0.195377 -0.008545  0.126675
     2 z      -0.114634 -0.070654 -0.028657 -0.080948 -0.071763  0.155010
     3 x       0.019011  0.088122 -0.193437 -0.047969  0.340747  0.005385
     3 y      -0.191306 -0.293968 -0.141337 -0.079672  0.117155  0.069786
     3 z      -0.079082  0.053388  0.020394  0.019940 -0.119945  0.025962
     4 x      -0.338213  0.241768  0.133956 -0.730595 -0.065951 -0.075374
     4 y      -0.397678  0.020805 -0.112059  0.204048 -0.004465 -0.606653
     4 z      -0.148923  0.029252 -0.038432  0.199330 -0.000866 -0.341060
     5 x      -0.115057  0.012757  0.107113  0.281462  0.037826  0.160564
     5 y       0.166391 -0.046071 -0.096417 -0.107743 -0.012680 -0.128506
     5 z       0.033984  0.030833 -0.080484  0.047188 -0.051974  0.012064
     6 x      -0.078207  0.021420  0.054524  0.017829 -0.006016  0.074344
     6 y      -0.115125  0.038813  0.189702  0.235926 -0.000093  0.348301
     6 z       0.098315 -0.020583 -0.010810 -0.069388 -0.012468 -0.161313
     7 x       0.186134 -0.103237 -0.152612  0.045832 -0.012790 -0.129119
     7 y       0.174539 -0.050478  0.078583 -0.177134  0.012513  0.114428
     7 z      -0.077275 -0.001643  0.011990 -0.064584 -0.040367  0.076835
     8 x      -0.049053  0.197865 -0.156479 -0.008998  0.344336  0.019451
     8 y      -0.190218 -0.242088 -0.002926 -0.014398 -0.073152  0.004519
     8 z       0.048798 -0.020972 -0.011504 -0.028374  0.123909 -0.011324
     9 x      -0.010121  0.011312  0.117440  0.010204 -0.113749 -0.007852
     9 y       0.063491 -0.008780  0.037068 -0.002330  0.095140 -0.017861
     9 z       0.014891  0.270048  0.027074  0.069427 -0.305034 -0.003602
    10 x      -0.167578 -0.105663  0.101132 -0.011182 -0.048762  0.001400
    10 y       0.291701  0.697958  0.133876  0.106065  0.096883 -0.066032
    10 z       0.044881  0.051423  0.045535 -0.018534  0.080698 -0.078997
    11 x       0.305628 -0.178552 -0.130898 -0.053399 -0.012461 -0.060022
    11 y       0.140297 -0.061834 -0.047548 -0.060489 -0.013435 -0.048705
    11 z       0.070227 -0.058222 -0.017281 -0.048520 -0.004958 -0.026854
    12 x       0.159390 -0.081464  0.199271  0.032582 -0.585779 -0.026205
    12 y       0.088611 -0.025527 -0.006193  0.045171 -0.233396 -0.011056
    12 z       0.139429 -0.270076  0.650113 -0.001928  0.409023 -0.086249


  Frequency     661.5660  684.8339  747.3912  822.6509  938.5890 1163.7854
  IR Intensity    0.0312    0.0053    0.0289    0.0060    0.0023    0.0048
     in X         0.0140    0.0052    0.0158    0.0025    0.0018    0.0034
     in Y         0.0021    0.0000    0.0120    0.0034    0.0005    0.0013
     in Z         0.0152    0.0001    0.0011    0.0000    0.0000    0.0001
  Raman Intsty    0.0076    0.0005    0.2640    0.0133    0.1276    0.1861

     1 x      -0.020722  0.130058 -0.538869  0.447445 -0.012611 -0.043180
     1 y      -0.028826  0.088306 -0.447248 -0.550816 -0.001778 -0.052919
     1 z      -0.034453 -0.025799  0.150220  0.069658 -0.001954  0.003604
     2 x       0.033845  0.262162  0.131690 -0.026841  0.013881  0.534095
     2 y       0.017936  0.027277 -0.035425 -0.020521 -0.037508  0.537536
     2 z      -0.013503  0.141677  0.005645 -0.002412  0.031021  0.081778
     3 x      -0.320449  0.055248  0.054893 -0.003422 -0.552433 -0.020713
     3 y      -0.110843  0.010988 -0.001596  0.000959  0.255189  0.020152
     3 z       0.495858 -0.069627 -0.052961 -0.006187 -0.479644 -0.030066
     4 x       0.010539 -0.047419  0.076769 -0.017287  0.000041  0.004374
     4 y       0.012492 -0.037892  0.145893  0.025113  0.002947 -0.009138
     4 z       0.009193 -0.016628  0.061236  0.004571  0.002733 -0.005815
     5 x       0.000074 -0.118635  0.208054 -0.515496  0.004035  0.001854
     5 y      -0.002804  0.087622 -0.153078  0.366648 -0.002699  0.001490
     5 z       0.008513 -0.002913  0.001649  0.001787  0.000545 -0.000134
     6 x       0.006310 -0.052657  0.115785  0.048047  0.001351 -0.007454
     6 y       0.034755 -0.164435  0.501111  0.275307  0.001161  0.014606
     6 z      -0.006005  0.060257 -0.168307 -0.092656  0.000413  0.000179
     7 x       0.067763  0.365066  0.175887 -0.025451  0.038391 -0.382490
     7 y       0.054675  0.375750  0.142774 -0.020601  0.035555 -0.464141
     7 z       0.002370  0.057213 -0.004095 -0.002052  0.007609 -0.023884
     8 x       0.310702 -0.077475 -0.038450  0.009605  0.472484  0.001434
     8 y      -0.151927  0.021886  0.014397  0.001137 -0.175250 -0.013735
     8 z       0.238776 -0.048344 -0.021960 -0.004358  0.265799  0.018716
     9 x      -0.118655  0.012069  0.003831 -0.001228  0.076828  0.003592
     9 y       0.190349 -0.020959 -0.007102 -0.001244 -0.083426 -0.003952
     9 z      -0.571268  0.062775  0.028473  0.004488  0.229354  0.007257
    10 x       0.025718 -0.007868 -0.005424 -0.002460  0.034386 -0.005615
    10 y       0.008148 -0.012675  0.000961  0.003194 -0.038449 -0.006580
    10 z      -0.046840  0.004055  0.017252  0.003609  0.017406 -0.007569
    11 x      -0.108036 -0.580475 -0.104652  0.021233 -0.001352 -0.176760
    11 y      -0.074374 -0.392904 -0.072048  0.022068  0.002392 -0.121986
    11 z      -0.044309 -0.185310 -0.032300  0.009334  0.004728 -0.055692
    12 x       0.171806 -0.025825 -0.012002 -0.014093  0.030622  0.000754
    12 y       0.073747 -0.007219  0.004165  0.008061  0.000492  0.001934
    12 z      -0.124166  0.013780 -0.004571  0.002516  0.008338  0.001027




--------------------------------------------------------------------------------
  Vibrational properties (for cluster):  Temperature  =       0.000 K
--------------------------------------------------------------------------------
  Zero point energy            =        0.621227 eV
--------------------------------------------------------------------------------

  Phonon density of states : 

--------------------------------------------------------------------------------
 Frequency (cm-1) Density of States                                             
--------------------------------------------------------------------------------
    0.00000 |******************************                                0.040
   18.18415 |                                                              0.000
   36.36830 |                                                              0.000
   54.55244 |                                                              0.000
   72.73659 |******************************                                0.040
   90.92074 |                                                              0.000
  109.10489 |******************************                                0.040
  127.28904 |                                                              0.000
  145.47319 |******************************                                0.040
  163.65733 |******************************                                0.040
  181.84148 |************************************************************  0.080
  200.02563 |                                                              0.000
  218.20978 |******************************                                0.040
  236.39393 |************************************************************  0.080
  254.57807 |******************************                                0.040
  272.76222 |                                                              0.000
  290.94637 |******************************                                0.040
  309.13052 |******************************                                0.040
  327.31467 |                                                              0.000
  345.49881 |************************************************************  0.080
  363.68296 |                                                              0.000
  381.86711 |******************************                                0.040
  400.05126 |******************************                                0.040
  418.23541 |                                                              0.000
  436.41956 |                                                              0.000
  454.60370 |                                                              0.000
  472.78785 |******************************                                0.040
  490.97200 |                                                              0.000
  509.15615 |******************************                                0.040
  527.34030 |                                                              0.000
  545.52444 |                                                              0.000
  563.70859 |                                                              0.000
  581.89274 |                                                              0.000
  600.07689 |                                                              0.000
  618.26104 |                                                              0.000
  636.44519 |                                                              0.000
  654.62933 |******************************                                0.040
  672.81348 |******************************                                0.040
  690.99763 |                                                              0.000
  709.18178 |                                                              0.000
  727.36593 |                                                              0.000
  745.55007 |******************************                                0.040
  763.73422 |                                                              0.000
  781.91837 |                                                              0.000
  800.10252 |                                                              0.000
  818.28667 |******************************                                0.040
  836.47081 |                                                              0.000
  854.65496 |                                                              0.000
  872.83911 |                                                              0.000
  891.02326 |                                                              0.000
  909.20741 |                                                              0.000
  927.39156 |******************************                                0.040
  945.57570 |                                                              0.000
  963.75985 |                                                              0.000
  981.94400 |                                                              0.000
 1000.12815 |                                                              0.000
 1018.31230 |                                                              0.000
 1036.49644 |                                                              0.000
 1054.68059 |                                                              0.000
 1072.86474 |                                                              0.000
 1091.04889 |                                                              0.000
 1109.23304 |                                                              0.000
 1127.41719 |                                                              0.000
 1145.60133 |******************************                                0.040
--------------------------------------------------------------------------------



  Time to end of optimisation =       0.0301 seconds


  Peak dynamic memory used =       0.65 MB 


  Timing analysis for GULP :

--------------------------------------------------------------------------------
  Task / Subroutine                                          Time (Seconds)
--------------------------------------------------------------------------------
  Calculation of real space energy and derivatives                0.0019
  Calculation of phonons                                          0.0018
  Calculation and manipulation of Hessian matrix                  0.0011
--------------------------------------------------------------------------------
  Total CPU time                                                  0.0302
--------------------------------------------------------------------------------


  Job Finished at 14:39.56 25th May        2022                               

