********************************************************************************
*                       GENERAL UTILITY LATTICE PROGRAM                        *
*                                 Julian Gale                                  *
*                       Curtin Institute for Computation                       *
*                           Department of Chemistry                            *
*                    Curtin University, Western Australia                      *
********************************************************************************
* Version = 5.1.1 * Last modified =  11th January 2019                         *
********************************************************************************
*  single       - perform a single point run                                   *
*  phonon       - calculate phonons for final geometry                         *
*  eigenvectors - output phonon eigenvectors                                   *
********************************************************************************

  Job Started  at 10:33.19 17th May        2022                               

  Number of CPUs =     1

  Host name      = login04                                 


  Total number of configurations input =      1

********************************************************************************
*  Input for Configuration =   1                                               *
********************************************************************************

  Formula = Al3F9                                                       

  Number of irreducible atoms/shells =      21


  Total number atoms/shells =      21

  Dimensionality = 0               :  Cluster


  Charge on cluster =  -0.000000


  Initial cluster dipoles : x =      1.235276 e.Angs
                            y =     -1.014019 e.Angs
                            z =     -0.376622 e.Angs

  Temperature of configuration =  0.000     K 

  Symmetry number =      1

  Cartesian coordinates of cluster :

--------------------------------------------------------------------------------
   No.  Atomic       x           y          z         Charge      Occupancy
        Label      (Angs)      (Angs)     (Angs)        (e)         (Frac)  
--------------------------------------------------------------------------------
      1 Al    c     -0.1020      1.6468      2.1641     3.00000    1.000000    
      2 Al    c      2.5731      2.3934      1.8643     3.00000    1.000000    
      3 Al    c      1.4441      2.5625     -0.6742     3.00000    1.000000    
      4 F     c      0.9921      3.1130      2.8406     0.59000    1.000000    
      5 F     c     -1.5227      2.6493      2.1742     0.59000    1.000000    
      6 F     c     -0.4982     -0.0208      2.7511     0.59000    1.000000    
      7 F     c      1.8591      1.0569      1.9151     0.59000    1.000000    
      8 F     c      2.8690      1.9190     -0.1003     0.59000    1.000000    
      9 F     c      1.0794      3.0496     -2.4274     0.59000    1.000000    
     10 F     c      1.7258      4.1461      0.6364     0.59000    1.000000    
     11 F     c      4.0395      3.1123      2.4269     0.59000    1.000000    
     12 F     c     -0.0335      1.7968      0.2226     0.59000    1.000000    
     13 F     s      0.9921      3.1130      2.8406    -1.59000    1.000000    
     14 F     s     -1.5227      2.6493      2.1742    -1.59000    1.000000    
     15 F     s     -0.4982     -0.0208      2.7511    -1.59000    1.000000    
     16 F     s      1.8591      1.0569      1.9151    -1.59000    1.000000    
     17 F     s      2.8690      1.9190     -0.1003    -1.59000    1.000000    
     18 F     s      1.0794      3.0496     -2.4274    -1.59000    1.000000    
     19 F     s      1.7258      4.1461      0.6364    -1.59000    1.000000    
     20 F     s      4.0395      3.1123      2.4269    -1.59000    1.000000    
     21 F     s     -0.0335      1.7968      0.2226    -1.59000    1.000000    
--------------------------------------------------------------------------------


  Brillouin zone sampling points :

--------------------------------------------------------------------------------
  Point number          x          y          z            Weight
--------------------------------------------------------------------------------
        1           0.000000   0.000000   0.000000     1.00000000
--------------------------------------------------------------------------------


********************************************************************************
*  General input information                                                   *
********************************************************************************

  Species output for all configurations : 

--------------------------------------------------------------------------------
  Species    Type    Atomic    Atomic    Charge       Radii (Angs)     Library
                     Number     Mass       (e)     Cova   Ionic  VDW   Symbol
--------------------------------------------------------------------------------
    Al       Core       13      26.98   3.000000   1.350  0.000  2.050          
    F        Core        9      19.00   0.590000   0.710  0.000  1.300          
    F        Shell       9       0.00  -1.590000   0.710  0.000  1.300          
--------------------------------------------------------------------------------


  Accuracy factor for short range sums = 12.000

  Time limit = Infinity

  Maximum range for interatomic potentials =    100000.000000 Angstroms

  General interatomic potentials :

--------------------------------------------------------------------------------
Atom  Types   Potential      Parameter       Value         Units   Cutoffs(Ang)
  1     2                                                            Min /  Max 
--------------------------------------------------------------------------------
Al   c F    s Buckingham    Buckingham A     3760.0008    eV        0.000 10.000
                            Buckingham rho  0.22200000    Ang       
                            Buckingham C     0.0000000    eV*Ang^6  
--------------------------------------------------------------------------------
F    s F    s Buck 4 range  Buck4 A          1127.7000    eV        0.000 12.000
                            Buck4 rho       0.27530000    Ang       
                            Buck4 C          15.830000    eV*Ang^6  
                            Buck4 minimum    2.7900000    Ang       
--------------------------------------------------------------------------------
F    c F    s Spring (c-s)  Spring k 2       20.770000    eV*Ang^-2 0.000  0.800
                            Spring k 4       0.0000000    eV*Ang^-4 
--------------------------------------------------------------------------------

********************************************************************************
*  Output for configuration   1                                                *
********************************************************************************


  Components of energy : 

--------------------------------------------------------------------------------
  Interatomic potentials     =          14.64551054 eV    
  Monopole - monopole (real) =        -182.96864572 eV    
--------------------------------------------------------------------------------
  Total lattice energy       =        -168.32313518 eV    
--------------------------------------------------------------------------------
  Total lattice energy       =          -16240.6095 kJ/mol
--------------------------------------------------------------------------------

  Born effective charge tensors : 

-------------------------------------------------------------------------------
  Atom             x           y             z
-------------------------------------------------------------------------------
    1 Al    x       2.0652      0.3489     -0.1209
            y       0.2061      2.2570     -0.1878
            z       0.0214     -0.1119      2.0020
-------------------------------------------------------------------------------
    2 Al    x       1.9766     -0.6992     -0.2197
            y      -0.7103      1.2417     -0.1247
            z      -0.1315      0.0849      2.4166
-------------------------------------------------------------------------------
    3 Al    x       1.6754      0.3745     -0.0182
            y       0.5130      2.0122      0.1981
            z      -0.2006     -0.0808      2.7047
-------------------------------------------------------------------------------
    4 F     x      -0.8869      0.0256      0.1715
            y      -0.1253     -0.6457     -0.1784
            z       0.1844     -0.2782     -0.6938
-------------------------------------------------------------------------------
    5 F     x      -0.7629      0.1027      0.0388
            y       0.0295     -0.5272      0.0473
            z       0.1154     -0.0277     -0.5526
-------------------------------------------------------------------------------
    6 F     x      -0.5746     -0.2269      0.0863
            y      -0.1129     -0.9723      0.1669
            z       0.0794      0.2392     -0.5999
-------------------------------------------------------------------------------
    7 F     x      -0.7392      0.4233      0.0087
            y       0.3999     -0.0712      0.0288
            z       0.0100     -0.0250     -0.5292
-------------------------------------------------------------------------------
    8 F     x      -0.2899     -0.0190      0.1725
            y       0.0284     -0.4039     -0.2573
            z       0.1357     -0.1445     -0.8549
-------------------------------------------------------------------------------
    9 F     x      -0.5326      0.0215     -0.1064
            y       0.0234     -0.5581      0.1910
            z      -0.1747      0.2619     -1.4154
-------------------------------------------------------------------------------
   10 F     x      -0.5177     -0.0524     -0.1129
            y       0.0215     -1.4163     -0.0764
            z      -0.1523     -0.0867     -0.8457
-------------------------------------------------------------------------------
   11 F     x      -0.6861     -0.0907     -0.0852
            y      -0.0629     -0.4783     -0.0137
            z      -0.1055     -0.0272     -0.5443
-------------------------------------------------------------------------------
   12 F     x      -0.7273     -0.2084      0.1856
            y      -0.2103     -0.4379      0.2062
            z       0.2184      0.1960     -1.0873
-------------------------------------------------------------------------------




  Moment of inertia tensor (10^-46 x kgm^2): 

-------------------------------------------------------------------------------
                x           y           z           Principal axis system
-------------------------------------------------------------------------------
       x        140.51      -21.01       11.44          113.905724
       y        -21.01      188.31       19.28          148.207539
       z         11.44       19.28      132.69          199.385124
-------------------------------------------------------------------------------
  Centre of mass (Ang) =     1.211921     2.277355     1.146476
-------------------------------------------------------------------------------


  Vibrational Frequency Calculation : 

--------------------------------------------------------------------------------

  Frequencies (cm-1) and Eigenvectors : 

  Frequency    -371.2030 -324.9462 -251.2690 -196.4103 -189.0722  -66.9221
  IR Intensity    0.0952    0.0564    0.1670    0.0615    0.0410    0.0685
     in X         0.0878    0.0010    0.0017    0.0235    0.0252    0.0115
     in Y         0.0013    0.0291    0.1583    0.0252    0.0041    0.0092
     in Z         0.0061    0.0264    0.0070    0.0128    0.0116    0.0479
  Raman Intsty    0.0011    0.0362    3.1497    0.1384    0.2229    0.4929

     1 x      -0.027536  0.165389  0.021574  0.246685  0.146683  0.162002
     1 y      -0.198989  0.174334 -0.037981 -0.330651 -0.360673 -0.052036
     1 z      -0.157922  0.374738 -0.006557  0.000969  0.013646  0.253340
     2 x      -0.432800  0.081006 -0.084725  0.114374 -0.205951 -0.016828
     2 y       0.559195  0.178218  0.234992  0.047170  0.166673  0.025895
     2 z       0.384627 -0.393980 -0.304010  0.053464 -0.128038 -0.097485
     3 x       0.141264 -0.279696  0.090928 -0.126879 -0.132717 -0.284234
     3 y      -0.313211 -0.558573  0.243927  0.081466  0.176758  0.132094
     3 z      -0.141951 -0.188331  0.136091  0.104272 -0.100191  0.121307
     4 x      -0.002365 -0.090894 -0.062239  0.140050  0.081339  0.120226
     4 y       0.012734  0.031361  0.143146  0.174263  0.001663 -0.177184
     4 z       0.060103  0.109064  0.122064  0.125027 -0.159843  0.043426
     5 x       0.064205  0.001205  0.007853  0.260266  0.174961  0.107654
     5 y      -0.013009 -0.051731 -0.004145 -0.167973 -0.168848 -0.075769
     5 z       0.019108 -0.084561  0.013890  0.016569  0.029859  0.130600
     6 x       0.008871  0.023930 -0.009424 -0.014246  0.006501  0.211422
     6 y      -0.036886  0.037397 -0.026544 -0.215150 -0.191701 -0.008181
     6 z      -0.009276  0.024112  0.002486  0.051753  0.005086  0.180658
     7 x       0.167874 -0.011643  0.024610 -0.532277  0.277586  0.311180
     7 y       0.098847  0.174387  0.155739  0.384386 -0.071894 -0.182183
     7 z      -0.211172  0.159519  0.292105 -0.212676  0.500679 -0.471699
     8 x       0.109958 -0.018663  0.011604 -0.075345 -0.207742 -0.035207
     8 y      -0.048955  0.077102 -0.247532  0.033549  0.092249  0.194887
     8 z      -0.096645 -0.032579 -0.135915  0.078443  0.124870 -0.254091
     9 x      -0.003316 -0.023665  0.013402 -0.010500 -0.046414 -0.233975
     9 y      -0.025309 -0.077176  0.094182  0.037288  0.044713  0.156813
     9 z      -0.011683 -0.032322  0.020878 -0.009549 -0.050950 -0.000437
    10 x       0.086721  0.121158  0.013486 -0.041072 -0.083127 -0.202824
    10 y      -0.054230  0.025016 -0.704888  0.024368  0.336200 -0.158782
    10 z       0.128769  0.225677 -0.063875 -0.055485 -0.128636  0.006349
    11 x      -0.024690  0.023791 -0.044523  0.107379 -0.088416 -0.068342
    11 y       0.034399 -0.002391  0.069279 -0.036304  0.022721  0.100030
    11 z       0.033383 -0.023685 -0.085171  0.027378 -0.081971 -0.027597
    12 x      -0.027040  0.014464  0.012131 -0.113312  0.114088 -0.044426
    12 y      -0.023593  0.031539 -0.004676  0.006301 -0.044556  0.024113
    12 z      -0.013583 -0.097872  0.041450 -0.210580  0.016610  0.062513


  Frequency      -0.0000    0.0000    0.0000  111.9926  115.3881  123.7427
  IR Intensity    0.0000    0.0000    0.0000    0.0016    0.0112    0.0083
     in X         0.0000    0.0000    0.0000    0.0000    0.0035    0.0015
     in Y         0.0000    0.0000    0.0000    0.0015    0.0015    0.0002
     in Z         0.0000    0.0000    0.0000    0.0000    0.0062    0.0067
  Raman Intsty    0.0000    0.0000    0.0000    0.0188    0.1831    0.0184

     1 x       0.180275 -0.270719  0.036067 -0.030537  0.056093  0.058508
     1 y       0.271872  0.173773 -0.054568  0.016525  0.101985 -0.006205
     1 z       0.025990  0.060025  0.320641 -0.121259  0.095403 -0.030043
     2 x       0.180275 -0.270719  0.036067  0.076995 -0.053443 -0.022968
     2 y       0.271872  0.173773 -0.054568  0.024947 -0.017571 -0.024780
     2 z       0.025990  0.060025  0.320641  0.027070  0.059624  0.063867
     3 x       0.180275 -0.270719  0.036067 -0.068178 -0.052734 -0.075450
     3 y       0.271872  0.173773 -0.054568 -0.166863 -0.079476  0.069698
     3 z       0.025990  0.060025  0.320641  0.116289 -0.114035  0.030780
     4 x       0.151284 -0.227183  0.030267  0.154375  0.238530  0.018100
     4 y       0.228150  0.145827 -0.045793  0.036326  0.064130 -0.111388
     4 z       0.021811  0.050372  0.269076  0.051444 -0.035476  0.160880
     5 x       0.151284 -0.227183  0.030267  0.203454  0.299815  0.206926
     5 y       0.228150  0.145827 -0.045793  0.344397  0.428906  0.236994
     5 z       0.021811  0.050372  0.269076  0.038376  0.178164 -0.666191
     6 x       0.151284 -0.227183  0.030267 -0.084625 -0.051086 -0.080663
     6 y       0.228150  0.145827 -0.045793  0.011592  0.197241  0.072116
     6 z       0.021811  0.050372  0.269076 -0.180754  0.265596  0.014724
     7 x       0.151284 -0.227183  0.030267  0.029661 -0.015139  0.049356
     7 y       0.228150  0.145827 -0.045793  0.049011 -0.039975 -0.061473
     7 z       0.021811  0.050372  0.269076  0.145707 -0.005880  0.030094
     8 x       0.151284 -0.227183  0.030267  0.212160 -0.287640 -0.101953
     8 y       0.228150  0.145827 -0.045793  0.387064 -0.513594 -0.030417
     8 z       0.021811  0.050372  0.269076  0.055664 -0.037078  0.028066
     9 x       0.151284 -0.227183  0.030267 -0.146043 -0.104612 -0.068068
     9 y       0.228150  0.145827 -0.045793 -0.361251 -0.135198  0.252298
     9 z       0.021811  0.050372  0.269076  0.095425 -0.156878  0.007632
    10 x       0.151284 -0.227183  0.030267 -0.338153 -0.004153 -0.042618
    10 y       0.228150  0.145827 -0.045793 -0.136449  0.059545 -0.051081
    10 z       0.021811  0.050372  0.269076 -0.160942 -0.195792  0.144009
    11 x       0.151284 -0.227183  0.030267  0.062548  0.042797 -0.098180
    11 y       0.228150  0.145827 -0.045793  0.154463 -0.098798 -0.102700
    11 z       0.021811  0.050372  0.269076 -0.112195 -0.081609  0.368393
    12 x       0.151284 -0.227183  0.030267 -0.067494 -0.058828  0.164658
    12 y       0.228150  0.145827 -0.045793 -0.335732  0.031860 -0.250481
    12 z       0.021811  0.050372  0.269076  0.040939  0.020106 -0.164591


  Frequency     134.4211  140.7908  149.8768  155.4965  182.0434  188.3109
  IR Intensity    0.0053    0.0055    0.0098    0.0026    0.0195    0.0027
     in X         0.0040    0.0001    0.0038    0.0024    0.0000    0.0021
     in Y         0.0004    0.0035    0.0046    0.0001    0.0111    0.0001
     in Z         0.0009    0.0019    0.0014    0.0000    0.0084    0.0005
  Raman Intsty    0.0279    0.0013    0.0347    0.1629    0.0157    0.4555

     1 x       0.043415 -0.044947  0.062815  0.029586  0.031112 -0.056349
     1 y       0.005912 -0.050662  0.017656 -0.014228  0.107204  0.129160
     1 z       0.067832  0.054190 -0.023717  0.091592 -0.050952 -0.008892
     2 x      -0.023565 -0.072760  0.134346 -0.128848  0.004382  0.028509
     2 y      -0.021643 -0.044312 -0.051010 -0.060296  0.076960  0.061526
     2 z      -0.017184  0.057776  0.050934 -0.060952  0.132868  0.026874
     3 x       0.084014  0.067337 -0.042889  0.019158 -0.009759 -0.102734
     3 y      -0.066400  0.014825 -0.039063  0.017435  0.077353 -0.113953
     3 z      -0.061770  0.016482  0.071748 -0.107681  0.036859 -0.025418
     4 x      -0.028238 -0.042292  0.052868  0.111801 -0.041923 -0.071170
     4 y       0.106809 -0.125265 -0.111622 -0.221527  0.072576  0.131892
     4 z      -0.159662  0.187550  0.082382  0.292916  0.188618 -0.058011
     5 x      -0.054532 -0.026510  0.040819  0.156572 -0.118808 -0.101726
     5 y      -0.143663 -0.024929 -0.001440  0.151165 -0.103371  0.031272
     5 z      -0.086061 -0.251359 -0.000661  0.169023 -0.304552  0.203680
     6 x       0.115184 -0.060293  0.074590 -0.218904  0.497910  0.397313
     6 y       0.087325  0.071518 -0.147461 -0.085240 -0.023820 -0.039092
     6 z       0.388320  0.367367 -0.438315 -0.290864 -0.092953 -0.156734
     7 x      -0.069122 -0.071308  0.028728 -0.018617  0.077320  0.023527
     7 y       0.007420 -0.041493 -0.005616 -0.108030  0.027985  0.054271
     7 z      -0.031821 -0.042101 -0.059597 -0.016686  0.053696 -0.017339
     8 x       0.083149 -0.016565 -0.189371 -0.008411 -0.133825 -0.159677
     8 y       0.031455 -0.017857 -0.341921  0.101182 -0.099810 -0.154047
     8 z       0.056526  0.145889  0.085081  0.058940  0.140163  0.037737
     9 x       0.289546  0.239163 -0.120515  0.518759 -0.109447  0.373398
     9 y      -0.258869  0.057304 -0.057508  0.041504 -0.368118  0.376128
     9 z      -0.202322  0.011298  0.105775 -0.253600 -0.138821  0.055056
    10 x      -0.143060 -0.108423  0.142015 -0.252400 -0.368084 -0.309035
    10 y      -0.062531  0.044436  0.070881 -0.078816 -0.016477  0.050868
    10 z      -0.270098  0.151907  0.115591  0.107779  0.030416 -0.041573
    11 x      -0.370138  0.068335 -0.204483 -0.155229  0.175290  0.085461
    11 y       0.383510  0.266840  0.667985 -0.069074 -0.148943 -0.064740
    11 z       0.371232 -0.698054 -0.004174  0.058875 -0.036678  0.031092
    12 x       0.053443  0.077917 -0.008487 -0.038117 -0.009100 -0.082494
    12 y      -0.053585 -0.135046  0.012995  0.336865  0.348346 -0.477989
    12 z      -0.052860 -0.025561 -0.004014 -0.034577  0.018574 -0.045048


  Frequency     204.5090  210.0003  222.7072  235.9050  249.8151  259.6611
  IR Intensity    0.0332    0.0263    0.0451    0.0471    0.0650    0.1501
     in X         0.0149    0.0091    0.0026    0.0002    0.0060    0.0003
     in Y         0.0018    0.0113    0.0372    0.0026    0.0060    0.0088
     in Z         0.0165    0.0059    0.0054    0.0444    0.0530    0.1409
  Raman Intsty    0.4290    1.2020    0.0502    0.2032    2.0163    1.7958

     1 x       0.129783 -0.067727 -0.085117 -0.038885  0.093319  0.019335
     1 y       0.119756  0.036787  0.006878 -0.032991  0.081229 -0.064184
     1 z       0.053392 -0.100609  0.030534 -0.344376 -0.168077  0.041237
     2 x       0.139971 -0.004459 -0.044560  0.174793 -0.054066  0.157531
     2 y       0.082957 -0.143000  0.076046  0.081723  0.023156 -0.117136
     2 z       0.117276  0.074650 -0.090414 -0.057256 -0.137434  0.318863
     3 x       0.024055  0.185549 -0.075126 -0.117787  0.108747 -0.111746
     3 y       0.016314 -0.059802  0.378846  0.078155  0.038281 -0.031017
     3 z      -0.038753 -0.279756 -0.008581  0.008030 -0.093046  0.100753
     4 x       0.139653  0.094810 -0.156073  0.178102 -0.006028 -0.136687
     4 y       0.096544 -0.179842  0.010772 -0.337021 -0.038015  0.173797
     4 z       0.170429  0.354963  0.196439  0.158085 -0.075675 -0.360865
     5 x      -0.183342 -0.044297 -0.033561 -0.105070  0.026278  0.088826
     5 y      -0.414331 -0.007319  0.109807 -0.121943 -0.046261  0.024077
     5 z       0.075148  0.204577  0.147412  0.044783  0.224728 -0.001833
     6 x      -0.486266  0.281018  0.085417 -0.033293  0.039587 -0.066587
     6 y       0.249165 -0.037340 -0.056647  0.217600  0.205277 -0.046577
     6 z      -0.129823  0.099773 -0.026640  0.203853  0.025444  0.013630
     7 x       0.138910 -0.236039 -0.034450  0.166301  0.090733  0.073845
     7 y       0.060976  0.010735  0.070824  0.094990 -0.069447 -0.076446
     7 z      -0.060241  0.265668 -0.121456  0.184600 -0.144277  0.193500
     8 x      -0.055259  0.176697 -0.147089 -0.088442 -0.151634  0.009104
     8 y      -0.141796  0.068198  0.085786 -0.023608  0.132764  0.058539
     8 z      -0.029542 -0.157589 -0.163236 -0.210362  0.695572 -0.111868
     9 x      -0.108049 -0.379161  0.090668  0.156207 -0.184922 -0.016357
     9 y       0.004925  0.272689 -0.425697 -0.117527  0.011071  0.103000
     9 z      -0.191957 -0.292809 -0.302421  0.121863 -0.086055 -0.527630
    10 x      -0.275953 -0.041115  0.274942  0.039054  0.098834 -0.010956
    10 y       0.027997  0.032485  0.119378  0.076049 -0.234143 -0.180093
    10 z      -0.077040 -0.023055  0.263314  0.087097  0.158460  0.362656
    11 x       0.185847 -0.108067 -0.023757  0.138464 -0.052889  0.190257
    11 y       0.030592  0.090672 -0.069856  0.068633 -0.055461  0.164312
    11 z       0.061055  0.005089  0.031095  0.144212  0.000128 -0.021290
    12 x       0.294345  0.121068  0.187955 -0.472917 -0.036320 -0.209045
    12 y      -0.175073 -0.052448 -0.394629 -0.008375 -0.075791  0.032420
    12 z       0.024776 -0.092317  0.057074 -0.265100 -0.323389 -0.095469


  Frequency     265.1903  300.3186  313.1736  336.6599  343.1601  383.6200
  IR Intensity    0.0969    0.0610    0.0582    0.2550    0.1322    0.0643
     in X         0.0112    0.0182    0.0262    0.0000    0.0144    0.0506
     in Y         0.0003    0.0005    0.0114    0.0115    0.0556    0.0096
     in Z         0.0854    0.0423    0.0206    0.2434    0.0622    0.0041
  Raman Intsty    0.4086    0.2417    3.7841    0.8315    0.2848    0.4557

     1 x      -0.092347 -0.137853 -0.005571 -0.163562 -0.066560 -0.223489
     1 y       0.025907 -0.154052 -0.099286 -0.085225  0.109487  0.100040
     1 z       0.169078 -0.096629  0.030328 -0.206958  0.448150  0.091398
     2 x      -0.011738  0.257635  0.128763  0.093587 -0.059794  0.008946
     2 y       0.030464  0.145757 -0.105999 -0.068759  0.143228  0.012195
     2 z       0.166814 -0.176913 -0.044734 -0.228222 -0.110796  0.162290
     3 x      -0.157865  0.063590  0.144488  0.041891  0.332617 -0.115868
     3 y      -0.058230 -0.058860  0.021077 -0.064171  0.180234  0.017675
     3 z       0.103501 -0.056719 -0.120574 -0.210903  0.082432 -0.134601
     4 x       0.069577 -0.327648 -0.468368  0.453804  0.230141  0.229911
     4 y      -0.000697 -0.373194  0.408854  0.430344 -0.125723  0.028637
     4 z       0.285478 -0.052492  0.379710  0.117476 -0.139179 -0.070480
     5 x      -0.134386 -0.024273  0.145733 -0.143823 -0.158167 -0.245940
     5 y      -0.029483  0.212497  0.052981  0.016030  0.048846  0.149480
     5 z      -0.151856  0.025517  0.076980 -0.116041 -0.101903  0.069606
     6 x       0.016992 -0.102398 -0.113787 -0.050836 -0.065948 -0.061917
     6 y      -0.044209 -0.243891 -0.146592 -0.217436 -0.257154 -0.406296
     6 z      -0.088103  0.172716  0.078496  0.136519 -0.042136  0.134135
     7 x       0.114792  0.100717  0.283281  0.091929  0.053699  0.047951
     7 y      -0.053209  0.262721 -0.203347 -0.069857  0.093508 -0.026717
     7 z       0.006954 -0.128451 -0.067059 -0.110963 -0.028009  0.023887
     8 x      -0.089456 -0.035809  0.092181 -0.072547  0.291515 -0.225324
     8 y       0.157530 -0.069879 -0.070246  0.033248 -0.176940  0.123541
     8 z       0.196019  0.204616 -0.043185  0.088747  0.084309 -0.055995
     9 x       0.060476 -0.063327 -0.055462 -0.013123 -0.127199  0.052177
     9 y       0.110137  0.093867 -0.022107  0.068405 -0.042516 -0.057597
     9 z      -0.290096 -0.167945  0.122210 -0.052812 -0.101755  0.193213
    10 x       0.432539 -0.136955 -0.059475 -0.011929 -0.109796  0.032136
    10 y      -0.081109  0.026361  0.133246 -0.005637  0.169037 -0.183256
    10 z      -0.533121 -0.103302 -0.102360  0.267550  0.058877 -0.052823
    11 x       0.098852  0.282051  0.024067 -0.052348 -0.032769  0.206047
    11 y       0.008340  0.106874  0.042637  0.027036 -0.066162  0.097318
    11 z      -0.042553  0.163646  0.030291  0.059269 -0.001836  0.051166
    12 x      -0.257236  0.089129 -0.167146 -0.167659 -0.327267  0.358689
    12 y      -0.065086  0.064669  0.024083 -0.022174 -0.158814  0.120084
    12 z       0.093680  0.279245 -0.314235  0.380150 -0.228602 -0.434618


  Frequency     424.9091  489.8001  554.7276  595.9238  702.9746  879.4181
  IR Intensity    0.1941    0.2538    0.1040    0.1157    0.0842    0.0118
     in X         0.0537    0.0895    0.0568    0.0837    0.0508    0.0078
     in Y         0.0561    0.1628    0.0280    0.0311    0.0042    0.0037
     in Z         0.0844    0.0015    0.0192    0.0010    0.0292    0.0004
  Raman Intsty    0.0069    0.2515    0.1424    0.0022    0.4462    0.4266

     1 x       0.232752  0.399169 -0.048465 -0.599299 -0.052873 -0.097839
     1 y       0.136564  0.526857 -0.249007  0.293217  0.018843 -0.041495
     1 z       0.206621 -0.319683  0.137996  0.034108 -0.015867  0.024362
     2 x      -0.018903  0.044767  0.382314  0.057695  0.003912  0.508099
     2 y      -0.037781  0.048401 -0.088033  0.001868 -0.051153  0.561820
     2 z       0.176832  0.127587  0.242908  0.002307  0.135141  0.062465
     3 x       0.205207 -0.061777  0.084923  0.042557 -0.568373 -0.043535
     3 y       0.193403 -0.026495 -0.017745 -0.007162  0.249293  0.052875
     3 z      -0.596555  0.123273 -0.129270  0.011599 -0.380430 -0.060145
     4 x      -0.110069 -0.080347  0.001065  0.027641  0.006890 -0.001451
     4 y      -0.106346 -0.057472 -0.003475 -0.027017 -0.003537 -0.037537
     4 z      -0.075514  0.011565 -0.027586 -0.027139 -0.005209 -0.024910
     5 x       0.101075  0.015942 -0.134537  0.591957  0.021813  0.013471
     5 y      -0.080626 -0.042579  0.103688 -0.387595 -0.014557 -0.006973
     5 z      -0.085720  0.015816 -0.004354 -0.023027  0.003427 -0.001590
     6 x      -0.031919 -0.143603  0.017743  0.012406  0.005543 -0.002435
     6 y      -0.033779 -0.459794  0.117425 -0.061421 -0.003684  0.007091
     6 z      -0.046352  0.180993 -0.046997  0.016483  0.002508 -0.000109
     7 x      -0.116481  0.078757  0.266474  0.079700  0.070620 -0.283698
     7 y      -0.020434  0.062471  0.429738  0.148227  0.101758 -0.521200
     7 z       0.032868  0.025565 -0.001136 -0.010492 -0.002992  0.031260
     8 x      -0.236071 -0.010033 -0.152527 -0.077455  0.553428  0.016925
     8 y       0.164545 -0.000839  0.069375  0.027843 -0.248403 -0.016772
     8 z      -0.057835 -0.016236 -0.034043 -0.001633  0.221415  0.029482
     9 x      -0.004384  0.005254 -0.003355  0.000736  0.037908  0.002912
     9 y      -0.065833  0.010465 -0.004350 -0.002032 -0.022853 -0.005050
     9 z       0.218382 -0.049500  0.040005  0.001996  0.058100  0.007456
    10 x      -0.008161  0.014264 -0.010372  0.004853  0.032636 -0.016649
    10 y      -0.179028  0.021907 -0.087369 -0.014845 -0.060459 -0.013286
    10 z      -0.012291 -0.027495  0.001241  0.001041  0.019016 -0.014093
    11 x       0.168510 -0.288035 -0.498772 -0.058662 -0.017829 -0.177200
    11 y       0.083702 -0.150151 -0.225260 -0.033905 -0.007910 -0.093481
    11 z       0.046552 -0.122784 -0.194606 -0.020708 -0.015608 -0.064626
    12 x      -0.261862 -0.047593  0.015258  0.013509  0.024628  0.011120
    12 y      -0.110379 -0.037935  0.023004  0.007645  0.001078  0.004159
    12 z       0.233851  0.064088 -0.032382  0.006263  0.030545  0.005333




--------------------------------------------------------------------------------
  Vibrational properties (for cluster):  Temperature  =       0.000 K
--------------------------------------------------------------------------------
  Zero point energy            =        0.512959 eV
--------------------------------------------------------------------------------

  Phonon density of states : 

--------------------------------------------------------------------------------
 Frequency (cm-1) Density of States                                             
--------------------------------------------------------------------------------
    0.00000 |************************************************************  0.069
   13.74091 |                                                              0.000
   27.48182 |                                                              0.000
   41.22272 |                                                              0.000
   54.96363 |                                                              0.000
   68.70454 |                                                              0.000
   82.44545 |                                                              0.000
   96.18636 |                                                              0.000
  109.92727 |************************************************************  0.069
  123.66817 |************************************************************  0.069
  137.40908 |************************************************************  0.069
  151.14999 |******************************                                0.034
  164.89090 |                                                              0.000
  178.63181 |************************************************************  0.069
  192.37272 |******************************                                0.034
  206.11362 |******************************                                0.034
  219.85453 |******************************                                0.034
  233.59544 |******************************                                0.034
  247.33635 |************************************************************  0.069
  261.07726 |******************************                                0.034
  274.81816 |                                                              0.000
  288.55907 |******************************                                0.034
  302.29998 |******************************                                0.034
  316.04089 |                                                              0.000
  329.78180 |************************************************************  0.069
  343.52271 |                                                              0.000
  357.26361 |                                                              0.000
  371.00452 |******************************                                0.034
  384.74543 |                                                              0.000
  398.48634 |                                                              0.000
  412.22725 |******************************                                0.034
  425.96816 |                                                              0.000
  439.70906 |                                                              0.000
  453.44997 |                                                              0.000
  467.19088 |                                                              0.000
  480.93179 |******************************                                0.034
  494.67270 |                                                              0.000
  508.41360 |                                                              0.000
  522.15451 |                                                              0.000
  535.89542 |                                                              0.000
  549.63633 |******************************                                0.034
  563.37724 |                                                              0.000
  577.11815 |                                                              0.000
  590.85905 |******************************                                0.034
  604.59996 |                                                              0.000
  618.34087 |                                                              0.000
  632.08178 |                                                              0.000
  645.82269 |                                                              0.000
  659.56360 |                                                              0.000
  673.30450 |                                                              0.000
  687.04541 |                                                              0.000
  700.78632 |******************************                                0.034
  714.52723 |                                                              0.000
  728.26814 |                                                              0.000
  742.00904 |                                                              0.000
  755.74995 |                                                              0.000
  769.49086 |                                                              0.000
  783.23177 |                                                              0.000
  796.97268 |                                                              0.000
  810.71359 |                                                              0.000
  824.45449 |                                                              0.000
  838.19540 |                                                              0.000
  851.93631 |                                                              0.000
  865.67722 |******************************                                0.034
--------------------------------------------------------------------------------



  XYZ File written as 004/5/sp_mod_-40/sp_mod_-40_eig.xyz


  Time to end of properties =       0.0122 seconds


  Peak dynamic memory used =       0.64 MB 


  Timing analysis for GULP :

--------------------------------------------------------------------------------
  Task / Subroutine                                          Time (Seconds)
--------------------------------------------------------------------------------
  Calculation of phonons                                          0.0037
--------------------------------------------------------------------------------
  Total CPU time                                                  0.0123
--------------------------------------------------------------------------------


  Job Finished at 10:33.19 17th May        2022                               

