********************************************************************************
*                       GENERAL UTILITY LATTICE PROGRAM                        *
*                                 Julian Gale                                  *
*                       Curtin Institute for Computation                       *
*                           Department of Chemistry                            *
*                    Curtin University, Western Australia                      *
********************************************************************************
* Version = 5.1.1 * Last modified =  24th November 2018                        *
********************************************************************************
*  optimise     - perform optimisation run                                     *
*  conp         - constant pressure calculation                                *
*  shell        - only shells and radii to be optimised                        *
*  phonon       - calculate phonons for final geometry                         *
*  eigenvectors - output phonon eigenvectors                                   *
********************************************************************************

  Job Started  at 14:39.55 25th May        2022                               

  Number of CPUs =     1

  Host name      = login03                                 


  Total number of configurations input =      1

********************************************************************************
*  Input for Configuration =   1                                               *
********************************************************************************

  Formula = Al3F9                                                       

  Number of irreducible atoms/shells =      21


  Total number atoms/shells =      21

  Dimensionality = 0               :  Cluster


  Charge on cluster =  -0.000000


  Initial cluster dipoles : x =      1.235276 e.Angs
                            y =     -1.014020 e.Angs
                            z =     -0.376622 e.Angs

  Temperature of configuration =  0.000     K 

  Symmetry number =      1

  Cartesian coordinates of cluster :

--------------------------------------------------------------------------------
   No.  Atomic       x           y          z         Charge      Occupancy
        Label      (Angs)      (Angs)     (Angs)        (e)         (Frac)  
--------------------------------------------------------------------------------
      1 Al    c     -0.1020      1.6468      2.1641     3.00000    1.000000    
      2 Al    c      2.5731      2.3934      1.8643     3.00000    1.000000    
      3 Al    c      1.4441      2.5625     -0.6742     3.00000    1.000000    
      4 F     c      0.9921      3.1130      2.8406     0.59000    1.000000    
      5 F     c     -1.5227      2.6493      2.1742     0.59000    1.000000    
      6 F     c     -0.4982     -0.0208      2.7511     0.59000    1.000000    
      7 F     c      1.8591      1.0569      1.9151     0.59000    1.000000    
      8 F     c      2.8690      1.9190     -0.1003     0.59000    1.000000    
      9 F     c      1.0794      3.0496     -2.4274     0.59000    1.000000    
     10 F     c      1.7258      4.1461      0.6364     0.59000    1.000000    
     11 F     c      4.0395      3.1123      2.4269     0.59000    1.000000    
     12 F     c     -0.0335      1.7968      0.2226     0.59000    1.000000    
     13 F     s      0.9921 *    3.1130 *    2.8406 *  -1.59000    1.000000    
     14 F     s     -1.5227 *    2.6493 *    2.1742 *  -1.59000    1.000000    
     15 F     s     -0.4982 *   -0.0208 *    2.7511 *  -1.59000    1.000000    
     16 F     s      1.8591 *    1.0569 *    1.9151 *  -1.59000    1.000000    
     17 F     s      2.8690 *    1.9190 *   -0.1003 *  -1.59000    1.000000    
     18 F     s      1.0794 *    3.0496 *   -2.4274 *  -1.59000    1.000000    
     19 F     s      1.7258 *    4.1461 *    0.6364 *  -1.59000    1.000000    
     20 F     s      4.0395 *    3.1123 *    2.4269 *  -1.59000    1.000000    
     21 F     s     -0.0335 *    1.7968 *    0.2226 *  -1.59000    1.000000    
--------------------------------------------------------------------------------


  Brillouin zone sampling points :

--------------------------------------------------------------------------------
  Point number          x          y          z            Weight
--------------------------------------------------------------------------------
        1           0.000000   0.000000   0.000000     1.00000000
--------------------------------------------------------------------------------


********************************************************************************
*  General input information                                                   *
********************************************************************************

  Species output for all configurations : 

--------------------------------------------------------------------------------
  Species    Type    Atomic    Atomic    Charge       Radii (Angs)     Library
                     Number     Mass       (e)     Cova   Ionic  VDW   Symbol
--------------------------------------------------------------------------------
    Al       Core       13      26.98   3.000000   1.350  0.000  2.050          
    F        Core        9      19.00   0.590000   0.710  0.000  1.300          
    F        Shell       9       0.00  -1.590000   0.710  0.000  1.300          
--------------------------------------------------------------------------------


  Accuracy factor for short range sums = 12.000

  Time limit = Infinity

  Maximum range for interatomic potentials =    100000.000000 Angstroms

  General interatomic potentials :

--------------------------------------------------------------------------------
Atom  Types   Potential      Parameter       Value         Units   Cutoffs(Ang)
  1     2                                                            Min /  Max 
--------------------------------------------------------------------------------
Al   c F    s Buckingham    Buckingham A     3760.0008    eV        0.000 10.000
                            Buckingham rho  0.22200000    Ang       
                            Buckingham C     0.0000000    eV*Ang^6  
--------------------------------------------------------------------------------
F    s F    s Buck 4 range  Buck4 A          1127.7000    eV        0.000 12.000
                            Buck4 rho       0.27530000    Ang       
                            Buck4 C          15.830000    eV*Ang^6  
                            Buck4 minimum    2.7900000    Ang       
--------------------------------------------------------------------------------
F    c F    s Spring (c-s)  Spring k 2       20.770000    eV*Ang^-2 0.000  0.800
                            Spring k 4       0.0000000    eV*Ang^-4 
--------------------------------------------------------------------------------

********************************************************************************
*  Output for configuration   1                                                *
********************************************************************************


  Components of energy : 

--------------------------------------------------------------------------------
  Interatomic potentials     =          14.64551159 eV    
  Monopole - monopole (real) =        -182.96864483 eV    
--------------------------------------------------------------------------------
  Total lattice energy       =        -168.32313324 eV    
--------------------------------------------------------------------------------
  Total lattice energy       =          -16240.6093 kJ/mol
--------------------------------------------------------------------------------


  Number of variables =       27

  Maximum number of calculations  =          2000
  Maximum Hessian update interval =            10
  Maximum step size               =   1.000000000
  Maximum parameter tolerance     =   0.000001000
  Maximum function  tolerance     =   0.000010000
  Maximum gradient  tolerance     =   0.000000010
  Maximum gradient  component     =   0.010000000

  Symmetry not applied to optimisation

  Newton-Raphson optimiser to be used

  BFGS hessian update to be used

  Lower half triangular hessian to be used

  Minimiser to switch to RFO
  When gradient norm is less than     0.010000

  Shell only optimisation

  Start of cluster optimisation :

  Cycle:      0 Energy:      -168.323133  Gnorm:      1.353119  CPU:    0.004
  ** Hessian calculated **
  Cycle:      1 Energy:      -182.573416  Gnorm:      0.555153  CPU:    0.006
  ** Hessian calculated **
  Cycle:      2 Energy:      -183.811834  Gnorm:      0.043647  CPU:    0.008
  Cycle:      3 Energy:      -183.823247  Gnorm:      0.008406  CPU:    0.009
  ** Hessian has required structure
  Cycle:      4 Energy:      -183.823685  Gnorm:      0.003281  CPU:    0.011
  ** Hessian has required structure
  Cycle:      5 Energy:      -183.823753  Gnorm:      0.001395  CPU:    0.012
  ** Hessian has required structure
  Cycle:      6 Energy:      -183.823767  Gnorm:      0.000704  CPU:    0.014
  ** Hessian has required structure
  Cycle:      7 Energy:      -183.823771  Gnorm:      0.000424  CPU:    0.016
  ** Hessian has required structure
  Cycle:      8 Energy:      -183.823772  Gnorm:      0.000292  CPU:    0.017
  ** Hessian has required structure
  Cycle:      9 Energy:      -183.823773  Gnorm:      0.000194  CPU:    0.019
  ** Hessian has required structure
  Cycle:     10 Energy:      -183.823773  Gnorm:      0.000151  CPU:    0.020
  ** Hessian has required structure
  Cycle:     11 Energy:      -183.823773  Gnorm:      0.000118  CPU:    0.021
  ** Hessian has required structure
  Cycle:     12 Energy:      -183.823773  Gnorm:      0.000000  CPU:    0.023
  ** Hessian has required structure
  Cycle:     13 Energy:      -183.823773  Gnorm:      0.000000  CPU:    0.025
  ** Hessian has required structure
  Cycle:     14 Energy:      -183.823773  Gnorm:      0.000000  CPU:    0.026
  ** Hessian calculated **

  XYZ File written as 004/5/sp_mod_-40/sp_mod_-40_eig.xyz



  **** Optimisation achieved ****


  Final energy =    -183.82377297 eV
  Final Gnorm  =       0.00000001

  Components of energy : 

--------------------------------------------------------------------------------
  Interatomic potentials     =          38.66634979 eV    
  Monopole - monopole (real) =        -222.49012277 eV    
--------------------------------------------------------------------------------
  Total lattice energy       =        -183.82377297 eV    
--------------------------------------------------------------------------------
  Total lattice energy       =          -17736.1841 kJ/mol
--------------------------------------------------------------------------------

  Final cartesian coordinates of atoms :

--------------------------------------------------------------------------------
   No.  Atomic        x           y          z          Radius
        Label       (Angs)      (Angs)     (Angs)       (Angs) 
--------------------------------------------------------------------------------
     1  Al    c    -0.101967    1.646756    2.164132    0.000000
     2  Al    c     2.573088    2.393427    1.864332    0.000000
     3  Al    c     1.444115    2.562465   -0.674245    0.000000
     4  F     c     0.992065    3.113026    2.840566    0.000000
     5  F     c    -1.522705    2.649252    2.174219    0.000000
     6  F     c    -0.498217   -0.020828    2.751055    0.000000
     7  F     c     1.859088    1.056856    1.915116    0.000000
     8  F     c     2.868956    1.918961   -0.100274    0.000000
     9  F     c     1.079445    3.049565   -2.427352    0.000000
    10  F     c     1.725787    4.146059    0.636399    0.000000
    11  F     c     4.039539    3.112274    2.426928    0.000000
    12  F     c    -0.033526    1.796801    0.222623    0.000000
    13  F     s     1.074514    2.856133    2.680115    0.000000
    14  F     s    -1.355371    2.534956    2.173468    0.000000
    15  F     s    -0.436752    0.219672    2.670298    0.000000
    16  F     s     1.780930    1.115463    1.928873    0.000000
    17  F     s     2.733471    1.975521    0.010579    0.000000
    18  F     s     1.152678    2.944443   -2.130857    0.000000
    19  F     s     1.751218    3.791364    0.529597    0.000000
    20  F     s     3.849972    2.992838    2.360476    0.000000
    21  F     s     0.200498    1.868327    0.275917    0.000000
--------------------------------------------------------------------------------


  Final Cartesian derivatives :

--------------------------------------------------------------------------------
   No.  Atomic          x             y             z           Radius
        Label       (eV/Angs)     (eV/Angs)    (eV/Angs)      (eV/Angs)
--------------------------------------------------------------------------------
      1 Al    c       0.000000      0.000000      0.000000      0.000000
      2 Al    c       0.000000      0.000000      0.000000      0.000000
      3 Al    c       0.000000      0.000000      0.000000      0.000000
      4 F     c       0.000000      0.000000      0.000000      0.000000
      5 F     c       0.000000      0.000000      0.000000      0.000000
      6 F     c       0.000000      0.000000      0.000000      0.000000
      7 F     c       0.000000      0.000000      0.000000      0.000000
      8 F     c       0.000000      0.000000      0.000000      0.000000
      9 F     c       0.000000      0.000000      0.000000      0.000000
     10 F     c       0.000000      0.000000      0.000000      0.000000
     11 F     c       0.000000      0.000000      0.000000      0.000000
     12 F     c       0.000000      0.000000      0.000000      0.000000
     13 F     s       0.000000     -0.000000      0.000000      0.000000
     14 F     s       0.000000     -0.000000      0.000000      0.000000
     15 F     s       0.000000     -0.000000      0.000000      0.000000
     16 F     s       0.000000     -0.000000      0.000000      0.000000
     17 F     s       0.000000     -0.000000      0.000000      0.000000
     18 F     s       0.000000      0.000000     -0.000000      0.000000
     19 F     s      -0.000000     -0.000000      0.000000      0.000000
     20 F     s       0.000000      0.000000     -0.000000      0.000000
     21 F     s       0.000000      0.000000     -0.000000      0.000000
--------------------------------------------------------------------------------
  Maximum abs         0.000000      0.000000      0.000000      0.000000
--------------------------------------------------------------------------------


  Born effective charge tensors : 

-------------------------------------------------------------------------------
  Atom             x           y             z
-------------------------------------------------------------------------------
    1 Al    x       1.3341      0.2944     -0.1101
            y       0.1300      0.7592      0.0849
            z      -0.1504      0.0419      1.6084
-------------------------------------------------------------------------------
    2 Al    x       0.8749     -0.8820     -0.1065
            y      -0.7264      1.0302     -0.2501
            z       0.0745     -0.2148      1.9940
-------------------------------------------------------------------------------
    3 Al    x       0.9579      0.2333     -0.2328
            y       0.2564      1.1800      0.2374
            z      -0.3491      0.2818      0.7340
-------------------------------------------------------------------------------
    4 F     x      -0.4365      0.0963      0.0773
            y      -0.1189     -0.3662      0.0140
            z       0.0507     -0.0057     -0.3901
-------------------------------------------------------------------------------
    5 F     x      -0.1851     -0.3254      0.0251
            y      -0.2886     -0.3355     -0.0004
            z       0.0220      0.0243     -0.5867
-------------------------------------------------------------------------------
    6 F     x      -0.5051      0.0787     -0.0333
            y       0.1383     -0.0617     -0.1680
            z      -0.0132     -0.1655     -0.4781
-------------------------------------------------------------------------------
    7 F     x      -0.5759      0.3494     -0.0070
            y       0.4433     -0.0703      0.0254
            z      -0.0520     -0.0326     -0.5082
-------------------------------------------------------------------------------
    8 F     x      -0.1194     -0.0926      0.2769
            y      -0.0960     -0.3304     -0.2475
            z       0.1562     -0.0603     -0.5786
-------------------------------------------------------------------------------
    9 F     x      -0.5036     -0.0459      0.1004
            y      -0.0522     -0.4776     -0.1241
            z       0.1303     -0.1432     -0.0180
-------------------------------------------------------------------------------
   10 F     x      -0.4408      0.0389     -0.1274
            y       0.1137     -0.5766      0.2582
            z      -0.0875      0.1099     -0.5972
-------------------------------------------------------------------------------
   11 F     x      -0.0504      0.2749      0.2064
            y       0.2332     -0.4373      0.0869
            z       0.2080      0.1257     -0.5105
-------------------------------------------------------------------------------
   12 F     x      -0.3501     -0.0200     -0.0690
            y      -0.0328     -0.3140      0.0833
            z       0.0105      0.0385     -0.6690
-------------------------------------------------------------------------------




  Moment of inertia tensor (10^-46 x kgm^2): 

-------------------------------------------------------------------------------
                x           y           z           Principal axis system
-------------------------------------------------------------------------------
       x        140.51      -21.01       11.44          113.905726
       y        -21.01      188.31       19.28          148.207535
       z         11.44       19.28      132.69          199.385122
-------------------------------------------------------------------------------
  Centre of mass (Ang) =     1.211921     2.277355     1.146476
-------------------------------------------------------------------------------


  Vibrational Frequency Calculation : 

--------------------------------------------------------------------------------

  Frequencies (cm-1) and Eigenvectors : 

  Frequency    -266.5776 -234.3098 -124.1297  -78.0224  -56.8431  -39.8103
  IR Intensity    0.0989    0.0190    0.0074    0.0041    0.0082    0.0080
     in X         0.0306    0.0000    0.0062    0.0013    0.0002    0.0010
     in Y         0.0379    0.0002    0.0007    0.0027    0.0059    0.0035
     in Z         0.0303    0.0188    0.0005    0.0001    0.0021    0.0035
  Raman Intsty    0.9024    0.0590    0.2416    0.0003    0.0240    0.0404

     1 x       0.026724  0.014905  0.021144  0.028809  0.054942 -0.105339
     1 y      -0.001260  0.021939 -0.175197 -0.049453  0.126576  0.051353
     1 z       0.117793  0.123072 -0.092686 -0.033442  0.154539 -0.081096
     2 x      -0.257569  0.025589 -0.089273  0.002954  0.114296  0.002733
     2 y       0.528261 -0.077778  0.174538  0.018186 -0.041644 -0.119064
     2 z      -0.275981 -0.312007  0.112709  0.011021 -0.093652  0.138865
     3 x      -0.007893 -0.041966 -0.057063 -0.078653 -0.199483  0.177977
     3 y      -0.289339  0.092480  0.020158  0.123847 -0.238560 -0.047158
     3 z      -0.092594 -0.076055  0.020664  0.046313  0.023753  0.045861
     4 x      -0.154405  0.022091 -0.119778  0.051577  0.192605 -0.038460
     4 y       0.046263  0.104745 -0.131325 -0.044070 -0.003306 -0.111712
     4 z       0.135914 -0.221199 -0.011675  0.041249  0.095919  0.080394
     5 x      -0.029429 -0.018859 -0.042312  0.089087  0.147247 -0.034183
     5 y      -0.063266 -0.022557 -0.221587  0.045027  0.249089  0.121206
     5 z      -0.076036 -0.019282  0.071168  0.611905  0.052780 -0.160822
     6 x       0.044536 -0.040962  0.216069 -0.004346  0.018322 -0.133679
     6 y      -0.033098 -0.013802 -0.184802 -0.185586  0.182137  0.051099
     6 z      -0.005107 -0.033085 -0.093287 -0.454160  0.319141 -0.086324
     7 x       0.209666  0.169690  0.462091  0.091232 -0.013974 -0.007333
     7 y       0.175263 -0.101722 -0.173611 -0.037947  0.027973 -0.104301
     7 z       0.116223  0.799914 -0.065707 -0.016354 -0.017671  0.026626
     8 x       0.111075 -0.133516  0.107702 -0.139067  0.054749 -0.026720
     8 y      -0.106598 -0.077649  0.389046 -0.175074  0.139030 -0.392458
     8 z      -0.228755  0.051158  0.040068 -0.096489 -0.143891  0.067708
     9 x      -0.033692 -0.009043 -0.097261 -0.170165 -0.212851  0.136739
     9 y       0.076650 -0.018518 -0.064509  0.140685 -0.240335  0.046708
     9 z       0.016660 -0.079719  0.005562  0.069828  0.017567  0.063800
    10 x       0.196259 -0.013178 -0.270227  0.073712 -0.210675  0.190900
    10 y      -0.297227  0.107830  0.116665  0.016032 -0.130364 -0.149320
    10 z       0.328641 -0.196471 -0.054180  0.081204 -0.037645  0.127746
    11 x      -0.044963 -0.083615 -0.164243  0.169983  0.149107 -0.237785
    11 y      -0.065654  0.036723  0.396360 -0.043149  0.179417  0.663446
    11 z       0.000070 -0.073229  0.012626 -0.353415 -0.486578 -0.219292
    12 x      -0.014556  0.109147  0.057143 -0.106137 -0.088490  0.060708
    12 y      -0.015539 -0.058714 -0.149474  0.173760 -0.220571  0.012213
    12 z       0.011232  0.087684  0.046939  0.087761  0.099518 -0.023326


  Frequency      -0.0000    0.0000    0.0000    3.1926   62.9438   84.2411
  IR Intensity    0.0000    0.0000    0.0000    0.0032    0.0231    0.0030
     in X         0.0000    0.0000    0.0000    0.0004    0.0045    0.0025
     in Y         0.0000    0.0000    0.0000    0.0014    0.0016    0.0000
     in Z         0.0000    0.0000    0.0000    0.0013    0.0170    0.0004
  Raman Intsty    0.0000    0.0000    0.0000    0.3484    0.0031    0.0849

     1 x      -0.246412 -0.209333 -0.050496  0.035965  0.068231  0.026740
     1 y      -0.022267 -0.051557  0.322390 -0.148568  0.070906  0.002714
     1 z       0.214183 -0.246192 -0.024578  0.079257  0.096078  0.048333
     2 x      -0.246412 -0.209333 -0.050496 -0.040272  0.181421 -0.041668
     2 y      -0.022267 -0.051557  0.322390 -0.037941 -0.146264  0.172617
     2 z       0.214183 -0.246192 -0.024578 -0.021801 -0.286707  0.061290
     3 x      -0.246412 -0.209333 -0.050496 -0.030414 -0.119117  0.086443
     3 y      -0.022267 -0.051557  0.322390  0.270120 -0.018819 -0.160016
     3 z       0.214183 -0.246192 -0.024578 -0.000174 -0.053726 -0.050829
     4 x      -0.206784 -0.175669 -0.042376 -0.039677  0.183227 -0.097989
     4 y      -0.018686 -0.043266  0.270543 -0.046943 -0.026676  0.252863
     4 z       0.179739 -0.206600 -0.020625 -0.011341 -0.126021 -0.078949
     5 x      -0.206784 -0.175669 -0.042376 -0.156866 -0.027078 -0.184329
     5 y      -0.018686 -0.043266  0.270543 -0.387903 -0.066450 -0.302002
     5 z       0.179739 -0.206600 -0.020625 -0.140768  0.308048  0.289220
     6 x      -0.206784 -0.175669 -0.042376  0.256800  0.208888  0.161476
     6 y      -0.018686 -0.043266  0.270543 -0.025468  0.047988 -0.039742
     6 z       0.179739 -0.206600 -0.020625  0.507803  0.156031  0.054656
     7 x      -0.206784 -0.175669 -0.042376  0.018422 -0.030835 -0.219422
     7 y      -0.018686 -0.043266  0.270543 -0.061737 -0.016838  0.260667
     7 z       0.179739 -0.206600 -0.020625 -0.089284 -0.161163 -0.008273
     8 x      -0.206784 -0.175669 -0.042376 -0.166829 -0.038495 -0.010556
     8 y      -0.018686 -0.043266  0.270543 -0.150180 -0.125759 -0.084900
     8 z       0.179739 -0.206600 -0.020625 -0.071656 -0.301202  0.206343
     9 x      -0.206784 -0.175669 -0.042376 -0.061421 -0.187263  0.288645
     9 y      -0.018686 -0.043266  0.270543  0.331834 -0.003831 -0.450984
     9 z       0.179739 -0.206600 -0.020625  0.035099 -0.025399 -0.171621
    10 x      -0.206784 -0.175669 -0.042376  0.081700  0.149649  0.028132
    10 y      -0.018686 -0.043266  0.270543  0.112042 -0.066684  0.024546
    10 z       0.179739 -0.206600 -0.020625  0.052289 -0.070403 -0.199276
    11 x      -0.206784 -0.175669 -0.042376  0.092768 -0.305074  0.035982
    11 y      -0.018686 -0.043266  0.270543 -0.016372  0.259275  0.161556
    11 z       0.179739 -0.206600 -0.020625 -0.366718  0.466300 -0.150960
    12 x      -0.206784 -0.175669 -0.042376  0.016478 -0.108568 -0.087158
    12 y      -0.018686 -0.043266  0.270543  0.145093  0.111200  0.159746
    12 z       0.179739 -0.206600 -0.020625  0.016318  0.044992 -0.011202


  Frequency     137.6312  140.8688  162.3789  174.4266  193.7276  237.2276
  IR Intensity    0.0139    0.0302    0.0286    0.0079    0.0170    0.0084
     in X         0.0007    0.0207    0.0183    0.0000    0.0054    0.0026
     in Y         0.0127    0.0020    0.0075    0.0039    0.0092    0.0004
     in Z         0.0005    0.0075    0.0027    0.0039    0.0024    0.0054
  Raman Intsty    0.3107    0.0044    0.1923    0.0563    0.1138    0.0603

     1 x      -0.106210  0.020128 -0.284280 -0.087436 -0.042046 -0.008802
     1 y       0.195580  0.120410  0.267387  0.107867 -0.187614  0.183283
     1 z      -0.207185  0.083963 -0.043839 -0.219158  0.050704  0.087955
     2 x       0.053063  0.281632 -0.004893  0.021176 -0.097212 -0.097391
     2 y       0.050128 -0.148784 -0.170046  0.018495 -0.055698  0.001103
     2 z       0.206807 -0.063628 -0.082077  0.115084 -0.053950  0.017424
     3 x       0.126072 -0.065594  0.039159  0.047321  0.255654  0.169178
     3 y      -0.024669 -0.059750  0.007861 -0.231943 -0.008782 -0.159303
     3 z       0.056823  0.157351  0.023580 -0.008590 -0.077885 -0.313421
     4 x      -0.092790  0.116976 -0.026951 -0.128496 -0.090649  0.159755
     4 y       0.084649  0.048416 -0.197970  0.175154  0.010959 -0.152953
     4 z      -0.141628  0.017682 -0.011046 -0.322871 -0.128831  0.551135
     5 x      -0.218165 -0.315432 -0.410201 -0.113077  0.018024 -0.168842
     5 y       0.001618 -0.371703  0.022574  0.041267 -0.098272 -0.060166
     5 z      -0.137861 -0.209882  0.170322  0.310055  0.253232  0.060897
     6 x       0.140605  0.075875 -0.010844  0.139832 -0.467150  0.125431
     6 y       0.180393 -0.079511  0.224586  0.159301 -0.036012  0.086390
     6 z      -0.023256 -0.379494  0.042516  0.117653  0.179359 -0.092955
     7 x       0.210264 -0.305024  0.198431  0.024190 -0.184439 -0.057746
     7 y      -0.064457  0.200208 -0.282978  0.009192  0.007572 -0.021211
     7 z       0.015963  0.123455  0.026562  0.018356 -0.014423  0.014618
     8 x       0.031335  0.171607  0.202197  0.044927  0.368663  0.015026
     8 y      -0.173286  0.226536  0.201696 -0.112985  0.281753 -0.073892
     8 z       0.064328 -0.088920 -0.184613  0.089127 -0.035606  0.143509
     9 x      -0.610058 -0.100456  0.374952  0.095974 -0.251497 -0.166364
     9 y      -0.321873  0.142866 -0.086264  0.463453  0.061801  0.234404
     9 z       0.117283  0.202072 -0.072879  0.165641  0.046639 -0.143205
    10 x       0.231939 -0.007606  0.004976 -0.112702  0.289093 -0.166961
    10 y       0.034237 -0.077201 -0.068743 -0.149569  0.019319 -0.038233
    10 z      -0.053230  0.146884  0.161440 -0.121088 -0.089167 -0.367232
    11 x       0.169936  0.120036  0.010192  0.071112 -0.107883 -0.064910
    11 y      -0.096553  0.131534 -0.163341 -0.026575  0.037172 -0.063269
    11 z       0.041899 -0.050034 -0.100794  0.027203 -0.122380  0.014535
    12 x       0.050032 -0.037402 -0.044826  0.000808  0.287136  0.249555
    12 y       0.091873 -0.116132  0.225077 -0.433424  0.016113  0.059042
    12 z       0.049239  0.026498  0.090439 -0.149822  0.007854  0.066608


  Frequency     239.4307  247.5317  256.0474  294.7544  312.9361  346.3844
  IR Intensity    0.0199    0.0345    0.0769    0.0126    0.0262    0.0285
     in X         0.0041    0.0003    0.0316    0.0126    0.0004    0.0004
     in Y         0.0138    0.0300    0.0000    0.0000    0.0006    0.0012
     in Z         0.0020    0.0042    0.0453    0.0000    0.0252    0.0269
  Raman Intsty    0.1417    0.0064    0.0211    0.2363    1.6054    1.0649

     1 x      -0.136881  0.072955  0.163939 -0.131828 -0.124756 -0.095370
     1 y      -0.094357 -0.066106 -0.080749 -0.033946 -0.144880 -0.025073
     1 z      -0.088301  0.092025 -0.429030 -0.094923 -0.108382 -0.089491
     2 x      -0.120574  0.068888  0.133552  0.052228  0.092572 -0.003208
     2 y      -0.144680  0.008583  0.015401  0.078307  0.067935  0.145233
     2 z      -0.005015  0.026502  0.030699  0.013671  0.262906 -0.478972
     3 x       0.108309 -0.063358  0.078330 -0.201343  0.009383  0.164284
     3 y      -0.083212 -0.385019  0.053128 -0.019377  0.011377  0.010193
     3 z      -0.027096  0.031258 -0.105032  0.059685  0.059485  0.272105
     4 x      -0.136816  0.069489  0.096052 -0.044623 -0.192696  0.100858
     4 y      -0.073532  0.024977 -0.188432 -0.302766 -0.084239 -0.304600
     4 z      -0.044374 -0.134129  0.160523  0.273019  0.068102 -0.011584
     5 x       0.164151  0.062890  0.074732 -0.075304  0.016122 -0.060596
     5 y       0.320390 -0.064019 -0.219627  0.062655  0.065309  0.053613
     5 z      -0.034594 -0.175392  0.132085  0.033158 -0.039218  0.024545
     6 x       0.568038 -0.229425 -0.181470  0.020355 -0.037343 -0.002354
     6 y      -0.221036 -0.023740  0.201073 -0.016279 -0.124250 -0.002331
     6 z       0.029821  0.006548  0.159611  0.051582  0.077734  0.030607
     7 x      -0.283990  0.222436  0.008994  0.023819 -0.064407  0.003191
     7 y      -0.023745 -0.093730  0.101720  0.104967  0.181281  0.183784
     7 z       0.222516 -0.038231  0.301323  0.102802  0.189721 -0.100339
     8 x       0.189424  0.064476  0.003309 -0.118148  0.208927  0.182411
     8 y       0.200316  0.057356  0.042514  0.174442 -0.221677 -0.242461
     8 z       0.088373  0.184724  0.047647 -0.007797 -0.611136  0.197493
     9 x      -0.099066  0.032007 -0.122116  0.095893  0.085245  0.020568
     9 y       0.051664  0.238255 -0.024832  0.002271  0.001699 -0.093478
     9 z       0.052744  0.187417 -0.092681  0.008351  0.050918  0.392827
    10 x       0.048921  0.022966 -0.192503  0.595751 -0.234450 -0.228704
    10 y      -0.106291 -0.089731 -0.139297  0.202595  0.080174  0.321576
    10 z       0.044419 -0.337742  0.217522 -0.297643 -0.279816 -0.063339
    11 x      -0.144456  0.070568  0.091962  0.087074  0.187202 -0.097218
    11 y      -0.033029  0.028318  0.071205  0.028953  0.067567 -0.069045
    11 z      -0.088585  0.003789  0.084453  0.013877  0.115314 -0.048027
    12 x      -0.128477 -0.408934 -0.226804 -0.250034  0.058571  0.003545
    12 y       0.269267  0.449663  0.170238 -0.286609  0.112269 -0.002393
    12 z      -0.126834  0.124527 -0.410656 -0.151649  0.173362 -0.069032


  Frequency     363.9047  392.6641  450.6017  490.3474  527.2622  536.0522
  IR Intensity    0.0040    0.0934    0.0470    0.0146    0.1084    0.0536
     in X         0.0000    0.0003    0.0469    0.0002    0.0066    0.0058
     in Y         0.0003    0.0006    0.0000    0.0140    0.0112    0.0473
     in Z         0.0037    0.0925    0.0001    0.0004    0.0906    0.0005
  Raman Intsty    0.2077    3.6207    0.0360    0.8554    1.7691    0.2800

     1 x      -0.247885  0.134491  0.250597  0.064985  0.115592  0.039662
     1 y      -0.073897 -0.047235  0.143064  0.036000  0.115552  0.026566
     1 z       0.134651 -0.517859  0.215823  0.043818  0.304032  0.086496
     2 x       0.309707 -0.055769  0.184391 -0.051651 -0.225435 -0.063931
     2 y       0.062100  0.015337 -0.162735 -0.006038  0.157822  0.073056
     2 z      -0.086949 -0.093574 -0.174607  0.142573  0.306327  0.019221
     3 x      -0.008079 -0.180222  0.007252  0.033370 -0.051764  0.197143
     3 y      -0.036683 -0.082872 -0.003804 -0.325977  0.006702  0.461442
     3 z      -0.180464  0.055756  0.012095 -0.186805  0.033301  0.069479
     4 x      -0.116819 -0.048355 -0.769639  0.051142  0.149304  0.006174
     4 y      -0.367078 -0.135708 -0.116081 -0.183455 -0.475020 -0.161446
     4 z      -0.235961 -0.033198  0.116989 -0.173086 -0.364294 -0.092312
     5 x      -0.136075  0.153196  0.206469  0.066232  0.103477  0.035072
     5 y       0.181671 -0.104971 -0.090841 -0.050163 -0.107673 -0.029992
     5 z       0.014459 -0.014298  0.034425 -0.013029 -0.001395 -0.037240
     6 x      -0.048474  0.058601  0.029191  0.024878  0.061010  0.016733
     6 y      -0.197659  0.240759  0.255746  0.104193  0.258157  0.076465
     6 z       0.077154 -0.014929 -0.103756 -0.044094 -0.125235 -0.043581
     7 x       0.050772 -0.164027 -0.012173 -0.110759 -0.094468  0.002828
     7 y       0.271053  0.096814 -0.074218 -0.026710  0.075883  0.111899
     7 z      -0.064429  0.014205 -0.060376  0.048178  0.068671 -0.010929
     8 x      -0.198230 -0.169593  0.019257  0.183108 -0.142305  0.305718
     8 y       0.054837  0.118409 -0.021564 -0.129562  0.056532 -0.096497
     8 z       0.249081  0.078345  0.032022 -0.002481 -0.129198  0.124219
     9 x      -0.066256  0.086342 -0.018221 -0.066003  0.036901 -0.064585
     9 y       0.067044  0.012730 -0.009124  0.119474 -0.060241  0.037270
     9 z      -0.222448  0.062181  0.038350 -0.318620  0.169338 -0.271144
    10 x      -0.058260  0.090227 -0.039540  0.011812  0.003768 -0.011319
    10 y      -0.159599 -0.112300  0.045556  0.603975 -0.110134 -0.328383
    10 z       0.127001 -0.001386 -0.045293  0.314299 -0.109931 -0.153943
    11 x       0.316232 -0.100654  0.067639 -0.006854 -0.093682 -0.065949
    11 y       0.126158 -0.036464  0.017948  0.011868 -0.051557 -0.047368
    11 z       0.105742 -0.028139  0.002898 -0.004812 -0.045510 -0.024261
    12 x       0.193068  0.215215 -0.009972 -0.209212  0.168572 -0.430677
    12 y       0.081344  0.057496  0.020553 -0.096876  0.080304 -0.230532
    12 z       0.107604  0.599384 -0.078785  0.194138 -0.229455  0.300421


  Frequency     653.7730  682.8253  735.1764  792.6162  860.0539  963.0843
  IR Intensity    0.0184    0.0442    0.0293    0.0105    0.0024    0.0022
     in X         0.0037    0.0307    0.0231    0.0011    0.0012    0.0014
     in Y         0.0087    0.0010    0.0059    0.0092    0.0001    0.0005
     in Z         0.0060    0.0126    0.0004    0.0002    0.0011    0.0003
  Raman Intsty    0.0349    0.0053    0.1282    0.0012    0.2043    0.5461

     1 x       0.030588  0.070522  0.654888 -0.253523 -0.001490 -0.119997
     1 y       0.014692  0.053264  0.257592  0.664932  0.015633 -0.104816
     1 z       0.002280  0.010653 -0.130680 -0.118339  0.002249  0.024662
     2 x       0.261991  0.023371 -0.014205  0.013759 -0.068946  0.594720
     2 y      -0.237038 -0.022960  0.095781  0.046784 -0.121653  0.504620
     2 z       0.205195  0.005319  0.053628  0.011884  0.067574  0.103098
     3 x      -0.022862  0.552227 -0.095858 -0.019630 -0.430193 -0.069051
     3 y      -0.078139  0.016458  0.010540  0.002867  0.218624  0.054736
     3 z       0.023827 -0.394370  0.047943  0.021680 -0.622376 -0.134802
     4 x      -0.063695 -0.028448 -0.078973 -0.010603  0.003276 -0.009227
     4 y       0.033868 -0.019297 -0.140998 -0.059374  0.000669  0.005825
     4 z       0.024066 -0.008448 -0.067153 -0.020202 -0.001078  0.009398
     5 x      -0.036591 -0.038989 -0.388626  0.416374  0.004457  0.013735
     5 y       0.025181  0.029494  0.258153 -0.301577 -0.003470 -0.004701
     5 z       0.000231 -0.007773  0.005142 -0.002161  0.001123 -0.001419
     6 x      -0.020370 -0.023805 -0.104689 -0.089149  0.002137  0.000104
     6 y      -0.044152 -0.085090 -0.390077 -0.419367 -0.007731  0.048214
     6 z       0.016111  0.026201  0.135901  0.144648  0.002078 -0.011215
     7 x       0.341745 -0.005044 -0.103269 -0.005753  0.065200 -0.219550
     7 y       0.524673  0.030960 -0.111726 -0.030939  0.106209 -0.371042
     7 z      -0.010492 -0.002030  0.021740  0.000478 -0.003993  0.021827
     8 x      -0.018639 -0.393394  0.053997  0.005462  0.338899  0.036966
     8 y       0.002377  0.186767 -0.027668 -0.007359 -0.139669 -0.032140
     8 z      -0.027144 -0.182737  0.016039  0.011517  0.158711  0.035631
     9 x      -0.013995  0.049406 -0.001265  0.001045  0.090912  0.014043
     9 y       0.026812 -0.101087  0.003733  0.002264 -0.108753 -0.018302
     9 z      -0.068590  0.383361 -0.024281 -0.012291  0.386818  0.057193
    10 x       0.006793 -0.037058  0.003392  0.002910  0.040559 -0.009230
    10 y       0.026284  0.047139 -0.010369 -0.006552  0.001329 -0.013304
    10 z       0.034367  0.052526 -0.021585 -0.009259  0.062178  0.001261
    11 x      -0.545224 -0.024530 -0.056180 -0.026809  0.051598 -0.308197
    11 y      -0.263635 -0.011701 -0.025055 -0.020281  0.027841 -0.153059
    11 z      -0.209887 -0.004437 -0.022833 -0.012399  0.022024 -0.116510
    12 x       0.028571 -0.268080  0.026378  0.015626 -0.000469 -0.002058
    12 y       0.026660 -0.132908  0.010353 -0.008340 -0.010606 -0.003139
    12 z      -0.034291  0.194251 -0.008282  0.000688  0.030582  0.012226




--------------------------------------------------------------------------------
  Vibrational properties (for cluster):  Temperature  =       0.000 K
--------------------------------------------------------------------------------
  Zero point energy            =        0.641132 eV
--------------------------------------------------------------------------------

  Phonon density of states : 

--------------------------------------------------------------------------------
 Frequency (cm-1) Density of States                                             
--------------------------------------------------------------------------------
    0.00000 |************************************************************  0.103
   15.04819 |                                                              0.000
   30.09639 |                                                              0.000
   45.14458 |                                                              0.000
   60.19278 |********************                                          0.034
   75.24097 |********************                                          0.034
   90.28916 |                                                              0.000
  105.33736 |                                                              0.000
  120.38555 |                                                              0.000
  135.43375 |****************************************                      0.069
  150.48194 |********************                                          0.034
  165.53013 |********************                                          0.034
  180.57833 |********************                                          0.034
  195.62652 |                                                              0.000
  210.67471 |                                                              0.000
  225.72291 |****************************************                      0.069
  240.77110 |********************                                          0.034
  255.81930 |********************                                          0.034
  270.86749 |                                                              0.000
  285.91568 |********************                                          0.034
  300.96388 |********************                                          0.034
  316.01207 |                                                              0.000
  331.06027 |                                                              0.000
  346.10846 |********************                                          0.034
  361.15665 |********************                                          0.034
  376.20485 |                                                              0.000
  391.25304 |********************                                          0.034
  406.30124 |                                                              0.000
  421.34943 |                                                              0.000
  436.39762 |********************                                          0.034
  451.44582 |                                                              0.000
  466.49401 |                                                              0.000
  481.54221 |********************                                          0.034
  496.59040 |                                                              0.000
  511.63859 |                                                              0.000
  526.68679 |****************************************                      0.069
  541.73498 |                                                              0.000
  556.78318 |                                                              0.000
  571.83137 |                                                              0.000
  586.87956 |                                                              0.000
  601.92776 |                                                              0.000
  616.97595 |                                                              0.000
  632.02414 |                                                              0.000
  647.07234 |********************                                          0.034
  662.12053 |                                                              0.000
  677.16873 |********************                                          0.034
  692.21692 |                                                              0.000
  707.26511 |                                                              0.000
  722.31331 |********************                                          0.034
  737.36150 |                                                              0.000
  752.40970 |                                                              0.000
  767.45789 |                                                              0.000
  782.50608 |********************                                          0.034
  797.55428 |                                                              0.000
  812.60247 |                                                              0.000
  827.65067 |                                                              0.000
  842.69886 |                                                              0.000
  857.74705 |********************                                          0.034
  872.79525 |                                                              0.000
  887.84344 |                                                              0.000
  902.89164 |                                                              0.000
  917.93983 |                                                              0.000
  932.98802 |                                                              0.000
  948.03622 |********************                                          0.034
--------------------------------------------------------------------------------



  Time to end of optimisation =       0.0363 seconds


  Peak dynamic memory used =       0.65 MB 


  Timing analysis for GULP :

--------------------------------------------------------------------------------
  Task / Subroutine                                          Time (Seconds)
--------------------------------------------------------------------------------
  Calculation of real space energy and derivatives                0.0024
  Calculation of phonons                                          0.0015
  Calculation and manipulation of Hessian matrix                  0.0015
--------------------------------------------------------------------------------
  Total CPU time                                                  0.0363
--------------------------------------------------------------------------------


  Job Finished at 14:39.55 25th May        2022                               

