12
Properties=species:S:1:pos:R:3:forces:R:3 energy=-186.79567520 pbc="F F F"
Al    0.449485493    -0.473684758    1.707662139    0.653595    -0.045634    -0.25215
Al    2.301455565    -1.7457771720000002    -0.5330059970000001    -0.427547    0.407136    0.595112
Al    -0.801708981    -1.990963958    -1.100247343    -0.095582    -0.185427    -0.336845
F    3.565028807    -0.311777993    -0.5519674800000001    -0.089685    0.427195    0.186767
F    -1.9652997540000001    -0.680325288    -1.759122797    -0.270057    -0.305342    -0.325927
F    2.413403695    -3.593513894    -0.6823516430000001    -0.269096    -0.316171    0.279025
F    -1.564305666    -3.679706402    -1.02528012    -0.346192    0.008662    -0.402472
F    1.9630970970000001    -1.3566506930000002    1.224180802    0.097758    0.080859    0.124932
F    0.9102817639999999    -1.6845332819999999    -1.809951165    -0.001639    0.001166    0.023062
F    0.14855845200000004    -1.089506163    3.408701289    0.371425    -0.054503    0.097079
F    0.36157007100000005    1.306559999    1.342778636    0.240637    0.023033    0.04481
F    -0.566847168    -1.568923083    0.634798314    0.136385    -0.040974    -0.033393
