------------------------------------------------------------
          Invoking FHI-aims ...

          When using FHI-aims, please cite the following reference:

            Volker Blum, Ralf Gehrke, Felix Hanke, Paula Havu,
            Ville Havu, Xinguo Ren, Karsten Reuter, and Matthias Scheffler,
            'Ab Initio Molecular Simulations with Numeric Atom-Centered Orbitals',
            Computer Physics Communications 180, 2175-2196 (2009)

          In addition, many other developments in FHI-aims are likely important for
          your particular application. A partial list of references is given at the end of
          this file. Thank you for giving credit to the authors of these developments.

          For any questions about FHI-aims, please visit our slack channel at

            https://fhi-aims.slack.com

          and our main development and support site at

            https://aims-git.rz-berlin.mpg.de .

          The latter site, in particular, has a wiki to collect information, as well
          as an issue tracker to log discussions, suggest improvements, and report issues
          or bugs. https://aims-git.rz-berlin.mpg.de is also the main development site
          of the project and all new and updated code versions can be obtained there.
          Please send an email to aims-coordinators@fhi-berlin.mpg.de and we will add
          you to these sites. They are for you and everyone is welcome there.

------------------------------------------------------------



  Date     :  20220517, Time     :  105705.561
  Time zero on CPU 1             :   0.418890000000000E-01  s.
  Internal wall clock time zero  :           422017025.561  s.

  FHI-aims created a unique identifier for this run for later identification
  aims_uuid : 2B37DA98-1C5E-4D20-A78A-CC8F8D7AE445

  Build configuration of the current instance of FHI-aims
  -------------------------------------------------------
  FHI-aims version      : 210914
  Commit number         : GITDIR-NOTFOUND
  CMake host system     : Linux-3.10.0-693.17.1.el7.x86_64
  CMake version         : 3.21.1
  Fortran compiler      : /shared/ucl/apps/intel/2018.Update3/impi/2018.3.222/intel64/bin/mpiifort (Intel) version 18.0.3.20180410
  Fortran compiler flags: -O3 -ip -fp-model precise
  C compiler            : /shared/ucl/apps/intel/2018.Update3/compilers_and_libraries_2018.3.222/linux/bin/intel64/icc (Intel) version 18.0.3.20180410
  C compiler flags      : -O3 -ip -fp-model precise -std=gnu99
  ELPA2 kernel          : AVX2
  Using MPI
  Using ScaLAPACK
  Using LibXC
  Using i-PI
  Using RLSY
  Linking against: /shared/ucl/apps/intel/2019.Update5/compilers_and_libraries_2019.5.281/linux/mkl/lib/intel64/libmkl_intel_lp64.so
                   /shared/ucl/apps/intel/2019.Update5/compilers_and_libraries_2019.5.281/linux/mkl/lib/intel64/libmkl_sequential.so
                   /shared/ucl/apps/intel/2019.Update5/compilers_and_libraries_2019.5.281/linux/mkl/lib/intel64/libmkl_core.so
                   /shared/ucl/apps/intel/2019.Update5/compilers_and_libraries_2019.5.281/linux/mkl/lib/intel64/libmkl_blacs_intelmpi_lp64.so
                   /shared/ucl/apps/intel/2019.Update5/compilers_and_libraries_2019.5.281/linux/mkl/lib/intel64/libmkl_scalapack_lp64.so

  Using       24 parallel tasks.
  Task        0 on host node-k98i-010 reporting.
  Task        1 on host node-k98i-010 reporting.
  Task        2 on host node-k98i-010 reporting.
  Task        3 on host node-k98i-010 reporting.
  Task        4 on host node-k98i-010 reporting.
  Task        5 on host node-k98i-010 reporting.
  Task        6 on host node-k98i-010 reporting.
  Task        7 on host node-k98i-010 reporting.
  Task        8 on host node-k98i-010 reporting.
  Task        9 on host node-k98i-010 reporting.
  Task       10 on host node-k98i-010 reporting.
  Task       11 on host node-k98i-010 reporting.
  Task       12 on host node-k98i-010 reporting.
  Task       13 on host node-k98i-010 reporting.
  Task       14 on host node-k98i-010 reporting.
  Task       15 on host node-k98i-010 reporting.
  Task       16 on host node-k98i-010 reporting.
  Task       17 on host node-k98i-010 reporting.
  Task       18 on host node-k98i-010 reporting.
  Task       19 on host node-k98i-010 reporting.
  Task       20 on host node-k98i-010 reporting.
  Task       21 on host node-k98i-010 reporting.
  Task       22 on host node-k98i-010 reporting.
  Task       23 on host node-k98i-010 reporting.

  Performing system and environment tests:
  | Environment variable OMP_NUM_THREADS correctly set to 1.
  | Checking for ScaLAPACK...
  | Testing pdtran()...
  | All pdtran() tests passed.

  Obtaining array dimensions for all initial allocations:
  
  -----------------------------------------------------------------------
  Parsing control.in (first pass over file, find array dimensions only).
  The contents of control.in will be repeated verbatim below
  unless switched off by setting 'verbatim_writeout .false.' .
  in the first line of control.in .
  -----------------------------------------------------------------------
  
  #########################################################################################  Physical model
  #########################################################################################
  xc                 pbesol
  spin               none
  relativistic       atomic_zora scalar
  charge             0.0
  #  SCF convergence
  occupation_type    gaussian 0.01
  mixer              pulay
  n_max_pulay        10
  charge_mix_param   0.5
  sc_accuracy_rho    1E-5
  sc_accuracy_eev    1E-3
  sc_accuracy_etot   1E-6
  sc_accuracy_forces 1E-4
  sc_iter_limit      1500
  #  Relaxation
  #relax_geometry   bfgs 1.e-3
  
  ################################################################################
  #
  #  FHI-aims code project
  #  VB, Fritz-Haber Institut, 2009
  #
  #  Suggested "light" defaults for Al atom (to be pasted into control.in file)
  #  Be sure to double-check any results obtained with these settings for post-processing,
  #  e.g., with the "tight" defaults and larger basis sets.
  #
  ################################################################################
    species        Al
  #     global species definitions
      nucleus             13
      mass                26.9815386
  #
      l_hartree           4
  #
      cut_pot             3.5          1.5  1.0
      basis_dep_cutoff    1e-4
  #
      radial_base         41 5.0
      radial_multiplier   1
      angular_grids       specified
        division   0.6594  110
        division   0.8170  194
        division   0.9059  302
  #      division   1.0363  434
  #      division   1.1443  590
  #      division   1.2621  770
  #      division   2.8177  974
  #      outer_grid   974
        outer_grid   302
  ################################################################################
  #
  #  Definition of "minimal" basis
  #
  ################################################################################
  #     valence basis states
      valence      3  s   2.
      valence      3  p   1.
  #     ion occupancy
      ion_occ      3  s   1.
      ion_occ      2  p   6.
  ################################################################################
  #
  #  Suggested additional basis functions. For production calculations,
  #  uncomment them one after another (the most important basis functions are
  #  listed first).
  #
  #  Constructed for dimers: 2.0 A, 2.5 A, 3.0 A, 3.75 A, 4.5 A
  #
  ################################################################################
  #  "First tier" - improvements: -199.47 meV to -10.63 meV
       ionic 3 d auto
       ionic 3 p auto
  #     hydro 4 f 4.7
       ionic 3 s auto
  #  "Second tier" - improvements: -5.35 meV to -1.57 meV
  #     hydro 5 g 7
  #     hydro 3 d 6
  #     hydro 2 s 11.6
  #     hydro 2 p 0.9
  #  "Third tier" - improvements: -0.63 meV to -0.20 meV
  #     hydro 5 f 7.6
  #     hydro 4 p 7.2
  #     hydro 4 s 3.7
  #     hydro 4 d 7.6
  #  "Fourth tier" - improvements: -0.17 meV to -0.08 meV
  #     hydro 4 d 13.6
  #     hydro 5 g 11.2
  #     hydro 4 d 0.9
  #     hydro 1 s 0.4
  #     hydro 4 p 0.1
  #     hydro 5 f 9.8
  #  Further basis functions that fell out of the optimization - noise level...
  #     hydro 4 p 5
  
  ################################################################################
  #
  #  FHI-aims code project
  #  VB, Fritz-Haber Institut, 2009
  #
  #  Suggested "light" defaults for F atom (to be pasted into control.in file)
  #  Be sure to double-check any results obtained with these settings for post-processing,
  #  e.g., with the "tight" defaults and larger basis sets.
  #
  ################################################################################
    species        F
  #     global species definitions
      nucleus             9
      mass                18.9984032
  #
      l_hartree           4
  #
      cut_pot             3.5  1.5  1.0
      basis_dep_cutoff    1e-4
  #
      radial_base         37 5.0
      radial_multiplier   1
      angular_grids specified
        division   0.4014  110
        division   0.5291  194
        division   0.6019  302
  #      division   0.6814  434
  #      division   0.7989  590
  #      division   0.8965  770
  #      division   1.3427  974
  #      outer_grid   974
        outer_grid   302
  ################################################################################
  #
  #  Definition of "minimal" basis
  #
  ################################################################################
  #     valence basis states
      valence      2  s   2.
      valence      2  p   5.
  #     ion occupancy
      ion_occ      2  s   1.
      ion_occ      2  p   4.
  ################################################################################
  #
  #  Suggested additional basis functions. For production calculations,
  #  uncomment them one after another (the most important basis functions are
  #  listed first).
  #
  #  Constructed for dimers: 1.2 A, 1.418 A, 1.75 A, 2.25 A, 3.25 A
  #
  ################################################################################
  #  "First tier" - improvements: -149.44 meV to -45.88 meV
       hydro 2 p 1.7
       hydro 3 d 7.4
       hydro 3 s 6.8
  #  "Second tier" - improvements: -12.96 meV to -1.56 meV
  #     hydro 4 f 11.2
  #     ionic 2 p auto
  #     hydro 1 s 0.75
  #     hydro 4 d 8.8
  #     hydro 5 g 16.8
  #  "Third tier" - improvements: -0.58 meV to -0.05 meV
  #     hydro 3 p 6.2
  #     hydro 3 s 3.2
  #     hydro 4 f 9.6
  #     hydro 3 s 19.6
  #     hydro 4 d 8.6
  #     hydro 5 g 14.4
  # Further basis functions: -0.05 meV and below
  #     hydro 3 p 4.2
  
  -----------------------------------------------------------------------
  Completed first pass over input file control.in .
  -----------------------------------------------------------------------
  
  
  -----------------------------------------------------------------------
  Parsing geometry.in (first pass over file, find array dimensions only).
  The contents of geometry.in will be repeated verbatim below
  unless switched off by setting 'verbatim_writeout .false.' .
  in the first line of geometry.in .
  -----------------------------------------------------------------------
  
  atom 1.318230662 0.007427516 2.425018437 Al
  atom 1.276784000 1.189243000 -0.083083000 Al
  atom -0.354695785 0.877304764 -2.303431273 Al
  atom -1.832084204 -0.181510144 -2.133355877 F
  atom 2.225303192 -0.272444354 0.780680313 F
  atom 0.174652984 1.674794254 -3.863862594 F
  atom -0.278401426 2.080998881 -0.837056095 F
  atom 2.587876553 2.420946509 -0.320355444 F
  atom 1.139611423 -0.057737872 -1.534527777 F
  atom 0.321734471 1.410137823 1.566024702 F
  atom 2.418844130 0.741203019 3.690471009 F
  atom 0.182085559 -1.389036859 2.727922786 F
  
  -----------------------------------------------------------------------
  Completed first pass over input file geometry.in .
  -----------------------------------------------------------------------
  

  Basic array size parameters:
  | Number of species                 :        2
  | Number of atoms                   :       12
  | Max. basis fn. angular momentum   :        2
  | Max. atomic/ionic basis occupied n:        3
  | Max. number of basis fn. types    :        3
  | Max. radial fns per species/type  :        5
  | Max. logarithmic grid size        :     1340
  | Max. radial integration grid size :       41
  | Max. angular integration grid size:      302
  | Max. angular grid division number :        8
  | Radial grid for Hartree potential :     1340
  | Number of spin channels           :        1

------------------------------------------------------------
          Reading file control.in.
------------------------------------------------------------
  XC: Using PBEsol gradient-corrected functionals.
  Spin treatment: No spin polarisation.
  Scalar relativistic treatment of kinetic energy: on-site free-atom approximation to ZORA.
  Charge =   0.000000E+00: Neutral system requested explicitly.
  Occupation type: Gaussian broadening, width =   0.100000E-01 eV.
  Using pulay charge density mixing.
  Pulay mixing - number of memorized iterations:   10
  Charge density mixing - mixing parameter:     0.5000
  Convergence accuracy of self-consistent charge density:  0.1000E-04
  Convergence accuracy of sum of eigenvalues:  0.1000E-02
  Convergence accuracy of total energy:  0.1000E-05
  Convergence accuracy of forces:  0.1000E-03
  Maximum number of s.-c. iterations  :  1500
 
  Reading configuration options for species Al                  .
  | Found nuclear charge :  13.0000
  | Found atomic mass :    26.9815386000000      amu
  | Found l_max for Hartree potential  :   4
  | Found cutoff potl. onset [A], width [A], scale factor :    3.50000    1.50000    1.00000
  | Threshold for basis-dependent cutoff potential is   0.100000E-03
  | Found data for basic radial integration grid :    41 points, outermost radius =    5.000 A
  | Found multiplier for basic radial grid :   1
  | Found angular grid specification: user-specified.
  | Specified grid contains     4 separate shells.
  | Check grid settings after all constraints further below.
  | Found free-atom valence shell :  3 s   2.000
  | Found free-atom valence shell :  3 p   1.000
  | Found free-ion valence shell :  3 s   1.000
  | Found free-ion valence shell :  2 p   6.000
  | Found ionic basis function :  3 d , default cutoff radius.
  | Found ionic basis function :  3 p , default cutoff radius.
  | Found ionic basis function :  3 s , default cutoff radius.
  Species Al                  : Missing cutoff potential type.
  Defaulting to exp(1/x)/(1-x)^2 type cutoff potential.
  Species Al: No 'logarithmic' tag. Using default grid for free atom:
  | Default logarithmic grid data [bohr] : 0.1000E-03 0.1000E+03 0.1012E+01
  | Will include ionic basis functions of  2.0-fold positive Al                   ion.
  Species Al: On-site basis accuracy parameter (for Gram-Schmidt orthonormalisation) not specified.
  Using default value basis_acc =  0.1000000E-03.
  Species Al                  : Using default innermost maximum threshold i_radial=  2 for radial functions.
  Species Al                  : Default cutoff onset for free atom density etc. : 0.35000000E+01 AA.
  Species Al                  : Basic radial grid will be enhanced according to radial_multiplier =   1, to contain    41 grid points.
 
  Reading configuration options for species F                   .
  | Found nuclear charge :   9.0000
  | Found atomic mass :    18.9984032000000      amu
  | Found l_max for Hartree potential  :   4
  | Found cutoff potl. onset [A], width [A], scale factor :    3.50000    1.50000    1.00000
  | Threshold for basis-dependent cutoff potential is   0.100000E-03
  | Found data for basic radial integration grid :    37 points, outermost radius =    5.000 A
  | Found multiplier for basic radial grid :   1
  | Found angular grid specification: user-specified.
  | Specified grid contains     4 separate shells.
  | Check grid settings after all constraints further below.
  | Found free-atom valence shell :  2 s   2.000
  | Found free-atom valence shell :  2 p   5.000
  | Found free-ion valence shell :  2 s   1.000
  | Found free-ion valence shell :  2 p   4.000
  | Found hydrogenic basis function :  2 p   1.700
  | Found hydrogenic basis function :  3 d   7.400
  | Found hydrogenic basis function :  3 s   6.800
  Species F                   : Missing cutoff potential type.
  Defaulting to exp(1/x)/(1-x)^2 type cutoff potential.
  Species F : No 'logarithmic' tag. Using default grid for free atom:
  | Default logarithmic grid data [bohr] : 0.1000E-03 0.1000E+03 0.1012E+01
  Species F : On-site basis accuracy parameter (for Gram-Schmidt orthonormalisation) not specified.
  Using default value basis_acc =  0.1000000E-03.
  Species F                   : Using default innermost maximum threshold i_radial=  2 for radial functions.
  Species F                   : Default cutoff onset for free atom density etc. : 0.35000000E+01 AA.
  Species F                   : Basic radial grid will be enhanced according to radial_multiplier =   1, to contain    37 grid points.
 
  Finished reading input file 'control.in'.
 
------------------------------------------------------------


------------------------------------------------------------
          Reading geometry description geometry.in.
------------------------------------------------------------
  | The smallest distance between any two atoms is         1.81448489 AA.
  | The first atom of this pair is atom number                      2 .
  | The second atom of this pair is atom number                     8 .
  Input structure read successfully.
  The structure contains       12 atoms,  and a total of        120.000 electrons.

  Input geometry:
  | No unit cell requested.
  | Atomic structure:
  |       Atom                x [A]            y [A]            z [A]
  |    1: Species Al            1.31823066        0.00742752        2.42501844
  |    2: Species Al            1.27678400        1.18924300       -0.08308300
  |    3: Species Al           -0.35469578        0.87730476       -2.30343127
  |    4: Species F            -1.83208420       -0.18151014       -2.13335588
  |    5: Species F             2.22530319       -0.27244435        0.78068031
  |    6: Species F             0.17465298        1.67479425       -3.86386259
  |    7: Species F            -0.27840143        2.08099888       -0.83705610
  |    8: Species F             2.58787655        2.42094651       -0.32035544
  |    9: Species F             1.13961142       -0.05773787       -1.53452778
  |   10: Species F             0.32173447        1.41013782        1.56602470
  |   11: Species F             2.41884413        0.74120302        3.69047101
  |   12: Species F             0.18208556       -1.38903686        2.72792279

 
  Finished reading input file 'control.in'.
 

------------------------------------------------------------
          Reading geometry description geometry.in.
------------------------------------------------------------
 
  Consistency checks for stacksize environment parameter are next.
 
  | Maximum stacksize for task 0: unlimited
  | Maximum stacksize for task 1: unlimited
  | Maximum stacksize for task 2: unlimited
  | Maximum stacksize for task 3: unlimited
  | Maximum stacksize for task 4: unlimited
  | Maximum stacksize for task 5: unlimited
  | Maximum stacksize for task 6: unlimited
  | Maximum stacksize for task 7: unlimited
  | Maximum stacksize for task 8: unlimited
  | Maximum stacksize for task 9: unlimited
  | Maximum stacksize for task 10: unlimited
  | Maximum stacksize for task 11: unlimited
  | Maximum stacksize for task 12: unlimited
  | Maximum stacksize for task 13: unlimited
  | Maximum stacksize for task 14: unlimited
  | Maximum stacksize for task 15: unlimited
  | Maximum stacksize for task 16: unlimited
  | Maximum stacksize for task 17: unlimited
  | Maximum stacksize for task 18: unlimited
  | Maximum stacksize for task 19: unlimited
  | Maximum stacksize for task 20: unlimited
  | Maximum stacksize for task 21: unlimited
  | Maximum stacksize for task 22: unlimited
  | Maximum stacksize for task 23: unlimited
  | Current stacksize for task 0: unlimited
  | Current stacksize for task 1: unlimited
  | Current stacksize for task 2: unlimited
  | Current stacksize for task 3: unlimited
  | Current stacksize for task 4: unlimited
  | Current stacksize for task 5: unlimited
  | Current stacksize for task 6: unlimited
  | Current stacksize for task 7: unlimited
  | Current stacksize for task 8: unlimited
  | Current stacksize for task 9: unlimited
  | Current stacksize for task 10: unlimited
  | Current stacksize for task 11: unlimited
  | Current stacksize for task 12: unlimited
  | Current stacksize for task 13: unlimited
  | Current stacksize for task 14: unlimited
  | Current stacksize for task 15: unlimited
  | Current stacksize for task 16: unlimited
  | Current stacksize for task 17: unlimited
  | Current stacksize for task 18: unlimited
  | Current stacksize for task 19: unlimited
  | Current stacksize for task 20: unlimited
  | Current stacksize for task 21: unlimited
  | Current stacksize for task 22: unlimited
  | Current stacksize for task 23: unlimited
 
  Consistency checks for the contents of control.in are next.
 
  MPI_IN_PLACE appears to work with this MPI implementation.
  | Keeping use_mpi_in_place .true. (see manual).
  Target number of points in a grid batch is not set. Defaulting to  100
  Method for grid partitioning is not set. Defaulting to parallel hash+maxmin partitioning.
  Batch size limit is not set. Defaulting to    200
  By default, will store active basis functions for each batch.
  If in need of memory, prune_basis_once .false. can be used to disable this option.
  communication_type for Hartree potential was not specified.
  Defaulting to calc_hartree .
  Pulay mixer: Number of initial linear mixing iterations not set.
  Defaulting to    0 iterations.
  Work space size for distributed Hartree potential not set.
  Defaulting to   0.200000E+03 MB.
  Algorithm-dependent basis array size parameters:
  | n_max_pulay                         :       10
  Presetting      1001 iterations before the initial mixing cycle
  is restarted anyway using the sc_init_iter criterion / keyword.
  Presetting a factor      1.000 between actual scf density residual
  and density convergence criterion sc_accuracy_rho below which sc_init_iter
  takes no effect.
  Geometry relaxation not requested: no relaxation will be performed.
  Forces evaluation will include force correction term due to incomplete self-consistency (default).
  Handling of forces: Unphysical translation and rotation will be removed from forces.
  No accuracy limit for integral partition fn. given. Defaulting to  0.1000E-14.
  No threshold value for u(r) in integrations given. Defaulting to  0.1000E-05.
  No accuracy for occupation numbers given. Defaulting to  0.1000E-12.
  No threshold value for occupation numbers given. Defaulting to  0.0000E+00.
  No accuracy for fermi level given. Defaulting to  0.1000E-19.
  Maximum # of iterations to find E_F not set. Defaulting to  200.
  Preferred method for the eigenvalue solver ('KS_method') not specified in 'control.in'.
  Calling BLACS routine to test compilation state
  Since ScaLAPACK support is enabled, defaulting to ELPA (via ELSI).
  Will not use alltoall communication since running on < 1024 CPUs.
  Threshold for basis singularities not set.
  Default threshold for basis singularities:  0.1000E-04
  partition_type (choice of integration weights) for integrals was not specified.
  | Using a version of the partition function of Stratmann and coworkers ('stratmann_sparse').
  | At each grid point, the set of atoms used to build the partition table is smoothly restricted to
  | only those atoms whose free-atom density would be non-zero at that grid point.
  Partitioning for Hartree potential was not defined. Using partition_type for integrals.
  | Adjusted default value of keyword multip_moments_threshold to:       0.10000000E-11
  | This value may affect high angular momentum components of the Hartree potential in periodic systems.
  No q(lm)/r^(l+1) cutoff set for long-range Hartree potential.
  | Using default value of  0.100000E-09 .
  | Verify using the multipole_threshold keyword.
  Defaulting to new monopole extrapolation.
  Density update method: automatic selection selected.
  Charge integration errors on the 3D integration grid will be compensated
  by explicit normalization and distribution of residual charges.
  Use the "compensate_multipole_errors" flag to change this behaviour.
  Set 'collect_eigenvectors' to be '.true.' for use_density_matrix .false.
 
  Consistency checks for the contents of geometry.in are next.
 
  Number of empty states per atom not set in control.in - providing a guess from actual geometry.
  | Total number of empty states used during s.c.f. cycle:       36
  If you use a very high smearing, use empty_states (per atom!) in control.in to increase this value.

  Structure-dependent array size parameters: 
  | Maximum number of distinct radial functions  :       14
  | Maximum number of basis functions            :      180
  | Number of Kohn-Sham states (occupied + empty):       96
------------------------------------------------------------

------------------------------------------------------------
          Preparing all fixed parts of the calculation.
------------------------------------------------------------
  Determining machine precision:
    2.225073858507201E-308
  Setting up grids for atomic and cluster calculations.

  Creating wave function, potential, and density for free atoms.

  Species: Al

  List of occupied orbitals and eigenvalues:
    n    l              occ      energy [Ha]    energy [eV]
    1    0           2.0000       -55.621123     -1513.5278
    2    0           2.0000        -3.957030      -107.6763
    3    0           2.0000        -0.272233        -7.4078
    2    1           6.0000        -2.540949       -69.1427
    3    1           1.0000        -0.083300        -2.2667


  Species: F

  List of occupied orbitals and eigenvalues:
    n    l              occ      energy [Ha]    energy [eV]
    1    0           2.0000       -24.399611      -663.9472
    2    0           2.0000        -1.098702       -29.8972
    2    1           5.0000        -0.408210       -11.1080


  Adding cutoff potential to free-atom effective potential.
  Creating fixed part of basis set: Ionic, confined, hydrogenic.
 
  Al                   ion:

  List of free ionic orbitals and eigenvalues:
    n    l      energy [Ha]    energy [eV]
    1    0       -56.418846     -1535.2349
    2    0        -4.732717      -128.7838
    3    0        -0.872690       -23.7471
    2    1        -3.317230       -90.2664


  List of ionic basis orbitals and eigenvalues:
    n    l      energy [Ha]    energy [eV]    outer radius [A]
    3    2        -0.346815        -9.4373       4.594041
    3    1        -0.631870       -17.1940       4.538221
    3    0        -0.872657       -23.7462       4.538221

 
  F                    hydrogenic:
 
  List of hydrogenic basis orbitals: 
    n    l      effective z      eigenvalue [eV]  inner max. [A]     outer max. [A]     outer radius [A]   
    2    1         1.700000        -9.7616           1.243167           1.243167           4.598524
    3    2         7.400000       -82.7828           0.642437           0.642437           3.305741
    3    0         6.800000       -69.9026           0.057798           1.022307           3.781556
 
  Creating atomic-like basis functions for current effective potential.

  Species Al                  :

  List of atomic basis orbitals and eigenvalues:
    n    l      energy [Ha]    energy [eV]    outer radius [A]
    1    0       -55.621123     -1513.5278       0.850197
    2    0        -3.957030      -107.6763       3.144911
    3    0        -0.272233        -7.4078       4.594041
    2    1        -2.540949       -69.1427       3.731966
    3    1        -0.083300        -2.2667       4.594041


  Species F                   :

  List of atomic basis orbitals and eigenvalues:
    n    l      energy [Ha]    energy [eV]    outer radius [A]
    1    0       -24.399611      -663.9472       1.258458
    2    0        -1.098702       -29.8972       4.325857
    2    1        -0.408210       -11.1080       4.487453

  Assembling full basis from fixed parts.
  | Species Al :   atomic orbital   1 s accepted.
  | Species Al :   atomic orbital   2 s accepted.
  | Species Al :    ionic orbital   3 s accepted.
  | Species Al :   atomic orbital   3 s accepted.
  | Species Al :   atomic orbital   2 p accepted.
  | Species Al :    ionic orbital   3 p accepted.
  | Species Al :   atomic orbital   3 p accepted.
  | Species Al :    ionic orbital   3 d accepted.
  | Species F :   atomic orbital   1 s accepted.
  | Species F :    hydro orbital   3 s accepted.
  | Species F :   atomic orbital   2 s accepted.
  | Species F :   atomic orbital   2 p accepted.
  | Species F :    hydro orbital   2 p accepted.
  | Species F :    hydro orbital   3 d accepted.
 
  Basis size parameters after reduction:
  | Total number of radial functions:       14
  | Total number of basis functions :      180
 
  Per-task memory consumption for arrays in subroutine allocate_ext:
  |           4.807768MB.
  Testing on-site integration grid accuracy.
  |  Species  Function  <phi|h_atom|phi> (log., in eV)  <phi|h_atom|phi> (rad., in eV)
           1        1              -1513.5277717935              -1513.5271881332
           1        2               -107.6762691836               -107.6762662489
           1        3                 -6.9467474784                 -6.9471269649
           1        4                  5.5771951849                  5.4862107220 ***
           1        5                -69.1427313144                -69.1427312731
           1        6                 -1.5197375330                 -1.5230432022
           1        7                  6.8210948310                  6.5529872240 ***
           1        8                  4.3216540965                  4.2851170187 ***
           2        9               -663.9471986398               -663.9470363334
           2       10                 16.8514011578                 16.8512525338
           2       11                -28.4490593856                -28.4490661472
           2       12                -11.1080115307                -11.1080620173
           2       13                  7.1940182175                  7.1685154137
           2       14                 44.8544281765                 44.8543763625
 * Note: Onsite integrals marked "***" above are less accurate than
 * onsite_accuracy_threshold =    0.03000 eV. Usually, this is harmless.
 * When in doubt, tighten the "radial" and/or "radial_multiplier" flags to check.

  Preparing densities etc. for the partition functions (integrals / Hartree potential).

  Preparations completed.
  max(cpu_time)          :      0.184 s.
  Wall clock time (cpu1) :      0.185 s.
------------------------------------------------------------

------------------------------------------------------------
          Begin self-consistency loop: Initialization.

          Date     :  20220517, Time     :  105705.791
------------------------------------------------------------

  Initializing index lists of integration centers etc. from given atomic structure:
  | Number of centers in hartree potential         :        12
  | Number of centers in hartree multipole         :        12
  | Number of centers in electron density summation:        12
  | Number of centers in basis integrals           :        12
  | Number of centers in integrals                 :        12
  | Number of centers in hamiltonian               :        12
  * Using 24 tasks for Scalapack Eigenvalue solver.
  Detailed listing of tasks and assigned k-points:
  (for non-periodic systems, the "k-point" denotes an internal label only)
   Task     0 k-point     1 on node-k98i-010
   Task     1 k-point     1 on node-k98i-010
   Task     2 k-point     1 on node-k98i-010
   Task     3 k-point     1 on node-k98i-010
   Task     4 k-point     1 on node-k98i-010
   Task     5 k-point     1 on node-k98i-010
   Task     6 k-point     1 on node-k98i-010
   Task     7 k-point     1 on node-k98i-010
   Task     8 k-point     1 on node-k98i-010
   Task     9 k-point     1 on node-k98i-010
   Task    10 k-point     1 on node-k98i-010
   Task    11 k-point     1 on node-k98i-010
   Task    12 k-point     1 on node-k98i-010
   Task    13 k-point     1 on node-k98i-010
   Task    14 k-point     1 on node-k98i-010
   Task    15 k-point     1 on node-k98i-010
   Task    16 k-point     1 on node-k98i-010
   Task    17 k-point     1 on node-k98i-010
   Task    18 k-point     1 on node-k98i-010
   Task    19 k-point     1 on node-k98i-010
   Task    20 k-point     1 on node-k98i-010
   Task    21 k-point     1 on node-k98i-010
   Task    22 k-point     1 on node-k98i-010
   Task    23 k-point     1 on node-k98i-010
  Tasks:    24 split into      6 X      4 BLACS grid
  Calculating block size based on n_basis =          180  max_nprow =            6  max_npcol =            4
  ScaLAPACK block size set to:           16
  Allocating        0.012 MB for ovlp
  Allocating        0.012 MB for ham
  Allocating        0.012 MB for eigenvec
  Required Scalapack workspace - INTEGER:            1  REAL:             1
  Partitioning the integration grid into batches with parallel hashing+maxmin method.
  | Number of batches:     1041
  | Maximal batch size:     194
  | Minimal batch size:      12
  | Average batch size:      88.300
  | Standard deviation of batch sizes:      27.771

  Integration load balanced across    24 MPI tasks.
  Work distribution over tasks is as follows:
  Task     0 has       3791 integration points.
  Task     1 has       3810 integration points.
  Task     2 has       3833 integration points.
  Task     3 has       3840 integration points.
  Task     4 has       3837 integration points.
  Task     5 has       3848 integration points.
  Task     6 has       3815 integration points.
  Task     7 has       3801 integration points.
  Task     8 has       3846 integration points.
  Task     9 has       3786 integration points.
  Task    10 has       3821 integration points.
  Task    11 has       3807 integration points.
  Task    12 has       3797 integration points.
  Task    13 has       3864 integration points.
  Task    14 has       3793 integration points.
  Task    15 has       3903 integration points.
  Task    16 has       3850 integration points.
  Task    17 has       3858 integration points.
  Task    18 has       3790 integration points.
  Task    19 has       3911 integration points.
  Task    20 has       3803 integration points.
  Task    21 has       3861 integration points.
  Task    22 has       3857 integration points.
  Task    23 has       3798 integration points.
  Initializing partition tables, free-atom densities, potentials, etc. across the integration grid (initialize_grid_storage).
  | initialize_grid_storage: Actual outermost partition radius vs. multipole_radius_free
  | (-- VB: in principle, multipole_radius_free should be larger, hence this output)
  | Species        1: Confinement radius =              4.999999999999999 AA, multipole_radius_free =              5.004487022111096 AA.
  | Species        1: outer_partition_radius set to              5.004487022111096 AA .
  | Species        2: Confinement radius =              4.999999999999999 AA, multipole_radius_free =              5.009370088163274 AA.
  | Species        2: outer_partition_radius set to              5.009370088163274 AA .
  | The sparse table of interatomic distances needs          1.64 kbyte instead of         1.15 kbyte of memory.
  | Using the partition_type stratmann_smoother will reduce your memory usage.
  | Net number of integration points:    91920
  | of which are non-zero points    :    85919
  Renormalizing the initial density to the exact electron count on the 3D integration grid.
  | Initial density: Formal number of electrons (from input files) :     120.0000000000
  | Integrated number of electrons on 3D grid     :     119.9999788869
  | Charge integration error                      :      -0.0000211131
  | Normalization factor for density and gradient :       1.0000001759
  Renormalizing the free-atom superposition density to the exact electron count on the 3D integration grid.
  | Formal number of electrons (from input files) :     120.0000000000
  | Integrated number of electrons on 3D grid     :     119.9999788869
  | Charge integration error                      :      -0.0000211131
  | Normalization factor for density and gradient :       1.0000001759
  Obtaining max. number of non-zero basis functions in each batch (get_n_compute_maxes).
  | Maximal number of non-zero basis functions:      161 in task     0
  | Maximal number of non-zero basis functions:      159 in task     1
  | Maximal number of non-zero basis functions:      158 in task     2
  | Maximal number of non-zero basis functions:      158 in task     3
  | Maximal number of non-zero basis functions:      165 in task     4
  | Maximal number of non-zero basis functions:      159 in task     5
  | Maximal number of non-zero basis functions:      155 in task     6
  | Maximal number of non-zero basis functions:      161 in task     7
  | Maximal number of non-zero basis functions:      161 in task     8
  | Maximal number of non-zero basis functions:      167 in task     9
  | Maximal number of non-zero basis functions:      165 in task    10
  | Maximal number of non-zero basis functions:      162 in task    11
  | Maximal number of non-zero basis functions:      164 in task    12
  | Maximal number of non-zero basis functions:      163 in task    13
  | Maximal number of non-zero basis functions:      161 in task    14
  | Maximal number of non-zero basis functions:      163 in task    15
  | Maximal number of non-zero basis functions:      164 in task    16
  | Maximal number of non-zero basis functions:      161 in task    17
  | Maximal number of non-zero basis functions:      165 in task    18
  | Maximal number of non-zero basis functions:      159 in task    19
  | Maximal number of non-zero basis functions:      158 in task    20
  | Maximal number of non-zero basis functions:      159 in task    21
  | Maximal number of non-zero basis functions:      161 in task    22
  | Maximal number of non-zero basis functions:      163 in task    23
  Selecting the method for density update.
  Loop over occupied states selected for charge density update.
  Allocating        0.132 MB for KS_eigenvector
  Integrating Hamiltonian matrix: batch-based integration.
  Time summed over all CPUs for integration: real work        0.681 s, elapsed        0.714 s
  Integrating overlap matrix.
  Time summed over all CPUs for integration: real work        0.262 s, elapsed        0.283 s
  Deallocating overlap matrix.

  Updating Kohn-Sham eigenvalues and eigenvectors using ELSI and the ELPA eigensolver.
  Overlap matrix is not singular
  | Lowest and highest eigenvalues :  0.3467E-02,  0.4850E+01
  Finished singularity check of overlap matrix
  | Time :     0.004 s
  Starting ELPA eigensolver
  Finished Cholesky decomposition
  | Time :     0.001 s
  Finished transformation to standard eigenproblem
  | Time :     0.001 s
  Finished solving standard eigenproblem
  | Time :     0.003 s
  Finished back-transformation of eigenvectors
  | Time :     0.000 s

  Obtaining occupation numbers and chemical potential using ELSI.
  | Chemical potential (Fermi level):    -7.60158828 eV
  Writing Kohn-Sham eigenvalues.

  State    Occupation    Eigenvalue [Ha]    Eigenvalue [eV]
      1       2.00000         -55.485674        -1509.84200
      2       2.00000         -55.483796        -1509.79090
      3       2.00000         -55.483796        -1509.79090
      4       2.00000         -24.358475         -662.82782
      5       2.00000         -24.358475         -662.82782
      6       2.00000         -24.358448         -662.82709
      7       2.00000         -24.358448         -662.82709
      8       2.00000         -24.340758         -662.34572
      9       2.00000         -24.339462         -662.31046
     10       2.00000         -24.339462         -662.31046
     11       2.00000         -24.338890         -662.29489
     12       2.00000         -24.338890         -662.29489
     13       2.00000          -3.951283         -107.51987
     14       2.00000          -3.948752         -107.45101
     15       2.00000          -3.948751         -107.45099
     16       2.00000          -2.543773          -69.21958
     17       2.00000          -2.543152          -69.20270
     18       2.00000          -2.542580          -69.18713
     19       2.00000          -2.541121          -69.14742
     20       2.00000          -2.541105          -69.14697
     21       2.00000          -2.541073          -69.14612
     22       2.00000          -2.541071          -69.14606
     23       2.00000          -2.539560          -69.10495
     24       2.00000          -2.539560          -69.10495
     25       2.00000          -1.188622          -32.34405
     26       2.00000          -1.179159          -32.08654
     27       2.00000          -1.176651          -32.01830
     28       2.00000          -1.169151          -31.81422
     29       2.00000          -1.149311          -31.27436
     30       2.00000          -1.148079          -31.24082
     31       2.00000          -1.148055          -31.24016
     32       2.00000          -1.145862          -31.18049
     33       2.00000          -1.145851          -31.18020
     34       2.00000          -0.553879          -15.07183
     35       2.00000          -0.546945          -14.88314
     36       2.00000          -0.537935          -14.63795
     37       2.00000          -0.530228          -14.42824
     38       2.00000          -0.513028          -13.96019
     39       2.00000          -0.504364          -13.72445
     40       2.00000          -0.494884          -13.46648
     41       2.00000          -0.493297          -13.42329
     42       2.00000          -0.491344          -13.37014
     43       2.00000          -0.485618          -13.21433
     44       2.00000          -0.485009          -13.19776
     45       2.00000          -0.482126          -13.11932
     46       2.00000          -0.477458          -12.99228
     47       2.00000          -0.476825          -12.97507
     48       2.00000          -0.474321          -12.90692
     49       2.00000          -0.470715          -12.80880
     50       2.00000          -0.465528          -12.66766
     51       2.00000          -0.453468          -12.33949
     52       2.00000          -0.453181          -12.33168
     53       2.00000          -0.452374          -12.30972
     54       2.00000          -0.450511          -12.25902
     55       2.00000          -0.450380          -12.25547
     56       2.00000          -0.449261          -12.22501
     57       2.00000          -0.447127          -12.16694
     58       2.00000          -0.447067          -12.16532
     59       2.00000          -0.446121          -12.13957
     60       2.00000          -0.445093          -12.11160
     61       0.00000          -0.138600           -3.77149
     62       0.00000          -0.110221           -2.99926
     63       0.00000          -0.063538           -1.72896
     64       0.00000          -0.027177           -0.73953
     65       0.00000          -0.022757           -0.61926
     66       0.00000          -0.008421           -0.22914
     67       0.00000          -0.007059           -0.19209
     68       0.00000           0.035204            0.95796
     69       0.00000           0.047628            1.29603
     70       0.00000           0.064687            1.76021
     71       0.00000           0.083198            2.26392
     72       0.00000           0.119489            3.25145
     73       0.00000           0.142712            3.88340
     74       0.00000           0.153683            4.18192
     75       0.00000           0.170274            4.63340
     76       0.00000           0.173605            4.72402
     77       0.00000           0.174434            4.74660
     78       0.00000           0.179343            4.88017
     79       0.00000           0.189513            5.15692
     80       0.00000           0.202189            5.50185
     81       0.00000           0.206898            5.62999
     82       0.00000           0.215285            5.85819
     83       0.00000           0.224282            6.10302
     84       0.00000           0.233038            6.34127
     85       0.00000           0.249680            6.79415
     86       0.00000           0.266022            7.23883
     87       0.00000           0.269878            7.34375
     88       0.00000           0.273069            7.43058
     89       0.00000           0.278600            7.58110
     90       0.00000           0.291740            7.93865
     91       0.00000           0.294085            8.00247
     92       0.00000           0.304728            8.29207
     93       0.00000           0.334883            9.11263
     94       0.00000           0.349088            9.49918
     95       0.00000           0.360436            9.80797
     96       0.00000           0.375267           10.21154

  Highest occupied state (VBM) at    -12.11159992 eV
  | Occupation number:      2.00000000

  Lowest unoccupied state (CBM) at    -3.77148521 eV
  | Occupation number:      0.00000000

  Overall HOMO-LUMO gap:      8.34011471 eV.
  Calculating total energy contributions from superposition of free atom densities.

  Total energy components:
  | Sum of eigenvalues            :        -887.47035932 Ha      -24149.29717980 eV
  | XC energy correction          :        -144.32159043 Ha       -3927.19028897 eV
  | XC potential correction       :         187.91352833 Ha        5113.38727210 eV
  | Free-atom electrostatic energy:        -781.47928996 Ha      -21265.13343797 eV
  | Hartree energy correction     :           0.00000000 Ha           0.00000000 eV
  | Entropy correction            :           0.00000000 Ha           0.00000000 eV
  | ---------------------------
  | Total energy                  :       -1625.35771139 Ha      -44228.23363464 eV
  | Total energy, T -> 0          :       -1625.35771139 Ha      -44228.23363464 eV  <-- do not rely on this value for anything but (periodic) metals
  | Electronic free energy        :       -1625.35771139 Ha      -44228.23363464 eV

  Derived energy quantities:
  | Kinetic energy                :        1627.57984789 Ha       44288.70104547 eV
  | Electrostatic energy          :       -3108.61596885 Ha      -84589.74439114 eV
  | Energy correction for multipole
  | error in Hartree potential    :           0.00000000 Ha           0.00000000 eV
  | Sum of eigenvalues per atom                           :       -2012.44143165 eV
  | Total energy (T->0) per atom                          :       -3685.68613622 eV  <-- do not rely on this value for anything but (periodic) metals
  | Electronic free energy per atom                       :       -3685.68613622 eV
  Initialize hartree_potential_storage
  Max. number of atoms included in rho_multipole:           12

  End scf initialization - timings             :  max(cpu_time)    wall_clock(cpu1)
  | Time for scf. initialization                :        0.110 s           0.111 s
  | Boundary condition initialization           :        0.000 s           0.000 s
  | Integration                                 :        0.043 s           0.043 s
  | Solution of K.-S. eqns.                     :        0.011 s           0.011 s
  | Grid partitioning                           :        0.034 s           0.034 s
  | Preloading free-atom quantities on grid     :        0.015 s           0.015 s
  | Free-atom superposition energy              :        0.005 s           0.004 s
  | Total energy evaluation                     :        0.000 s           0.000 s

  Partial memory accounting:
  | Current value for overall tracked memory usage:
  |   Minimum:        0.273 MB (on task 23)
  |   Maximum:        0.292 MB (on task  0)
  |   Average:        0.287 MB
  | Peak value for overall tracked memory usage:
  |   Minimum:        1.291 MB (on task  6 after allocating wave)
  |   Maximum:        1.374 MB (on task  9 after allocating wave)
  |   Average:        1.330 MB
  | Largest tracked array allocation so far:
  |   Minimum:        0.229 MB (H_times_psi on task  6)
  |   Maximum:        0.442 MB (all_coords on task 14)
  |   Average:        0.263 MB
  Note:  These values currently only include a subset of arrays which are explicitly tracked.
  The "true" memory usage will be greater.
------------------------------------------------------------
  Evaluating new KS density.
  Integration grid: deviation in total charge (<rho> - N_e) =   4.263256E-14

  Time for density update prior                :  max(cpu_time)    wall_clock(cpu1)
  | self-consistency iterative process          :        0.028 s           0.027 s

------------------------------------------------------------
          Begin self-consistency iteration #    1

  Date     :  20220517, Time     :  105705.930
------------------------------------------------------------
  Pulay mixing of updated and previous charge densities.
  Renormalizing the density to the exact electron count on the 3D integration grid.
  | Formal number of electrons (from input files) :     120.0000000000
  | Integrated number of electrons on 3D grid     :     120.0000000000
  | Charge integration error                      :      -0.0000000000
  | Normalization factor for density and gradient :       1.0000000000

  Evaluating partitioned Hartree potential by multipole expansion.
  | Original multipole sum: apparent total charge =  -0.296157E-13
  | Sum of charges compensated after spline to logarithmic grids =   0.113216E-03
  | Analytical far-field extrapolation by fixed multipoles:
  | Hartree multipole sum: apparent total charge =  -0.310177E-13
  Summing up the Hartree potential.
  Time summed over all CPUs for potential: real work        0.382 s, elapsed        0.391 s
  | RMS charge density error from multipole expansion :   0.105969E-01

  Integrating Hamiltonian matrix: batch-based integration.
  Time summed over all CPUs for integration: real work        0.638 s, elapsed        0.671 s

  Updating Kohn-Sham eigenvalues and eigenvectors using ELSI and the ELPA eigensolver.
  Starting ELPA eigensolver
  Finished transformation to standard eigenproblem
  | Time :     0.000 s
  Finished solving standard eigenproblem
  | Time :     0.004 s
  Finished back-transformation of eigenvectors
  | Time :     0.000 s

  Obtaining occupation numbers and chemical potential using ELSI.
  | Chemical potential (Fermi level):    -7.73115836 eV
  Writing Kohn-Sham eigenvalues.

  State    Occupation    Eigenvalue [Ha]    Eigenvalue [eV]
      1       2.00000         -55.658476        -1514.54420
      2       2.00000         -55.645115        -1514.18062
      3       2.00000         -55.645105        -1514.18036
      4       2.00000         -24.231180         -659.36395
      5       2.00000         -24.231177         -659.36388
      6       2.00000         -24.224851         -659.19174
      7       2.00000         -24.224850         -659.19170
      8       2.00000         -24.073319         -655.06835
      9       2.00000         -24.073314         -655.06821
     10       2.00000         -24.069599         -654.96712
     11       2.00000         -24.069599         -654.96711
     12       2.00000         -24.069235         -654.95722
     13       2.00000          -4.097801         -111.50685
     14       2.00000          -4.083826         -111.12655
     15       2.00000          -4.083819         -111.12636
     16       2.00000          -2.692101          -73.25580
     17       2.00000          -2.689821          -73.19376
     18       2.00000          -2.689480          -73.18447
     19       2.00000          -2.677463          -72.85748
     20       2.00000          -2.677456          -72.85727
     21       2.00000          -2.677007          -72.84507
     22       2.00000          -2.677000          -72.84488
     23       2.00000          -2.674957          -72.78928
     24       2.00000          -2.674950          -72.78909
     25       2.00000          -1.160390          -31.57581
     26       2.00000          -1.149688          -31.28460
     27       2.00000          -1.142803          -31.09725
     28       2.00000          -1.134591          -30.87378
     29       2.00000          -1.019650          -27.74609
     30       2.00000          -1.019611          -27.74503
     31       2.00000          -1.016690          -27.66553
     32       2.00000          -1.013860          -27.58853
     33       2.00000          -1.013838          -27.58794
     34       2.00000          -0.544243          -14.80959
     35       2.00000          -0.531363          -14.45911
     36       2.00000          -0.520855          -14.17318
     37       2.00000          -0.510882          -13.90180
     38       2.00000          -0.484749          -13.19069
     39       2.00000          -0.472024          -12.84442
     40       2.00000          -0.463895          -12.62322
     41       2.00000          -0.448265          -12.19790
     42       2.00000          -0.445910          -12.13382
     43       2.00000          -0.440908          -11.99773
     44       2.00000          -0.440217          -11.97890
     45       2.00000          -0.426830          -11.61464
     46       2.00000          -0.398237          -10.83658
     47       2.00000          -0.393051          -10.69546
     48       2.00000          -0.375792          -10.22583
     49       2.00000          -0.365733           -9.95209
     50       2.00000          -0.365647           -9.94977
     51       2.00000          -0.333922           -9.08647
     52       2.00000          -0.333600           -9.07771
     53       2.00000          -0.332663           -9.05221
     54       2.00000          -0.331063           -9.00869
     55       2.00000          -0.326321           -8.87965
     56       2.00000          -0.323158           -8.79359
     57       2.00000          -0.322151           -8.76617
     58       2.00000          -0.322144           -8.76599
     59       2.00000          -0.319207           -8.68607
     60       2.00000          -0.318805           -8.67511
     61       0.00000          -0.149006           -4.05466
     62       0.00000          -0.108433           -2.95061
     63       0.00000          -0.071697           -1.95096
     64       0.00000          -0.041756           -1.13623
     65       0.00000          -0.036381           -0.98998
     66       0.00000          -0.018174           -0.49455
     67       0.00000          -0.017208           -0.46827
     68       0.00000           0.021202            0.57692
     69       0.00000           0.030338            0.82553
     70       0.00000           0.060436            1.64454
     71       0.00000           0.060701            1.65176
     72       0.00000           0.105223            2.86325
     73       0.00000           0.134144            3.65026
     74       0.00000           0.143966            3.91753
     75       0.00000           0.165844            4.51286
     76       0.00000           0.171280            4.66076
     77       0.00000           0.173742            4.72776
     78       0.00000           0.180470            4.91083
     79       0.00000           0.193513            5.26577
     80       0.00000           0.194823            5.30139
     81       0.00000           0.201081            5.47170
     82       0.00000           0.208831            5.68257
     83       0.00000           0.218481            5.94518
     84       0.00000           0.226002            6.14983
     85       0.00000           0.238534            6.49084
     86       0.00000           0.247665            6.73931
     87       0.00000           0.252414            6.86853
     88       0.00000           0.252769            6.87819
     89       0.00000           0.263614            7.17330
     90       0.00000           0.271772            7.39528
     91       0.00000           0.295290            8.03524
     92       0.00000           0.305863            8.32295
     93       0.00000           0.321199            8.74028
     94       0.00000           0.360081            9.79830
     95       0.00000           0.365319            9.94084
     96       0.00000           0.372498           10.13619

  Highest occupied state (VBM) at     -8.67511457 eV
  | Occupation number:      2.00000000

  Lowest unoccupied state (CBM) at    -4.05465937 eV
  | Occupation number:      0.00000000

  Overall HOMO-LUMO gap:      4.62045520 eV.

  Total energy components:
  | Sum of eigenvalues            :        -882.34850944 Ha      -24009.92455346 eV
  | XC energy correction          :        -145.64175619 Ha       -3963.11382702 eV
  | XC potential correction       :         189.64902294 Ha        5160.61248319 eV
  | Free-atom electrostatic energy:        -781.47928996 Ha      -21265.13343797 eV
  | Hartree energy correction     :          -5.32958505 Ha        -145.02538812 eV
  | Entropy correction            :           0.00000000 Ha           0.00000000 eV
  | ---------------------------
  | Total energy                  :       -1625.15011772 Ha      -44222.58472339 eV
  | Total energy, T -> 0          :       -1625.15011772 Ha      -44222.58472339 eV  <-- do not rely on this value for anything but (periodic) metals
  | Electronic free energy        :       -1625.15011772 Ha      -44222.58472339 eV

  Derived energy quantities:
  | Kinetic energy                :        1633.85364924 Ha       44459.41986621 eV
  | Electrostatic energy          :       -3113.36201076 Ha      -84718.89076258 eV
  | Energy correction for multipole
  | error in Hartree potential    :           0.04067285 Ha           1.10676462 eV
  | Sum of eigenvalues per atom                           :       -2000.82704612 eV
  | Total energy (T->0) per atom                          :       -3685.21539362 eV  <-- do not rely on this value for anything but (periodic) metals
  | Electronic free energy per atom                       :       -3685.21539362 eV
  Evaluating new KS density.
  Integration grid: deviation in total charge (<rho> - N_e) =  -1.421085E-14

  Self-consistency convergence accuracy:
  | Change of charge density      :  0.5960E+00
  | Change of sum of eigenvalues  :  0.1394E+03 eV
  | Change of total energy        :  0.5649E+01 eV


------------------------------------------------------------
  End self-consistency iteration #     1       :  max(cpu_time)    wall_clock(cpu1)
  | Time for this iteration                     :        0.078 s           0.078 s
  | Charge density update                       :        0.026 s           0.026 s
  | Density mixing                              :        0.001 s           0.000 s
  | Hartree multipole update                    :        0.001 s           0.002 s
  | Hartree multipole summation                 :        0.017 s           0.016 s
  | Integration                                 :        0.028 s           0.029 s
  | Solution of K.-S. eqns.                     :        0.004 s           0.004 s
  | Total energy evaluation                     :        0.000 s           0.000 s

  Partial memory accounting:
  | Current value for overall tracked memory usage:
  |   Minimum:        0.273 MB (on task 23)
  |   Maximum:        0.292 MB (on task  0)
  |   Average:        0.287 MB
  | Peak value for overall tracked memory usage:
  |   Minimum:        1.291 MB (on task  6 after allocating wave)
  |   Maximum:        1.374 MB (on task  9 after allocating wave)
  |   Average:        1.330 MB
  | Largest tracked array allocation so far:
  |   Minimum:        0.688 MB (gradient_basis_wave on task  6)
  |   Maximum:        0.742 MB (gradient_basis_wave on task  9)
  |   Average:        0.716 MB
  Note:  These values currently only include a subset of arrays which are explicitly tracked.
  The "true" memory usage will be greater.
------------------------------------------------------------

------------------------------------------------------------
          Begin self-consistency iteration #    2

  Date     :  20220517, Time     :  105706.013
------------------------------------------------------------
  Pulay mixing of updated and previous charge densities.
  Renormalizing the density to the exact electron count on the 3D integration grid.
  | Formal number of electrons (from input files) :     120.0000000000
  | Integrated number of electrons on 3D grid     :     120.0000000000
  | Charge integration error                      :       0.0000000000
  | Normalization factor for density and gradient :       1.0000000000

  Evaluating partitioned Hartree potential by multipole expansion.
  | Original multipole sum: apparent total charge =  -0.442759E-15
  | Sum of charges compensated after spline to logarithmic grids =   0.767030E-04
  | Analytical far-field extrapolation by fixed multipoles:
  | Hartree multipole sum: apparent total charge =   0.811725E-15
  Summing up the Hartree potential.
  Time summed over all CPUs for potential: real work        0.380 s, elapsed        0.389 s
  | RMS charge density error from multipole expansion :   0.124095E-01

  Integrating Hamiltonian matrix: batch-based integration.
  Time summed over all CPUs for integration: real work        0.638 s, elapsed        0.671 s

  Updating Kohn-Sham eigenvalues and eigenvectors using ELSI and the ELPA eigensolver.
  Starting ELPA eigensolver
  Finished transformation to standard eigenproblem
  | Time :     0.000 s
  Finished solving standard eigenproblem
  | Time :     0.003 s
  Finished back-transformation of eigenvectors
  | Time :     0.000 s

  Obtaining occupation numbers and chemical potential using ELSI.
  | Chemical potential (Fermi level):    -7.80601205 eV
  Highest occupied state (VBM) at     -9.88132077 eV
  | Occupation number:      2.00000000

  Lowest unoccupied state (CBM) at    -4.26485825 eV
  | Occupation number:      0.00000000

  Overall HOMO-LUMO gap:      5.61646252 eV.

  Checking to see if s.c.f. parameters should be adjusted.

  Total energy components:
  | Sum of eigenvalues            :        -885.47106483 Ha      -24094.89360861 eV
  | XC energy correction          :        -145.14600178 Ha       -3949.62366302 eV
  | XC potential correction       :         188.99676136 Ha        5142.86354258 eV
  | Free-atom electrostatic energy:        -781.47928996 Ha      -21265.13343797 eV
  | Hartree energy correction     :          -1.98530107 Ha         -54.02279074 eV
  | Entropy correction            :           0.00000000 Ha           0.00000000 eV
  | ---------------------------
  | Total energy                  :       -1625.08489628 Ha      -44220.80995776 eV
  | Total energy, T -> 0          :       -1625.08489628 Ha      -44220.80995776 eV  <-- do not rely on this value for anything but (periodic) metals
  | Electronic free energy        :       -1625.08489628 Ha      -44220.80995776 eV

  Derived energy quantities:
  | Kinetic energy                :        1629.97786531 Ha       44353.95441946 eV
  | Electrostatic energy          :       -3109.91675981 Ha      -84625.14071420 eV
  | Energy correction for multipole
  | error in Hartree potential    :           0.04468108 Ha           1.21583410 eV
  | Sum of eigenvalues per atom                           :       -2007.90780072 eV
  | Total energy (T->0) per atom                          :       -3685.06749648 eV  <-- do not rely on this value for anything but (periodic) metals
  | Electronic free energy per atom                       :       -3685.06749648 eV
  Evaluating new KS density.
  Integration grid: deviation in total charge (<rho> - N_e) =  -1.421085E-14

  Self-consistency convergence accuracy:
  | Change of charge density      :  0.4791E+00
  | Change of sum of eigenvalues  : -0.8497E+02 eV
  | Change of total energy        :  0.1775E+01 eV


------------------------------------------------------------
  End self-consistency iteration #     2       :  max(cpu_time)    wall_clock(cpu1)
  | Time for this iteration                     :        0.081 s           0.079 s
  | Charge density update                       :        0.026 s           0.026 s
  | Density mixing                              :        0.005 s           0.002 s
  | Hartree multipole update                    :        0.001 s           0.002 s
  | Hartree multipole summation                 :        0.016 s           0.016 s
  | Integration                                 :        0.028 s           0.028 s
  | Solution of K.-S. eqns.                     :        0.004 s           0.005 s
  | Total energy evaluation                     :        0.000 s           0.000 s

  Partial memory accounting:
  | Current value for overall tracked memory usage:
  |   Minimum:        0.274 MB (on task 23)
  |   Maximum:        0.293 MB (on task  0)
  |   Average:        0.288 MB
  | Peak value for overall tracked memory usage:
  |   Minimum:        1.291 MB (on task  6 after allocating wave)
  |   Maximum:        1.374 MB (on task  9 after allocating wave)
  |   Average:        1.330 MB
  | Largest tracked array allocation so far:
  |   Minimum:        0.688 MB (gradient_basis_wave on task  6)
  |   Maximum:        0.742 MB (gradient_basis_wave on task  9)
  |   Average:        0.716 MB
  Note:  These values currently only include a subset of arrays which are explicitly tracked.
  The "true" memory usage will be greater.
------------------------------------------------------------

------------------------------------------------------------
          Begin self-consistency iteration #    3

  Date     :  20220517, Time     :  105706.098
------------------------------------------------------------
  Pulay mixing of updated and previous charge densities.
  Renormalizing the density to the exact electron count on the 3D integration grid.
  | Formal number of electrons (from input files) :     120.0000000000
  | Integrated number of electrons on 3D grid     :     120.0000000000
  | Charge integration error                      :       0.0000000000
  | Normalization factor for density and gradient :       1.0000000000

  Evaluating partitioned Hartree potential by multipole expansion.
  | Original multipole sum: apparent total charge =   0.189403E-13
  | Sum of charges compensated after spline to logarithmic grids =   0.100563E-03
  | Analytical far-field extrapolation by fixed multipoles:
  | Hartree multipole sum: apparent total charge =   0.209573E-13
  Summing up the Hartree potential.
  Time summed over all CPUs for potential: real work        0.380 s, elapsed        0.389 s
  | RMS charge density error from multipole expansion :   0.171700E-01

  Integrating Hamiltonian matrix: batch-based integration.
  Time summed over all CPUs for integration: real work        0.638 s, elapsed        0.671 s

  Updating Kohn-Sham eigenvalues and eigenvectors using ELSI and the ELPA eigensolver.
  Starting ELPA eigensolver
  Finished transformation to standard eigenproblem
  | Time :     0.000 s
  Finished solving standard eigenproblem
  | Time :     0.003 s
  Finished back-transformation of eigenvectors
  | Time :     0.000 s

  Obtaining occupation numbers and chemical potential using ELSI.
  | Chemical potential (Fermi level):    -7.96658328 eV
  Highest occupied state (VBM) at     -9.58481297 eV
  | Occupation number:      2.00000000

  Lowest unoccupied state (CBM) at    -4.48092926 eV
  | Occupation number:      0.00000000

  Overall HOMO-LUMO gap:      5.10388372 eV.

  Total energy components:
  | Sum of eigenvalues            :        -886.48757411 Ha      -24122.55423367 eV
  | XC energy correction          :        -145.10981402 Ha       -3948.63894389 eV
  | XC potential correction       :         188.94789183 Ha        5141.53373517 eV
  | Free-atom electrostatic energy:        -781.47928996 Ha      -21265.13343797 eV
  | Hartree energy correction     :          -0.95555185 Ha         -26.00188883 eV
  | Entropy correction            :           0.00000000 Ha           0.00000000 eV
  | ---------------------------
  | Total energy                  :       -1625.08433811 Ha      -44220.79476919 eV
  | Total energy, T -> 0          :       -1625.08433811 Ha      -44220.79476919 eV  <-- do not rely on this value for anything but (periodic) metals
  | Electronic free energy        :       -1625.08433811 Ha      -44220.79476919 eV

  Derived energy quantities:
  | Kinetic energy                :        1628.23777937 Ha       44306.60427185 eV
  | Electrostatic energy          :       -3108.21230346 Ha      -84578.76009714 eV
  | Energy correction for multipole
  | error in Hartree potential    :           0.06038229 Ha           1.64308568 eV
  | Sum of eigenvalues per atom                           :       -2010.21285281 eV
  | Total energy (T->0) per atom                          :       -3685.06623077 eV  <-- do not rely on this value for anything but (periodic) metals
  | Electronic free energy per atom                       :       -3685.06623077 eV
  Evaluating new KS density.
  Integration grid: deviation in total charge (<rho> - N_e) =   2.842171E-14

  Self-consistency convergence accuracy:
  | Change of charge density      :  0.1246E+00
  | Change of sum of eigenvalues  : -0.2766E+02 eV
  | Change of total energy        :  0.1519E-01 eV


------------------------------------------------------------
  End self-consistency iteration #     3       :  max(cpu_time)    wall_clock(cpu1)
  | Time for this iteration                     :        0.080 s           0.078 s
  | Charge density update                       :        0.026 s           0.026 s
  | Density mixing                              :        0.004 s           0.002 s
  | Hartree multipole update                    :        0.001 s           0.001 s
  | Hartree multipole summation                 :        0.016 s           0.016 s
  | Integration                                 :        0.028 s           0.029 s
  | Solution of K.-S. eqns.                     :        0.004 s           0.004 s
  | Total energy evaluation                     :        0.000 s           0.000 s

  Partial memory accounting:
  | Current value for overall tracked memory usage:
  |   Minimum:        0.274 MB (on task 23)
  |   Maximum:        0.293 MB (on task  0)
  |   Average:        0.288 MB
  | Peak value for overall tracked memory usage:
  |   Minimum:        1.291 MB (on task  6 after allocating wave)
  |   Maximum:        1.374 MB (on task  9 after allocating wave)
  |   Average:        1.330 MB
  | Largest tracked array allocation so far:
  |   Minimum:        0.688 MB (gradient_basis_wave on task  6)
  |   Maximum:        0.742 MB (gradient_basis_wave on task  9)
  |   Average:        0.716 MB
  Note:  These values currently only include a subset of arrays which are explicitly tracked.
  The "true" memory usage will be greater.
------------------------------------------------------------

------------------------------------------------------------
          Begin self-consistency iteration #    4

  Date     :  20220517, Time     :  105706.182
------------------------------------------------------------
  Pulay mixing of updated and previous charge densities.
  Renormalizing the density to the exact electron count on the 3D integration grid.
  | Formal number of electrons (from input files) :     120.0000000000
  | Integrated number of electrons on 3D grid     :     120.0000000000
  | Charge integration error                      :       0.0000000000
  | Normalization factor for density and gradient :       1.0000000000

  Evaluating partitioned Hartree potential by multipole expansion.
  | Original multipole sum: apparent total charge =   0.443743E-13
  | Sum of charges compensated after spline to logarithmic grids =   0.109239E-03
  | Analytical far-field extrapolation by fixed multipoles:
  | Hartree multipole sum: apparent total charge =   0.454566E-13
  Summing up the Hartree potential.
  Time summed over all CPUs for potential: real work        0.380 s, elapsed        0.389 s
  | RMS charge density error from multipole expansion :   0.190885E-01

  Integrating Hamiltonian matrix: batch-based integration.
  Time summed over all CPUs for integration: real work        0.638 s, elapsed        0.671 s

  Updating Kohn-Sham eigenvalues and eigenvectors using ELSI and the ELPA eigensolver.
  Starting ELPA eigensolver
  Finished transformation to standard eigenproblem
  | Time :     0.009 s
  Finished solving standard eigenproblem
  | Time :     0.012 s
  Finished back-transformation of eigenvectors
  | Time :     0.002 s

  Obtaining occupation numbers and chemical potential using ELSI.
  | Chemical potential (Fermi level):    -7.93844269 eV
  Highest occupied state (VBM) at     -9.71887588 eV
  | Occupation number:      2.00000000

  Lowest unoccupied state (CBM) at    -4.43090963 eV
  | Occupation number:      0.00000000

  Overall HOMO-LUMO gap:      5.28796625 eV.

  Total energy components:
  | Sum of eigenvalues            :        -886.61061746 Ha      -24125.90241357 eV
  | XC energy correction          :        -145.09480536 Ha       -3948.23053761 eV
  | XC potential correction       :         188.92752155 Ha        5140.97943143 eV
  | Free-atom electrostatic energy:        -781.47928996 Ha      -21265.13343797 eV
  | Hartree energy correction     :          -0.82503505 Ha         -22.45034608 eV
  | Entropy correction            :           0.00000000 Ha           0.00000000 eV
  | ---------------------------
  | Total energy                  :       -1625.08222629 Ha      -44220.73730380 eV
  | Total energy, T -> 0          :       -1625.08222629 Ha      -44220.73730380 eV  <-- do not rely on this value for anything but (periodic) metals
  | Electronic free energy        :       -1625.08222629 Ha      -44220.73730380 eV

  Derived energy quantities:
  | Kinetic energy                :        1627.61731899 Ha       44289.72068578 eV
  | Electrostatic energy          :       -3107.60473992 Ha      -84562.22745197 eV
  | Energy correction for multipole
  | error in Hartree potential    :           0.06624067 Ha           1.80250036 eV
  | Sum of eigenvalues per atom                           :       -2010.49186780 eV
  | Total energy (T->0) per atom                          :       -3685.06144198 eV  <-- do not rely on this value for anything but (periodic) metals
  | Electronic free energy per atom                       :       -3685.06144198 eV
  Evaluating new KS density.
  Integration grid: deviation in total charge (<rho> - N_e) =   2.842171E-14

  Self-consistency convergence accuracy:
  | Change of charge density      :  0.8171E-01
  | Change of sum of eigenvalues  : -0.3348E+01 eV
  | Change of total energy        :  0.5747E-01 eV


------------------------------------------------------------
  End self-consistency iteration #     4       :  max(cpu_time)    wall_clock(cpu1)
  | Time for this iteration                     :        0.102 s           0.100 s
  | Charge density update                       :        0.027 s           0.026 s
  | Density mixing                              :        0.004 s           0.001 s
  | Hartree multipole update                    :        0.001 s           0.001 s
  | Hartree multipole summation                 :        0.017 s           0.016 s
  | Integration                                 :        0.028 s           0.029 s
  | Solution of K.-S. eqns.                     :        0.025 s           0.025 s
  | Total energy evaluation                     :        0.000 s           0.001 s

  Partial memory accounting:
  | Current value for overall tracked memory usage:
  |   Minimum:        0.274 MB (on task 23)
  |   Maximum:        0.293 MB (on task  0)
  |   Average:        0.288 MB
  | Peak value for overall tracked memory usage:
  |   Minimum:        1.291 MB (on task  6 after allocating wave)
  |   Maximum:        1.374 MB (on task  9 after allocating wave)
  |   Average:        1.330 MB
  | Largest tracked array allocation so far:
  |   Minimum:        0.688 MB (gradient_basis_wave on task  6)
  |   Maximum:        0.742 MB (gradient_basis_wave on task  9)
  |   Average:        0.716 MB
  Note:  These values currently only include a subset of arrays which are explicitly tracked.
  The "true" memory usage will be greater.
------------------------------------------------------------

------------------------------------------------------------
          Begin self-consistency iteration #    5

  Date     :  20220517, Time     :  105706.290
------------------------------------------------------------
  Pulay mixing of updated and previous charge densities.
  Renormalizing the density to the exact electron count on the 3D integration grid.
  | Formal number of electrons (from input files) :     120.0000000000
  | Integrated number of electrons on 3D grid     :     120.0000000000
  | Charge integration error                      :       0.0000000000
  | Normalization factor for density and gradient :       1.0000000000

  Evaluating partitioned Hartree potential by multipole expansion.
  | Original multipole sum: apparent total charge =   0.625766E-13
  | Sum of charges compensated after spline to logarithmic grids =   0.109562E-03
  | Analytical far-field extrapolation by fixed multipoles:
  | Hartree multipole sum: apparent total charge =   0.599201E-13
  Summing up the Hartree potential.
  Time summed over all CPUs for potential: real work        0.380 s, elapsed        0.389 s
  | RMS charge density error from multipole expansion :   0.188638E-01

  Integrating Hamiltonian matrix: batch-based integration.
  Time summed over all CPUs for integration: real work        0.639 s, elapsed        0.697 s

  Updating Kohn-Sham eigenvalues and eigenvectors using ELSI and the ELPA eigensolver.
  Starting ELPA eigensolver
  Finished transformation to standard eigenproblem
  | Time :     0.002 s
  Finished solving standard eigenproblem
  | Time :     0.009 s
  Finished back-transformation of eigenvectors
  | Time :     0.002 s

  Obtaining occupation numbers and chemical potential using ELSI.
  | Chemical potential (Fermi level):    -7.89395237 eV
  Highest occupied state (VBM) at     -9.76995156 eV
  | Occupation number:      2.00000000

  Lowest unoccupied state (CBM) at    -4.37280549 eV
  | Occupation number:      0.00000000

  Overall HOMO-LUMO gap:      5.39714607 eV.

  Total energy components:
  | Sum of eigenvalues            :        -886.41285930 Ha      -24120.52114024 eV
  | XC energy correction          :        -145.09033867 Ha       -3948.10899282 eV
  | XC potential correction       :         188.92184568 Ha        5140.82498324 eV
  | Free-atom electrostatic energy:        -781.47928996 Ha      -21265.13343797 eV
  | Hartree energy correction     :          -1.02144532 Ha         -27.79494128 eV
  | Entropy correction            :           0.00000000 Ha           0.00000000 eV
[...]
   Total forces(   7)            :  0.112630E+01 -0.187856E+01 -0.872456E+00
  atom #    8
   Hellmann-Feynman              :  0.238935E+01  0.224529E+01 -0.433057E+00
   Ionic forces                  :  0.000000E+00  0.000000E+00  0.000000E+00
   Multipole                     :  0.418500E+00  0.393499E+00 -0.759597E-01
   Hartree pot. SCF incomplete   : -0.203568E-06 -0.187547E-06  0.399787E-07
   Pulay + GGA                   : -0.519213E+01 -0.487703E+01  0.940513E+00
   ----------------------------------------------------------------
   Total forces(   8)            : -0.238428E+01 -0.223825E+01  0.431497E+00
  atom #    9
   Hellmann-Feynman              :  0.468817E+00 -0.970236E+00  0.193636E+00
   Ionic forces                  :  0.000000E+00  0.000000E+00  0.000000E+00
   Multipole                     :  0.247901E+00 -0.397516E+00 -0.300273E+00
   Hartree pot. SCF incomplete   : -0.602437E-06 -0.775263E-06 -0.144975E-05
   Pulay + GGA                   : -0.206524E+01  0.328748E+01  0.660285E+00
   ----------------------------------------------------------------
   Total forces(   9)            : -0.134852E+01  0.191972E+01  0.553646E+00
  atom #   10
   Hellmann-Feynman              : -0.968259E+00  0.500498E+00 -0.103755E+00
   Ionic forces                  :  0.000000E+00  0.000000E+00  0.000000E+00
   Multipole                     : -0.322620E+00  0.327718E+00  0.313826E+00
   Hartree pot. SCF incomplete   : -0.509635E-06 -0.272205E-06  0.164775E-05
   Pulay + GGA                   :  0.300843E+01 -0.240085E+01 -0.831772E+00
   ----------------------------------------------------------------
   Total forces(  10)            :  0.171755E+01 -0.157264E+01 -0.621699E+00
  atom #   11
   Hellmann-Feynman              :  0.180795E+01  0.125396E+01  0.199226E+01
   Ionic forces                  :  0.000000E+00  0.000000E+00  0.000000E+00
   Multipole                     :  0.468005E+00  0.367086E+00  0.452835E+00
   Hartree pot. SCF incomplete   :  0.517789E-06  0.712257E-06 -0.261942E-06
   Pulay + GGA                   : -0.432271E+01 -0.298516E+01 -0.486066E+01
   ----------------------------------------------------------------
   Total forces(  11)            : -0.204675E+01 -0.136410E+01 -0.241556E+01
  atom #   12
   Hellmann-Feynman              : -0.194595E+01 -0.230727E+01  0.334514E+00
   Ionic forces                  :  0.000000E+00  0.000000E+00  0.000000E+00
   Multipole                     : -0.473715E+00 -0.527600E+00  0.330857E-01
   Hartree pot. SCF incomplete   : -0.360587E-06 -0.418721E-06 -0.852344E-07
   Pulay + GGA                   :  0.447920E+01  0.538917E+01 -0.989669E+00
   ----------------------------------------------------------------
   Total forces(  12)            :  0.205953E+01  0.255430E+01 -0.622069E+00


  Self-consistency convergence accuracy:
  | Change of charge density      :  0.1027E-06
  | Change of sum of eigenvalues  : -0.3363E-05 eV
  | Change of total energy        : -0.1701E-08 eV
  | Change of forces              :  0.3386E-06 eV/A

  Writing Kohn-Sham eigenvalues.

  State    Occupation    Eigenvalue [Ha]    Eigenvalue [eV]
      1       2.00000         -55.643991        -1514.15003
      2       2.00000         -55.624778        -1513.62721
      3       2.00000         -55.624762        -1513.62678
      4       2.00000         -24.308559         -661.46955
      5       2.00000         -24.308558         -661.46953
      6       2.00000         -24.302877         -661.31492
      7       2.00000         -24.302876         -661.31491
      8       2.00000         -24.213301         -658.87745
      9       2.00000         -24.213297         -658.87732
     10       2.00000         -24.211220         -658.82083
     11       2.00000         -24.211219         -658.82078
     12       2.00000         -24.208794         -658.75480
     13       2.00000          -4.096089         -111.46025
     14       2.00000          -4.077367         -110.95080
     15       2.00000          -4.077356         -110.95049
     16       2.00000          -2.689179          -73.17629
     17       2.00000          -2.687305          -73.12529
     18       2.00000          -2.686430          -73.10147
     19       2.00000          -2.671136          -72.68532
     20       2.00000          -2.671125          -72.68500
     21       2.00000          -2.669677          -72.64561
     22       2.00000          -2.669665          -72.64529
     23       2.00000          -2.665945          -72.54406
     24       2.00000          -2.665933          -72.54374
     25       2.00000          -1.183726          -32.21083
     26       2.00000          -1.173765          -31.93977
     27       2.00000          -1.166884          -31.75252
     28       2.00000          -1.159253          -31.54487
     29       2.00000          -1.060422          -28.85556
     30       2.00000          -1.060391          -28.85470
     31       2.00000          -1.056164          -28.73969
     32       2.00000          -1.055995          -28.73508
     33       2.00000          -1.055989          -28.73493
     34       2.00000          -0.564334          -15.35630
     35       2.00000          -0.551522          -15.00767
     36       2.00000          -0.541691          -14.74016
     37       2.00000          -0.533437          -14.51556
     38       2.00000          -0.507644          -13.81371
     39       2.00000          -0.494215          -13.44828
     40       2.00000          -0.486290          -13.23262
     41       2.00000          -0.473522          -12.88519
     42       2.00000          -0.469269          -12.76947
     43       2.00000          -0.466951          -12.70639
     44       2.00000          -0.463169          -12.60346
     45       2.00000          -0.450390          -12.25574
     46       2.00000          -0.432106          -11.75821
     47       2.00000          -0.427757          -11.63985
     48       2.00000          -0.412545          -11.22591
     49       2.00000          -0.405792          -11.04216
     50       2.00000          -0.405613          -11.03729
     51       2.00000          -0.370228          -10.07442
     52       2.00000          -0.369965          -10.06725
     53       2.00000          -0.368930          -10.03910
     54       2.00000          -0.367873          -10.01034
     55       2.00000          -0.362776           -9.87163
     56       2.00000          -0.361661           -9.84131
     57       2.00000          -0.361429           -9.83498
     58       2.00000          -0.359378           -9.77918
     59       2.00000          -0.358524           -9.75592
     60       2.00000          -0.358213           -9.74747
     61       0.00000          -0.160795           -4.37545
     62       0.00000          -0.120683           -3.28395
     63       0.00000          -0.082027           -2.23207
     64       0.00000          -0.047326           -1.28780
     65       0.00000          -0.039963           -1.08745
     66       0.00000          -0.023757           -0.64645
     67       0.00000          -0.020354           -0.55387
     68       0.00000           0.015709            0.42746
     69       0.00000           0.025389            0.69086
     70       0.00000           0.054896            1.49379
     71       0.00000           0.056274            1.53130
     72       0.00000           0.100404            2.73214
     73       0.00000           0.127196            3.46119
     74       0.00000           0.142417            3.87536
     75       0.00000           0.160114            4.35693
     76       0.00000           0.166191            4.52228
     77       0.00000           0.166293            4.52506
     78       0.00000           0.174735            4.75479
     79       0.00000           0.185368            5.04411
     80       0.00000           0.188689            5.13448
     81       0.00000           0.196250            5.34023
     82       0.00000           0.204807            5.57308
     83       0.00000           0.213321            5.80476
     84       0.00000           0.218646            5.94965
     85       0.00000           0.232977            6.33962
     86       0.00000           0.243126            6.61580
     87       0.00000           0.247597            6.73747
     88       0.00000           0.249099            6.77833
     89       0.00000           0.257865            7.01687
     90       0.00000           0.268670            7.31089
     91       0.00000           0.288835            7.85961
     92       0.00000           0.301281            8.19826
     93       0.00000           0.317163            8.63044
     94       0.00000           0.351226            9.55735
     95       0.00000           0.358415            9.75296
     96       0.00000           0.366188            9.96447

  Highest occupied state (VBM) at     -9.74747145 eV
  | Occupation number:      2.00000000

  Lowest unoccupied state (CBM) at    -4.37544738 eV
  | Occupation number:      0.00000000

  Overall HOMO-LUMO gap:      5.37202407 eV.
  | Chemical Potential                          :    -7.89624611 eV

  Self-consistency cycle converged.


------------------------------------------------------------
  End self-consistency iteration #    14       :  max(cpu_time)    wall_clock(cpu1)
  | Time for this iteration                     :        0.258 s           0.257 s
  | Charge density & force component update     :        0.137 s           0.137 s
  | Density mixing                              :        0.005 s           0.003 s
  | Hartree multipole update                    :        0.001 s           0.001 s
  | Hartree multipole summation                 :        0.049 s           0.050 s
  | Hartree pot. SCF incomplete forces          :        0.033 s           0.033 s
  | Integration                                 :        0.028 s           0.028 s
  | Solution of K.-S. eqns.                     :        0.004 s           0.004 s
  | Total energy evaluation                     :        0.000 s           0.000 s

  Partial memory accounting:
  | Current value for overall tracked memory usage:
  |   Minimum:        0.274 MB (on task 23)
  |   Maximum:        0.293 MB (on task  0)
  |   Average:        0.289 MB
  | Peak value for overall tracked memory usage:
  |   Minimum:        2.853 MB (on task  6 after allocating hessian_basis_wave)
  |   Maximum:        3.031 MB (on task  9 after allocating hessian_basis_wave)
  |   Average:        2.943 MB
  | Largest tracked array allocation so far:
  |   Minimum:        1.376 MB (hessian_basis_wave on task  6)
  |   Maximum:        1.483 MB (hessian_basis_wave on task  9)
  |   Average:        1.433 MB
  Note:  These values currently only include a subset of arrays which are explicitly tracked.
  The "true" memory usage will be greater.
------------------------------------------------------------
  Removing unitary transformations (pure translations, rotations) from forces on atoms.
  Atomic forces before filtering:
  | Net force on center of mass :  -0.233204E-02 -0.165142E-02 -0.334800E-02 eV/A
  | Net torque on center of mass:   0.479001E-02  0.667978E-02  0.482271E-02 eV
  Atomic forces after filtering:
  | Net force on center of mass :  -0.356812E-15 -0.713624E-15 -0.981234E-15 eV/A
  | Net torque on center of mass:  -0.151054E-14  0.155774E-14 -0.755268E-15 eV

  Energy and forces in a compact form:
  | Total energy uncorrected      :         -0.442207333176147E+05 eV
  | Total energy corrected        :         -0.442207333176147E+05 eV  <-- do not rely on this value for anything but (periodic) metals
  | Electronic free energy        :         -0.442207333176147E+05 eV
  Total atomic forces (unitary forces cleaned) [eV/Ang]:
  |    1          0.344416255049627E-01         -0.945792138312146E+00          0.243089794268031E+01
  |    2          0.211122828912449E+01          0.198556081355517E+01         -0.382507531147012E+00
  |    3         -0.138620858000981E+01         -0.324404792433965E+00         -0.218652758171917E+01
  |    4          0.271373418077715E+01          0.193046352864423E+01         -0.242327947274224E+00
  |    5         -0.162724885982537E+01          0.140621677812419E+01          0.964534744049817E+00
  |    6         -0.970764342033572E+00         -0.147359097025631E+01          0.296088376469181E+01
  |    7          0.112680254626189E+01         -0.187832966775701E+01         -0.872399195387745E+00
  |    8         -0.238374820744079E+01         -0.223848149351583E+01          0.431707820225092E+00
  |    9         -0.134836354454250E+01          0.191962133143877E+01          0.554035145485037E+00
  |   10          0.171776502711649E+01         -0.157224655011667E+01         -0.621527612661979E+00
  |   11         -0.204679808576558E+01         -0.136386169446016E+01         -0.241517286816090E+01
  |   12          0.205915995083263E+01          0.255484485508973E+01         -0.621596680781036E+00

  ------------------------------------ 
  Start decomposition of the XC Energy 
  ------------------------------------ 
  X and C from original XC functional choice 
  Hartree-Fock Energy :          0.000000000 Ha              0.000000000 eV
  X Energy            :       -140.155761103 Ha          -3813.832305255 eV
  C Energy            :         -4.938956320 Ha           -134.395839456 eV
  Total XC Energy     :       -145.094717423 Ha          -3948.228144711 eV
  ------------------------------------ 
  LDA X and C from self-consistent density 
  X Energy LDA        :       -132.726481514 Ha          -3611.671321805 eV
  C Energy LDA        :         -8.821732305 Ha           -240.051549703 eV
  ------------------------------------ 
  End decomposition of the XC Energy 
  ------------------------------------ 

------------------------------------------------------------

------------------------------------------------------------------------------
  Final output of selected total energy values:

  The following output summarizes some interesting total energy values
  at the end of a run (AFTER all relaxation, molecular dynamics, etc.).

  | Total energy of the DFT / Hartree-Fock s.c.f. calculation      :         -44220.733317615 eV
  | Final zero-broadening corrected energy (caution - metals only) :         -44220.733317615 eV
  | For reference only, the value of 1 Hartree used in FHI-aims is :             27.211384500 eV

  Before relying on these values, please be sure to understand exactly which
  total energy value is referred to by a given number. Different objects may
  all carry the same name 'total energy'. Definitions:

  Total energy of the DFT / Hartree-Fock s.c.f. calculation:
  | Note that this energy does not include ANY quantities calculated after the
  | s.c.f. cycle, in particular not ANY RPA, MP2, etc. many-body perturbation terms.

  Final zero-broadening corrected energy:
  | For metallic systems only, a broadening of the occupation numbers at the Fermi
  | level can be extrapolated back to zero broadening by an electron-gas inspired
  | formula. For all systems that are not real metals, this value can be
  | meaningless and should be avoided.

------------------------------------------------------------------------------
  Methods described in the following list of references were used in this FHI-aims run.
  If you publish the results, please make sure to cite these reference if they apply.
  FHI-aims is an academic code, and for our developers (often, Ph.D. students
  and postdocs), scientific credit in the community is essential.
  Thank you for helping us!

  For any use of FHI-aims, please cite:

    Volker Blum, Ralf Gehrke, Felix Hanke, Paula Havu, Ville Havu,
    Xinguo Ren, Karsten Reuter, and Matthias Scheffler
    'Ab initio molecular simulations with numeric atom-centered orbitals'
    Computer Physics Communications 180, 2175-2196 (2009)
    http://dx.doi.org/10.1016/j.cpc.2009.06.022


  The ELSI infrastructure was used in your run to solve the Kohn-Sham electronic structure.
  Please check out http://elsi-interchange.org to learn more.
  If scalability is important for your project, please acknowledge ELSI by citing:

    V. W-z. Yu, F. Corsetti, A. Garcia, W. P. Huhn, M. Jacquelin, W. Jia,
    B. Lange, L. Lin, J. Lu, W. Mi, A. Seifitokaldani, A. Vazquez-Mayagoitia,
    C. Yang, H. Yang, and V. Blum
    'ELSI: A unified software interface for Kohn-Sham electronic structure solvers'
    Computer Physics Communications 222, 267-285 (2018).
    http://dx.doi.org/10.1016/j.cpc.2017.09.007


  For the real-space grid partitioning and parallelization used in this calculation, please cite:

    Ville Havu, Volker Blum, Paula Havu, and Matthias Scheffler,
    'Efficient O(N) integration for all-electron electronic structure calculation'
    'using numerically tabulated basis functions'
    Journal of Computational Physics 228, 8367-8379 (2009).
    http://dx.doi.org/10.1016/j.jcp.2009.08.008

  Of course, there are many other important community references, e.g., those cited in the
  above references. Our list is limited to references that describe implementations in the
  FHI-aims code. The reason is purely practical (length of this list) - please credit others as well.

------------------------------------------------------------
          Leaving FHI-aims.
          Date     :  20220517, Time     :  105707.563

          Computational steps:
          | Number of self-consistency cycles          :           14
          | Number of SCF (re)initializations          :            1

          Detailed time accounting                     :  max(cpu_time)    wall_clock(cpu1)
          | Total time                                  :        1.935 s           2.002 s
          | Preparation time                            :        0.184 s           0.185 s
          | Boundary condition initalization            :        0.000 s           0.000 s
          | Grid partitioning                           :        0.034 s           0.034 s
          | Preloading free-atom quantities on grid     :        0.015 s           0.015 s
          | Free-atom superposition energy              :        0.005 s           0.004 s
          | Total time for integrations                 :        0.447 s           0.448 s
          | Total time for solution of K.-S. equations  :        0.118 s           0.118 s
          | Total time for density & force components   :        0.615 s           0.614 s
          | Total time for mixing                       :        0.069 s           0.030 s
          | Total time for Hartree multipole update     :        0.025 s           0.028 s
          | Total time for Hartree multipole sum        :        0.301 s           0.299 s
          | Total time for total energy evaluation      :        0.003 s           0.004 s
          | Total time NSC force correction             :        0.066 s           0.066 s
          | Total time for scaled ZORA corrections      :        0.000 s           0.000 s

          Partial memory accounting:
          | Residual value for overall tracked memory usage across tasks:     0.000000 MB (should be 0.000000 MB)
          | Peak values for overall tracked memory usage:
          |   Minimum:        2.853 MB (on task  6 after allocating hessian_basis_wave)
          |   Maximum:        3.031 MB (on task  9 after allocating hessian_basis_wave)
          |   Average:        2.943 MB
          | Largest tracked array allocation:
          |   Minimum:        1.376 MB (hessian_basis_wave on task  6)
          |   Maximum:        1.483 MB (hessian_basis_wave on task  9)
          |   Average:        1.433 MB
          Note:  These values currently only include a subset of arrays which are explicitly tracked.
          The "true" memory usage will be greater.

          Have a nice day.
------------------------------------------------------------
