********************************************************************************
*                       GENERAL UTILITY LATTICE PROGRAM                        *
*                                 Julian Gale                                  *
*                       Curtin Institute for Computation                       *
*                           Department of Chemistry                            *
*                    Curtin University, Western Australia                      *
********************************************************************************
* Version = 5.1.1 * Last modified =  24th November 2018                        *
********************************************************************************
*  optimise     - perform optimisation run                                     *
*  conp         - constant pressure calculation                                *
*  shell        - only shells and radii to be optimised                        *
*  phonon       - calculate phonons for final geometry                         *
*  eigenvectors - output phonon eigenvectors                                   *
********************************************************************************

  Job Started  at 14:38.41 25th May        2022                               

  Number of CPUs =     1

  Host name      = login03                                 


  Total number of configurations input =      1

********************************************************************************
*  Input for Configuration =   1                                               *
********************************************************************************

  Formula = Al3F9                                                       

  Number of irreducible atoms/shells =      21


  Total number atoms/shells =      21

  Dimensionality = 0               :  Cluster


  Charge on cluster =  -0.000000


  Initial cluster dipoles : x =      0.658415 e.Angs
                            y =     -1.228353 e.Angs
                            z =     -0.424063 e.Angs

  Temperature of configuration =  0.000     K 

  Symmetry number =      1

  Cartesian coordinates of cluster :

--------------------------------------------------------------------------------
   No.  Atomic       x           y          z         Charge      Occupancy
        Label      (Angs)      (Angs)     (Angs)        (e)         (Frac)  
--------------------------------------------------------------------------------
      1 Al    c      1.4603     -0.1582      2.3499     3.00000    1.000000    
      2 Al    c      1.1307      1.3596     -0.0059     3.00000    1.000000    
      3 Al    c     -0.1414      0.6286     -2.4162     3.00000    1.000000    
      4 F     c     -1.7784     -0.2441     -2.1617     0.59000    1.000000    
      5 F     c      2.0773     -0.3216      0.5687     0.59000    1.000000    
      6 F     c     -0.0516      1.9387     -3.7442     0.59000    1.000000    
      7 F     c     -0.4250      1.8879     -0.9411     0.59000    1.000000    
      8 F     c      2.6391      2.3612     -0.3475     0.59000    1.000000    
      9 F     c      1.3875      0.0173     -1.4841     0.59000    1.000000    
     10 F     c      0.4859      1.4404      1.7694     0.59000    1.000000    
     11 F     c      2.4427      0.7134      3.6779     0.59000    1.000000    
     12 F     c     -0.0873     -1.0749      2.8703     0.59000    1.000000    
     13 F     s     -1.7784 *   -0.2441 *   -2.1617 *  -1.59000    1.000000    
     14 F     s      2.0773 *   -0.3216 *    0.5687 *  -1.59000    1.000000    
     15 F     s     -0.0516 *    1.9387 *   -3.7442 *  -1.59000    1.000000    
     16 F     s     -0.4250 *    1.8879 *   -0.9411 *  -1.59000    1.000000    
     17 F     s      2.6391 *    2.3612 *   -0.3475 *  -1.59000    1.000000    
     18 F     s      1.3875 *    0.0173 *   -1.4841 *  -1.59000    1.000000    
     19 F     s      0.4859 *    1.4404 *    1.7694 *  -1.59000    1.000000    
     20 F     s      2.4427 *    0.7134 *    3.6779 *  -1.59000    1.000000    
     21 F     s     -0.0873 *   -1.0749 *    2.8703 *  -1.59000    1.000000    
--------------------------------------------------------------------------------


  Brillouin zone sampling points :

--------------------------------------------------------------------------------
  Point number          x          y          z            Weight
--------------------------------------------------------------------------------
        1           0.000000   0.000000   0.000000     1.00000000
--------------------------------------------------------------------------------


********************************************************************************
*  General input information                                                   *
********************************************************************************

  Species output for all configurations : 

--------------------------------------------------------------------------------
  Species    Type    Atomic    Atomic    Charge       Radii (Angs)     Library
                     Number     Mass       (e)     Cova   Ionic  VDW   Symbol
--------------------------------------------------------------------------------
    Al       Core       13      26.98   3.000000   1.350  0.000  2.050          
    F        Core        9      19.00   0.590000   0.710  0.000  1.300          
    F        Shell       9       0.00  -1.590000   0.710  0.000  1.300          
--------------------------------------------------------------------------------


  Accuracy factor for short range sums = 12.000

  Time limit = Infinity

  Maximum range for interatomic potentials =    100000.000000 Angstroms

  General interatomic potentials :

--------------------------------------------------------------------------------
Atom  Types   Potential      Parameter       Value         Units   Cutoffs(Ang)
  1     2                                                            Min /  Max 
--------------------------------------------------------------------------------
Al   c F    s Buckingham    Buckingham A     3760.0008    eV        0.000 10.000
                            Buckingham rho  0.22200000    Ang       
                            Buckingham C     0.0000000    eV*Ang^6  
--------------------------------------------------------------------------------
F    s F    s Buck 4 range  Buck4 A          1127.7000    eV        0.000 12.000
                            Buck4 rho       0.27530000    Ang       
                            Buck4 C          15.830000    eV*Ang^6  
                            Buck4 minimum    2.7900000    Ang       
--------------------------------------------------------------------------------
F    c F    s Spring (c-s)  Spring k 2       20.770000    eV*Ang^-2 0.000  0.800
                            Spring k 4       0.0000000    eV*Ang^-4 
--------------------------------------------------------------------------------

********************************************************************************
*  Output for configuration   1                                                *
********************************************************************************


  Components of energy : 

--------------------------------------------------------------------------------
  Interatomic potentials     =           9.22593085 eV    
  Monopole - monopole (real) =        -174.58831961 eV    
--------------------------------------------------------------------------------
  Total lattice energy       =        -165.36238876 eV    
--------------------------------------------------------------------------------
  Total lattice energy       =          -15954.9427 kJ/mol
--------------------------------------------------------------------------------


  Number of variables =       27

  Maximum number of calculations  =          2000
  Maximum Hessian update interval =            10
  Maximum step size               =   1.000000000
  Maximum parameter tolerance     =   0.000001000
  Maximum function  tolerance     =   0.000010000
  Maximum gradient  tolerance     =   0.000000010
  Maximum gradient  component     =   0.010000000

  Symmetry not applied to optimisation

  Newton-Raphson optimiser to be used

  BFGS hessian update to be used

  Lower half triangular hessian to be used

  Minimiser to switch to RFO
  When gradient norm is less than     0.010000

  Shell only optimisation

  Start of cluster optimisation :

  Cycle:      0 Energy:      -165.362389  Gnorm:      1.513182  CPU:    0.004
  ** Hessian calculated **
  Cycle:      1 Energy:      -184.371102  Gnorm:      0.519102  CPU:    0.006
  ** Hessian calculated **
  Cycle:      2 Energy:      -186.120629  Gnorm:      0.043970  CPU:    0.007
  Cycle:      3 Energy:      -186.131393  Gnorm:      0.007616  CPU:    0.008
  ** Hessian has required structure
  Cycle:      4 Energy:      -186.131411  Gnorm:      0.007523  CPU:    0.010
  ** Hessian has required structure
  Cycle:      5 Energy:      -186.131415  Gnorm:      0.007403  CPU:    0.012
  ** Hessian has required structure
  Cycle:      6 Energy:      -186.131415  Gnorm:      0.007367  CPU:    0.013
  ** Hessian has required structure
  Cycle:      7 Energy:      -186.131417  Gnorm:      0.007342  CPU:    0.014
  ** Hessian has required structure
  Cycle:      8 Energy:      -186.131428  Gnorm:      0.007211  CPU:    0.016
  ** Hessian has required structure
  Cycle:      9 Energy:      -186.131601  Gnorm:      0.004291  CPU:    0.017
  ** Hessian has required structure
  Cycle:     10 Energy:      -186.131729  Gnorm:      0.000898  CPU:    0.018
  ** Hessian has required structure
  Cycle:     11 Energy:      -186.131735  Gnorm:      0.000245  CPU:    0.020
  ** Hessian has required structure
  Cycle:     12 Energy:      -186.131736  Gnorm:      0.000000  CPU:    0.021
  ** Hessian has required structure
  Cycle:     13 Energy:      -186.131736  Gnorm:      0.000000  CPU:    0.023
  ** Hessian has required structure
  Cycle:     14 Energy:      -186.131736  Gnorm:      0.000000  CPU:    0.024
  ** Hessian has required structure
  Cycle:     15 Energy:      -186.131736  Gnorm:      0.000000  CPU:    0.026
  ** Hessian has required structure
  Cycle:     16 Energy:      -186.131736  Gnorm:      0.000000  CPU:    0.027
  ** Hessian calculated **

  XYZ File written as 001/3/sp_mod_-70/sp_mod_-70_eig.xyz



  **** Optimisation achieved ****


  Final energy =    -186.13173582 eV
  Final Gnorm  =       0.00000002

  Components of energy : 

--------------------------------------------------------------------------------
  Interatomic potentials     =          38.57285565 eV    
  Monopole - monopole (real) =        -224.70459146 eV    
--------------------------------------------------------------------------------
  Total lattice energy       =        -186.13173582 eV    
--------------------------------------------------------------------------------
  Total lattice energy       =          -17958.8672 kJ/mol
--------------------------------------------------------------------------------

  Final cartesian coordinates of atoms :

--------------------------------------------------------------------------------
   No.  Atomic        x           y          z          Radius
        Label       (Angs)      (Angs)     (Angs)       (Angs) 
--------------------------------------------------------------------------------
     1  Al    c     1.460284   -0.158248    2.349927    0.000000
     2  Al    c     1.130726    1.359589   -0.005874    0.000000
     3  Al    c    -0.141446    0.628593   -2.416158    0.000000
     4  F     c    -1.778376   -0.244150   -2.161747    0.000000
     5  F     c     2.077336   -0.321606    0.568749    0.000000
     6  F     c    -0.051639    1.938713   -3.744243    0.000000
     7  F     c    -0.424979    1.887863   -0.941059    0.000000
     8  F     c     2.639136    2.361163   -0.347452    0.000000
     9  F     c     1.387452    0.017294   -1.484054    0.000000
    10  F     c     0.485915    1.440391    1.769385    0.000000
    11  F     c     2.442693    0.713387    3.677864    0.000000
    12  F     c    -0.087264   -1.074901    2.870303    0.000000
    13  F     s    -1.484573   -0.140179   -2.215533    0.000000
    14  F     s     1.924000   -0.184170    0.772157    0.000000
    15  F     s    -0.037089    1.693793   -3.544879    0.000000
    16  F     s    -0.198291    1.708238   -0.934512    0.000000
    17  F     s     2.388832    2.216506   -0.287214    0.000000
    18  F     s     1.157963    0.192140   -1.507252    0.000000
    19  F     s     0.646353    1.293310    1.578801    0.000000
    20  F     s     2.313001    0.539324    3.448025    0.000000
    21  F     s     0.190159   -0.962883    2.767776    0.000000
--------------------------------------------------------------------------------


  Final Cartesian derivatives :

--------------------------------------------------------------------------------
   No.  Atomic          x             y             z           Radius
        Label       (eV/Angs)     (eV/Angs)    (eV/Angs)      (eV/Angs)
--------------------------------------------------------------------------------
      1 Al    c       0.000000      0.000000      0.000000      0.000000
      2 Al    c       0.000000      0.000000      0.000000      0.000000
      3 Al    c       0.000000      0.000000      0.000000      0.000000
      4 F     c       0.000000      0.000000      0.000000      0.000000
      5 F     c       0.000000      0.000000      0.000000      0.000000
      6 F     c       0.000000      0.000000      0.000000      0.000000
      7 F     c       0.000000      0.000000      0.000000      0.000000
      8 F     c       0.000000      0.000000      0.000000      0.000000
      9 F     c       0.000000      0.000000      0.000000      0.000000
     10 F     c       0.000000      0.000000      0.000000      0.000000
     11 F     c       0.000000      0.000000      0.000000      0.000000
     12 F     c       0.000000      0.000000      0.000000      0.000000
     13 F     s      -0.000000     -0.000000     -0.000000      0.000000
     14 F     s      -0.000000      0.000000      0.000000      0.000000
     15 F     s      -0.000000     -0.000000     -0.000000      0.000000
     16 F     s       0.000000      0.000000      0.000000      0.000000
     17 F     s      -0.000000     -0.000000      0.000000      0.000000
     18 F     s      -0.000000      0.000000      0.000000      0.000000
     19 F     s       0.000000      0.000000     -0.000000      0.000000
     20 F     s       0.000000     -0.000000      0.000000      0.000000
     21 F     s      -0.000000     -0.000000      0.000000      0.000000
--------------------------------------------------------------------------------
  Maximum abs         0.000000      0.000000      0.000000      0.000000
--------------------------------------------------------------------------------


  Born effective charge tensors : 

-------------------------------------------------------------------------------
  Atom             x           y             z
-------------------------------------------------------------------------------
    1 Al    x       0.8585     -0.4543      0.0061
            y      -0.4471      1.2566     -0.2574
            z       0.0284     -0.3186      0.9892
-------------------------------------------------------------------------------
    2 Al    x       0.7388     -0.3650      0.2512
            y      -0.3834      1.3209      0.0720
            z       0.2481      0.0658      1.5929
-------------------------------------------------------------------------------
    3 Al    x       0.8541     -0.1652      0.0689
            y      -0.1894      0.9891      0.4722
            z       0.0438      0.5277      1.2612
-------------------------------------------------------------------------------
    4 F     x      -0.1484      0.1936     -0.1010
            y       0.2191     -0.3949     -0.0651
            z      -0.0806     -0.0358     -0.5698
-------------------------------------------------------------------------------
    5 F     x      -0.3601      0.1380     -0.1132
            y       0.1153     -0.5110      0.1019
            z      -0.1552      0.1829     -0.2628
-------------------------------------------------------------------------------
    6 F     x      -0.5295      0.0299     -0.0462
            y       0.0141     -0.2627     -0.2461
            z      -0.0579     -0.3097     -0.3107
-------------------------------------------------------------------------------
    7 F     x      -0.1967     -0.0319      0.0256
            y      -0.0039     -0.3598     -0.0912
            z       0.0703     -0.1686     -0.4524
-------------------------------------------------------------------------------
    8 F     x      -0.1592      0.2300     -0.1223
            y       0.2539     -0.3825     -0.0435
            z      -0.1183     -0.0354     -0.6021
-------------------------------------------------------------------------------
    9 F     x      -0.1974     -0.0413      0.0402
            y      -0.0228     -0.3943     -0.1467
            z       0.0815     -0.2291     -0.5422
-------------------------------------------------------------------------------
   10 F     x      -0.3203      0.0981     -0.0810
            y       0.0865     -0.4382      0.0496
            z      -0.1230      0.1325     -0.2502
-------------------------------------------------------------------------------
   11 F     x      -0.3664      0.1698      0.1896
            y       0.1170     -0.4214      0.1828
            z       0.1900      0.2233     -0.3151
-------------------------------------------------------------------------------
   12 F     x      -0.1734      0.1984     -0.1180
            y       0.2409     -0.4019     -0.0285
            z      -0.1271     -0.0350     -0.5378
-------------------------------------------------------------------------------




  Moment of inertia tensor (10^-46 x kgm^2): 

-------------------------------------------------------------------------------
                x           y           z           Principal axis system
-------------------------------------------------------------------------------
       x        242.08       -7.07      -55.23           81.216422
       y         -7.07      262.15       32.24          246.693763
       z        -55.23       32.24      105.10          281.413366
-------------------------------------------------------------------------------
  Centre of mass (Ang) =     0.766867     0.702614     0.007945
-------------------------------------------------------------------------------


  Vibrational Frequency Calculation : 

--------------------------------------------------------------------------------

  Frequencies (cm-1) and Eigenvectors : 

  Frequency      -0.0000    0.0000    0.0000   19.2913   28.1904   58.3104
  IR Intensity    0.0000    0.0000    0.0000    0.0000    0.0002    0.0000
     in X         0.0000    0.0000    0.0000    0.0000    0.0000    0.0000
     in Y         0.0000    0.0000    0.0000    0.0000    0.0000    0.0000
     in Z         0.0000    0.0000    0.0000    0.0000    0.0001    0.0000
  Raman Intsty    0.0000    0.0000    0.0000    0.0000    0.0000    0.0253

     1 x       0.098954 -0.059168  0.306262 -0.327155 -0.146757 -0.121261
     1 y       0.304979  0.085778 -0.081968  0.136531 -0.313700  0.052538
     1 z       0.065458 -0.310210 -0.081080  0.123172 -0.069169  0.031625
     2 x       0.098954 -0.059168  0.306262  0.006364  0.032133  0.220850
     2 y       0.304979  0.085778 -0.081968 -0.003127 -0.015785 -0.096748
     2 z       0.065458 -0.310210 -0.081080  0.018935  0.095617 -0.090193
     3 x       0.098954 -0.059168  0.306262  0.321664  0.107438 -0.110768
     3 y       0.304979  0.085778 -0.081968 -0.133833  0.333015  0.047386
     3 z       0.065458 -0.310210 -0.081080 -0.139510 -0.047828  0.062849
     4 x       0.083040 -0.049653  0.257009  0.292727  0.071366 -0.168180
     4 y       0.255933  0.071983 -0.068786 -0.172211  0.288404  0.221540
     4 z       0.054931 -0.260322 -0.068041 -0.185718 -0.129070  0.240377
     5 x       0.083040 -0.049653  0.257009 -0.194024 -0.118054 -0.109190
     5 y       0.255933  0.071983 -0.068786 -0.023645 -0.147158 -0.185018
     5 z       0.054931 -0.260322 -0.068041  0.137861 -0.067987  0.039977
     6 x       0.083040 -0.049653  0.257009  0.295186  0.116497 -0.106280
     6 y       0.255933  0.071983 -0.068786 -0.099394  0.370067 -0.065761
     6 z       0.054931 -0.260322 -0.068041 -0.102166  0.048764 -0.049848
     7 x       0.083040 -0.049653  0.257009  0.071520  0.087001  0.248976
     7 y       0.255933  0.071983 -0.068786 -0.111144  0.143861  0.192258
     7 z       0.054931 -0.260322 -0.068041 -0.140058  0.069262 -0.031225
     8 x       0.083040 -0.049653  0.257009  0.038210  0.087845  0.357602
     8 y       0.255933  0.071983 -0.068786 -0.018771 -0.043153 -0.366624
     8 z       0.054931 -0.260322 -0.068041  0.113694  0.261394 -0.180704
     9 x       0.083040 -0.049653  0.257009  0.239155  0.068911 -0.129132
     9 y       0.255933  0.071983 -0.068786  0.001474  0.171300 -0.175222
     9 z       0.054931 -0.260322 -0.068041 -0.003571 -0.078245 -0.019357
    10 x       0.083040 -0.049653  0.257009 -0.129097 -0.042938  0.236767
    10 y       0.255933  0.071983 -0.068786  0.139430 -0.165508  0.198252
    10 z       0.054931 -0.260322 -0.068041 -0.031271  0.061856 -0.067549
    11 x       0.083040 -0.049653  0.257009 -0.287260 -0.100687 -0.062241
    11 y       0.255933  0.071983 -0.068786  0.095501 -0.377833 -0.087396
    11 z       0.054931 -0.260322 -0.068041  0.125751 -0.001720  0.081197
    12 x       0.083040 -0.049653  0.257009 -0.327455 -0.161379 -0.255000
    12 y       0.255933  0.071983 -0.068786  0.189271 -0.244187  0.264185
    12 z       0.054931 -0.260322 -0.068041  0.082384 -0.138777 -0.017970


  Frequency      73.3650   73.8240   98.6394  122.2573  163.8506  164.6613
  IR Intensity    0.0002    0.0010    0.0035    0.0040    0.0001    0.0052
     in X         0.0000    0.0004    0.0003    0.0036    0.0000    0.0021
     in Y         0.0000    0.0006    0.0001    0.0000    0.0000    0.0031
     in Z         0.0002    0.0000    0.0031    0.0004    0.0001    0.0000
  Raman Intsty    0.0000    0.0014    0.0000    0.0339    0.0000    0.1739

     1 x      -0.017076 -0.095792  0.027734  0.011872 -0.072236  0.182403
     1 y      -0.040164 -0.070528  0.015345 -0.080699 -0.107445  0.031082
     1 z       0.010562 -0.146088  0.029619 -0.058509 -0.000626  0.166669
     2 x      -0.007736  0.113058  0.003155 -0.168594 -0.004177 -0.167725
     2 y       0.003855  0.214587 -0.001548  0.161898  0.002055 -0.034066
     2 z      -0.023086 -0.002563  0.009386  0.083387 -0.012439  0.050743
     3 x       0.023830  0.002431 -0.006273  0.036157  0.068012  0.051046
     3 y       0.036798 -0.118798 -0.025889 -0.092629  0.109515  0.095617
     3 z       0.009589  0.146203  0.034243  0.013752 -0.011931 -0.224206
     4 x      -0.070343  0.113806 -0.133311 -0.096037  0.273705  0.127348
     4 y       0.221515 -0.227474  0.121018  0.162823 -0.292894 -0.052979
     4 z       0.119657  0.400158 -0.309115  0.072259 -0.069013 -0.162583
     5 x       0.280033  0.149690  0.248900 -0.205903  0.281955 -0.050415
     5 y       0.107700  0.183911  0.166326  0.015753  0.119437  0.002996
     5 z       0.116945 -0.061895  0.089266 -0.112732  0.115911  0.076092
     6 x       0.216948 -0.235984  0.343084  0.369867 -0.204121 -0.352574
     6 y      -0.206905 -0.223464  0.087944 -0.342350  0.250854 -0.052970
     6 z      -0.202151 -0.011773  0.162784 -0.204298  0.107092 -0.371287
     7 x       0.197779  0.055042 -0.123484 -0.020144  0.100552  0.080271
     7 y       0.320225  0.060698 -0.158728  0.140152  0.205785  0.177196
     7 z      -0.220560  0.000290  0.122937 -0.131144 -0.113358 -0.232547
     8 x       0.030302  0.040225 -0.113492 -0.161735 -0.075935 -0.140431
     8 y      -0.014826  0.269854  0.055754  0.163938  0.037304 -0.036386
     8 z       0.090154  0.031013 -0.337705  0.081421 -0.225962  0.041183
     9 x      -0.166028  0.174489 -0.163155 -0.097121 -0.169392 -0.084999
     9 y      -0.163598  0.171830 -0.208446 -0.037681 -0.174734  0.019974
     9 z       0.222081  0.011600  0.165874  0.210945  0.219034 -0.026783
    10 x      -0.319761  0.050000  0.186939  0.074796 -0.167490  0.218691
    10 y      -0.260269  0.063341  0.127557  0.093515 -0.172908  0.109188
    10 z      -0.142470 -0.015032  0.065878  0.151355 -0.085805  0.179351
    11 x      -0.273078 -0.203930 -0.187714  0.383708  0.202405 -0.069004
    11 y       0.234342 -0.239249 -0.164272 -0.349147 -0.250002 -0.192279
    11 z       0.035398  0.083259  0.299529 -0.163116 -0.112235  0.472476
    12 x       0.105320 -0.166810 -0.087100 -0.103761 -0.231668  0.192794
    12 y      -0.238767 -0.089547 -0.012743  0.166618  0.272242 -0.085124
    12 z      -0.015557 -0.434703 -0.346733  0.049276  0.194122  0.032195


  Frequency     178.9075  186.0178  216.4524  217.7599  223.0703  237.3992
  IR Intensity    0.0061    0.0024    0.0219    0.0419    0.0008    0.0274
     in X         0.0009    0.0002    0.0044    0.0041    0.0007    0.0027
     in Y         0.0048    0.0001    0.0157    0.0010    0.0000    0.0007
     in Z         0.0005    0.0021    0.0019    0.0367    0.0001    0.0241
  Raman Intsty    0.0029    0.0000    0.2024    0.0000    0.0390    0.0000

     1 x       0.027597 -0.110281  0.044723  0.189508  0.138144 -0.026284
     1 y       0.018049 -0.098017  0.039486 -0.086395  0.097526  0.267094
     1 z      -0.072528  0.047349  0.019443 -0.123109  0.090070 -0.035580
     2 x      -0.146587  0.007736  0.081097 -0.073142 -0.261400 -0.043540
     2 y       0.145230 -0.003800 -0.335503  0.035931 -0.202879  0.021391
     2 z       0.073239  0.023023 -0.082647 -0.217633  0.054356 -0.129552
     3 x       0.066640  0.125885  0.028238 -0.216131  0.067176 -0.025889
     3 y      -0.001131  0.090352  0.047583  0.099476  0.132388 -0.241467
     3 z       0.043651 -0.000921 -0.029590  0.043897 -0.121114 -0.119673
     4 x       0.237363  0.135518  0.064530  0.040559  0.176602 -0.121190
     4 y      -0.306980  0.136608  0.034795 -0.315579  0.060132  0.018484
     4 z       0.043089  0.355190  0.200626  0.125531  0.408871  0.214273
     5 x      -0.345721 -0.182127 -0.074641  0.047197  0.122037 -0.123475
     5 y      -0.061216 -0.034237 -0.323279 -0.232754  0.047366  0.212091
     5 z      -0.156838 -0.007176 -0.026161 -0.138249  0.092234 -0.078360
     6 x       0.083069  0.109286  0.004055  0.371557  0.137661  0.118434
     6 y       0.160017  0.032192  0.161155  0.024043  0.087976  0.240128
     6 z       0.195607 -0.046070  0.077669  0.028767 -0.144022  0.347763
     7 x       0.004242  0.011753  0.188566 -0.219746 -0.201679  0.106433
     7 y       0.234091 -0.000001  0.005571  0.178409 -0.085920 -0.008618
     7 z      -0.094717  0.034324 -0.066048  0.012402  0.037430 -0.277668
     8 x       0.090206 -0.227690 -0.390892  0.020990 -0.134035  0.041508
     8 y      -0.238038  0.111850  0.462085 -0.010319 -0.383160 -0.020391
     8 z      -0.069611 -0.677512  0.207653  0.062442 -0.018210  0.123506
     9 x      -0.190734  0.145147 -0.075897 -0.096689  0.048100  0.032182
     9 y      -0.137351  0.052403 -0.322657  0.257080  0.083683 -0.167241
     9 z       0.304340 -0.102858 -0.029890 -0.009031 -0.127774 -0.193295
    10 x       0.082018  0.010808  0.190690  0.166151 -0.192154 -0.248191
    10 y       0.195883 -0.011083  0.004525 -0.152085 -0.090598  0.078254
    10 z       0.136712  0.032813 -0.059746 -0.171849  0.065783 -0.144145
    11 x      -0.033125 -0.117926 -0.026859 -0.283325  0.203856  0.086660
    11 y       0.217097 -0.027947  0.176332 -0.067391  0.055461 -0.340881
    11 z      -0.150132  0.020360 -0.014283  0.233762  0.052927  0.262521
    12 x       0.135064  0.087416 -0.063132  0.072188 -0.093560  0.221694
    12 y      -0.256725 -0.246123  0.097517  0.260192  0.192843 -0.067854
    12 z      -0.261314  0.308169 -0.179245  0.209956 -0.395019  0.084789


  Frequency     256.1727  267.1061  279.2597  312.7207  349.5443  395.4972
  IR Intensity    0.0396    0.0438    0.0367    0.0306    0.0007    0.0058
     in X         0.0198    0.0043    0.0162    0.0030    0.0000    0.0006
     in Y         0.0153    0.0010    0.0201    0.0007    0.0007    0.0001
     in Z         0.0046    0.0384    0.0004    0.0268    0.0000    0.0051
  Raman Intsty    0.2242    0.0000    0.1091    0.0000    1.1503    0.0000

     1 x      -0.239858 -0.179606  0.096002  0.116553  0.075380 -0.044743
     1 y       0.244872 -0.037483  0.188976 -0.106494 -0.171413  0.126843
     1 z       0.147483 -0.153600 -0.077745 -0.085581  0.254186 -0.140889
     2 x       0.176951 -0.029763  0.176073  0.091939  0.105457  0.063691
     2 y      -0.217561  0.014621  0.082218 -0.045163  0.353447 -0.031288
     2 z      -0.095385 -0.088563 -0.045600  0.273572  0.022910  0.189519
     3 x      -0.255447  0.057125  0.141206 -0.133549 -0.106075 -0.059518
     3 y       0.252528  0.097650  0.166771  0.114843 -0.082275 -0.075626
     3 z       0.101090 -0.210849  0.056757  0.035009 -0.285752 -0.169349
     4 x       0.038733  0.158458  0.184219  0.012704 -0.071298 -0.087010
     4 y      -0.320065  0.047589  0.106476 -0.192101 -0.098890 -0.054070
     4 z      -0.068770  0.264860 -0.004517 -0.026680  0.141541  0.057688
     5 x      -0.024446  0.235904 -0.282252 -0.096273 -0.190015  0.259446
     5 y       0.027668  0.223468 -0.115927  0.343594 -0.000032 -0.386930
     5 z       0.225541 -0.035136 -0.197219 -0.311579  0.256359 -0.089605
     6 x       0.221303  0.015323 -0.136448  0.130661  0.088182  0.036150
     6 y      -0.091053  0.124714 -0.070060 -0.044038  0.171650  0.097409
     6 z      -0.185963 -0.203915 -0.201681 -0.103542 -0.099594 -0.052731
     7 x       0.043048 -0.223464 -0.146453  0.313330  0.038639  0.327484
     7 y       0.131495 -0.281184 -0.219591 -0.011750 -0.260936 -0.270840
     7 z       0.204095  0.087445  0.308762  0.186675 -0.135142 -0.066736
     8 x       0.004906  0.088916  0.167231 -0.000997  0.267749 -0.028414
     8 y       0.080639 -0.043680  0.126493  0.000491  0.214381  0.013958
     8 z       0.011664  0.264577 -0.035317 -0.002969 -0.054590 -0.084547
     9 x      -0.149862 -0.231630 -0.121360 -0.139913 -0.303496 -0.223211
     9 y       0.089277 -0.225566 -0.194967 -0.227571  0.055717  0.369131
     9 z      -0.147656  0.047853  0.281535 -0.391210 -0.081310  0.197421
    10 x      -0.073000  0.258108 -0.320821 -0.140070  0.085256 -0.275589
    10 y       0.188503  0.264168 -0.133931 -0.073365 -0.283836  0.245347
    10 z      -0.141202  0.015638 -0.210090  0.328875  0.003566  0.221155
    11 x       0.278228 -0.144630  0.002655 -0.161527  0.146128 -0.069553
    11 y      -0.119018 -0.061192 -0.138395  0.059202  0.143185 -0.081000
    11 z      -0.016590 -0.180852  0.212231  0.011698  0.072827 -0.046662
    12 x       0.040453  0.024435  0.160749 -0.007221 -0.150234  0.109041
    12 y      -0.320911 -0.137436  0.118005  0.189407 -0.060114  0.043248
    12 z      -0.063663  0.279356 -0.074354  0.042998 -0.093342  0.007868


  Frequency     424.3406  460.9086  486.8242  513.9138  518.1183  555.3620
  IR Intensity    0.0376    0.0629    0.1255    0.0111    0.0077    0.0957
     in X         0.0021    0.0062    0.0193    0.0011    0.0002    0.0187
     in Y         0.0334    0.0015    0.0966    0.0003    0.0071    0.0690
     in Z         0.0021    0.0552    0.0096    0.0098    0.0004    0.0080
  Raman Intsty    2.9887    0.0000    0.4337    0.0000    3.6475    0.1025

     1 x       0.012954 -0.259512  0.237593 -0.001819 -0.031851 -0.077824
     1 y      -0.000860  0.394386 -0.364304 -0.041817  0.086855  0.121672
     1 z      -0.027117 -0.065723  0.062987  0.101710 -0.095023 -0.026957
     2 x      -0.087901 -0.006820 -0.016013  0.008133 -0.022135 -0.254428
     2 y       0.368176  0.003350 -0.034078 -0.003995  0.025344  0.457490
     2 z       0.090324 -0.020293 -0.000245  0.024200  0.011623  0.161032
     3 x       0.026289  0.130975  0.117939  0.065486  0.038927 -0.034675
     3 y      -0.007412 -0.331244 -0.305524  0.010541  0.052086  0.100476
     3 z       0.012563 -0.316749 -0.293052  0.087737  0.115583  0.101439
     4 x       0.042828  0.021739  0.022524  0.313209  0.315913 -0.034922
     4 y      -0.008636  0.039207  0.045702  0.185347  0.177505 -0.053062
     4 z      -0.018910  0.003229  0.009526 -0.050405 -0.056982 -0.011653
     5 x       0.240741  0.078461 -0.084346  0.157032 -0.129859  0.074944
     5 y      -0.464406 -0.043796  0.075972 -0.046873  0.027454 -0.102969
     5 z       0.157981 -0.120558  0.143585 -0.401007  0.403830 -0.036602
     6 x       0.006141 -0.020105 -0.019481 -0.035794 -0.032740  0.015695
     6 y      -0.036861 -0.008561 -0.007432 -0.258463 -0.262701  0.020450
     6 z      -0.000998  0.033731  0.047332  0.272554  0.262294 -0.066074
     7 x      -0.249367 -0.004139  0.105930 -0.056413  0.067192  0.395950
     7 y       0.202122  0.306790  0.222902 -0.050436 -0.111659 -0.184811
     7 z       0.055872  0.389888  0.448211 -0.129268 -0.090871  0.174600
     8 x       0.129571 -0.005730 -0.099394  0.004601 -0.057386 -0.309901
     8 y       0.111884  0.002814 -0.009607 -0.002261 -0.036608 -0.245826
     8 z      -0.025074 -0.017048  0.031817  0.013692  0.013242  0.063564
     9 x       0.054723 -0.129723 -0.144885 -0.357753 -0.339512  0.071652
     9 y      -0.373026  0.068979  0.105712  0.145476  0.130446 -0.101352
     9 z      -0.395529 -0.031975 -0.036553 -0.196252 -0.220019 -0.046396
    10 x      -0.213230  0.203298 -0.157580 -0.026055  0.096582  0.196598
    10 y       0.184369 -0.404624  0.352350  0.090947 -0.126097 -0.086880
    10 z       0.163398  0.202724 -0.335885 -0.116128 -0.003419 -0.418591
    11 x       0.001926  0.036839 -0.044247  0.214523 -0.206441  0.053526
    11 y      -0.034790  0.000340  0.004734  0.170661 -0.177373  0.001866
    11 z      -0.013542  0.016063 -0.026361  0.259273 -0.254568  0.046496
    12 x       0.044650 -0.019344  0.016893 -0.298908  0.304196 -0.026299
    12 y      -0.009531 -0.040383  0.048468 -0.192370  0.183264 -0.057298
    12 z      -0.013488  0.003896 -0.007227  0.092950 -0.091857  0.014008


  Frequency     676.3676  744.6310  769.0338  772.1325  785.1706  800.4913
  IR Intensity    0.0993    0.0249    0.0074    0.0031    0.0021    0.0005
     in X         0.0098    0.0224    0.0036    0.0003    0.0009    0.0001
     in Y         0.0024    0.0001    0.0036    0.0001    0.0011    0.0000
     in Z         0.0871    0.0024    0.0001    0.0027    0.0000    0.0005
  Raman Intsty    0.0000    0.0767    0.0591    0.0000    0.2111    0.0000

     1 x      -0.132465  0.146317 -0.372446  0.413149 -0.167783  0.048276
     1 y       0.033153  0.039106 -0.273478  0.298021 -0.111477  0.050396
     1 z       0.249022 -0.396098  0.062065  0.098822 -0.389773 -0.478817
     2 x       0.192774  0.409136  0.316600  0.028230 -0.419152  0.168862
     2 y      -0.094698  0.128432  0.150492 -0.013846 -0.221718 -0.082959
     2 z       0.573613 -0.116296 -0.081557  0.083929  0.104255  0.502483
     3 x       0.249792  0.354631 -0.361833 -0.302093  0.084375 -0.325869
     3 y      -0.090789 -0.063228 -0.278636 -0.352624 -0.235358  0.085971
     3 z       0.100097  0.223763  0.093527  0.231768  0.360558 -0.347196
     4 x      -0.192442 -0.195242  0.298957  0.294679  0.047976  0.118904
     4 y      -0.095284 -0.090475  0.164936  0.167319  0.042017  0.046847
     4 z       0.025254  0.016504 -0.048119 -0.053689 -0.025726 -0.000249
     5 x       0.046933 -0.088508  0.023480 -0.020164 -0.021874 -0.069257
     5 y      -0.001044  0.014606  0.001982 -0.006749  0.018616  0.016087
     5 z      -0.177426  0.208582 -0.069570  0.002682  0.138536  0.191488
     6 x       0.001820 -0.012107  0.027438  0.030364  0.010579  0.010650
     6 y       0.121247  0.111456  0.156006  0.230371  0.206186 -0.130434
     6 z      -0.123280 -0.117370 -0.149259 -0.230255 -0.216412  0.140018
     7 x      -0.280764 -0.108841 -0.062889 -0.016554  0.092953 -0.134021
     7 y       0.103279  0.023368  0.030475  0.022329 -0.015739  0.052709
     7 z      -0.178263 -0.059265 -0.036750 -0.027277  0.029456 -0.078810
     8 x      -0.005504 -0.332443 -0.232868 -0.001046  0.297154 -0.006080
     8 y       0.002702 -0.214034 -0.151334  0.000495  0.196215  0.002991
     8 z      -0.016372  0.076388  0.053276 -0.003058 -0.067470 -0.018104
     9 x      -0.142124 -0.192509  0.060032  0.018416 -0.097397  0.166848
     9 y       0.047806  0.065696 -0.015976  0.007609  0.055716 -0.064029
     9 z      -0.105825 -0.100883  0.039197 -0.007903 -0.086184  0.098910
    10 x       0.110007 -0.050069 -0.025800 -0.004982  0.055641  0.055884
    10 y      -0.019395 -0.005503  0.012256 -0.011751  0.002590 -0.014324
    10 z      -0.329841  0.115620  0.073613 -0.036784 -0.081563 -0.153700
    11 x      -0.085930  0.070326  0.125193 -0.182491  0.156116  0.086694
    11 y      -0.079927  0.070960  0.108013 -0.155625  0.134684  0.082616
    11 z      -0.127001  0.127919  0.141584 -0.222433  0.216656  0.149638
    12 x       0.178477 -0.175097  0.284180 -0.284202  0.057722 -0.100055
    12 y       0.102144 -0.100372  0.172230 -0.172431  0.037226 -0.056108
    12 z      -0.066807  0.076448 -0.092193  0.084761  0.003286  0.056340




--------------------------------------------------------------------------------
  Vibrational properties (for cluster):  Temperature  =       0.000 K
--------------------------------------------------------------------------------
  Zero point energy            =        0.701991 eV
--------------------------------------------------------------------------------

  Phonon density of states : 

--------------------------------------------------------------------------------
 Frequency (cm-1) Density of States                                             
--------------------------------------------------------------------------------
    0.00000 |****************************************                      0.057
   12.50768 |********************                                          0.029
   25.01535 |********************                                          0.029
   37.52303 |                                                              0.000
   50.03071 |********************                                          0.029
   62.53839 |****************************************                      0.057
   75.04606 |                                                              0.000
   87.55374 |********************                                          0.029
  100.06142 |                                                              0.000
  112.56910 |********************                                          0.029
  125.07677 |                                                              0.000
  137.58445 |                                                              0.000
  150.09213 |                                                              0.000
  162.59980 |****************************************                      0.057
  175.10748 |****************************************                      0.057
  187.61516 |                                                              0.000
  200.12284 |                                                              0.000
  212.63051 |************************************************************  0.086
  225.13819 |********************                                          0.029
  237.64587 |                                                              0.000
  250.15354 |********************                                          0.029
  262.66122 |********************                                          0.029
  275.16890 |********************                                          0.029
  287.67658 |                                                              0.000
  300.18425 |                                                              0.000
  312.69193 |********************                                          0.029
  325.19961 |                                                              0.000
  337.70729 |********************                                          0.029
  350.21496 |                                                              0.000
  362.72264 |                                                              0.000
  375.23032 |                                                              0.000
  387.73799 |********************                                          0.029
  400.24567 |                                                              0.000
  412.75335 |********************                                          0.029
  425.26103 |                                                              0.000
  437.76870 |                                                              0.000
  450.27638 |********************                                          0.029
  462.78406 |                                                              0.000
  475.29173 |********************                                          0.029
  487.79941 |                                                              0.000
  500.30709 |                                                              0.000
  512.81477 |****************************************                      0.057
  525.32244 |                                                              0.000
  537.83012 |                                                              0.000
  550.33780 |********************                                          0.029
  562.84548 |                                                              0.000
  575.35315 |                                                              0.000
  587.86083 |                                                              0.000
  600.36851 |                                                              0.000
  612.87618 |                                                              0.000
  625.38386 |                                                              0.000
  637.89154 |                                                              0.000
  650.39922 |                                                              0.000
  662.90689 |                                                              0.000
  675.41457 |********************                                          0.029
  687.92225 |                                                              0.000
  700.42992 |                                                              0.000
  712.93760 |                                                              0.000
  725.44528 |                                                              0.000
  737.95296 |********************                                          0.029
  750.46063 |                                                              0.000
  762.96831 |****************************************                      0.057
  775.47599 |********************                                          0.029
  787.98367 |********************                                          0.029
--------------------------------------------------------------------------------



  Time to end of optimisation =       0.0380 seconds


  Peak dynamic memory used =       0.65 MB 


  Timing analysis for GULP :

--------------------------------------------------------------------------------
  Task / Subroutine                                          Time (Seconds)
--------------------------------------------------------------------------------
  Calculation of real space energy and derivatives                0.0026
  Calculation of phonons                                          0.0018
  Calculation and manipulation of Hessian matrix                  0.0017
--------------------------------------------------------------------------------
  Total CPU time                                                  0.0380
--------------------------------------------------------------------------------


  Job Finished at 14:38.41 25th May        2022                               

