********************************************************************************
*                       GENERAL UTILITY LATTICE PROGRAM                        *
*                                 Julian Gale                                  *
*                       Curtin Institute for Computation                       *
*                           Department of Chemistry                            *
*                    Curtin University, Western Australia                      *
********************************************************************************
* Version = 5.1.1 * Last modified =  24th November 2018                        *
********************************************************************************
*  optimise     - perform optimisation run                                     *
*  conp         - constant pressure calculation                                *
*  shell        - only shells and radii to be optimised                        *
*  phonon       - calculate phonons for final geometry                         *
*  eigenvectors - output phonon eigenvectors                                   *
********************************************************************************

  Job Started  at 14:38.29 25th May        2022                               

  Number of CPUs =     1

  Host name      = login03                                 


  Total number of configurations input =      1

********************************************************************************
*  Input for Configuration =   1                                               *
********************************************************************************

  Formula = Al3F9                                                       

  Number of irreducible atoms/shells =      21


  Total number atoms/shells =      21

  Dimensionality = 0               :  Cluster


  Charge on cluster =  -0.000000


  Initial cluster dipoles : x =     -0.218663 e.Angs
                            y =     -0.205423 e.Angs
                            z =      0.039573 e.Angs

  Temperature of configuration =  0.000     K 

  Symmetry number =      1

  Cartesian coordinates of cluster :

--------------------------------------------------------------------------------
   No.  Atomic       x           y          z         Charge      Occupancy
        Label      (Angs)      (Angs)     (Angs)        (e)         (Frac)  
--------------------------------------------------------------------------------
      1 Al    c      1.2352      0.1043      2.4689     3.00000    1.000000    
      2 Al    c      1.2768      1.1892     -0.0831     3.00000    1.000000    
      3 Al    c     -0.2716      0.7804     -2.3473     3.00000    1.000000    
      4 F     c     -1.4552     -0.6211     -2.3326     0.59000    1.000000    
      5 F     c      1.8470     -0.4583      0.7229     0.59000    1.000000    
      6 F     c     -0.1172      2.0152     -3.7096     0.59000    1.000000    
      7 F     c     -0.4666      1.7347     -0.6768     0.59000    1.000000    
      8 F     c      2.5879      2.4209     -0.3204     0.59000    1.000000    
      9 F     c      1.4270      0.1728     -1.7472     0.59000    1.000000    
     10 F     c      0.6008      1.7118      1.6762     0.59000    1.000000    
     11 F     c      2.7107      0.4008      3.5362     0.59000    1.000000    
     12 F     c     -0.1948     -0.9495      2.9272     0.59000    1.000000    
     13 F     s     -1.4552 *   -0.6211 *   -2.3326 *  -1.59000    1.000000    
     14 F     s      1.8470 *   -0.4583 *    0.7229 *  -1.59000    1.000000    
     15 F     s     -0.1172 *    2.0152 *   -3.7096 *  -1.59000    1.000000    
     16 F     s     -0.4666 *    1.7347 *   -0.6768 *  -1.59000    1.000000    
     17 F     s      2.5879 *    2.4209 *   -0.3204 *  -1.59000    1.000000    
     18 F     s      1.4270 *    0.1728 *   -1.7472 *  -1.59000    1.000000    
     19 F     s      0.6008 *    1.7118 *    1.6762 *  -1.59000    1.000000    
     20 F     s      2.7107 *    0.4008 *    3.5362 *  -1.59000    1.000000    
     21 F     s     -0.1948 *   -0.9495 *    2.9272 *  -1.59000    1.000000    
--------------------------------------------------------------------------------


  Brillouin zone sampling points :

--------------------------------------------------------------------------------
  Point number          x          y          z            Weight
--------------------------------------------------------------------------------
        1           0.000000   0.000000   0.000000     1.00000000
--------------------------------------------------------------------------------


********************************************************************************
*  General input information                                                   *
********************************************************************************

  Species output for all configurations : 

--------------------------------------------------------------------------------
  Species    Type    Atomic    Atomic    Charge       Radii (Angs)     Library
                     Number     Mass       (e)     Cova   Ionic  VDW   Symbol
--------------------------------------------------------------------------------
    Al       Core       13      26.98   3.000000   1.350  0.000  2.050          
    F        Core        9      19.00   0.590000   0.710  0.000  1.300          
    F        Shell       9       0.00  -1.590000   0.710  0.000  1.300          
--------------------------------------------------------------------------------


  Accuracy factor for short range sums = 12.000

  Time limit = Infinity

  Maximum range for interatomic potentials =    100000.000000 Angstroms

  General interatomic potentials :

--------------------------------------------------------------------------------
Atom  Types   Potential      Parameter       Value         Units   Cutoffs(Ang)
  1     2                                                            Min /  Max 
--------------------------------------------------------------------------------
Al   c F    s Buckingham    Buckingham A     3760.0008    eV        0.000 10.000
                            Buckingham rho  0.22200000    Ang       
                            Buckingham C     0.0000000    eV*Ang^6  
--------------------------------------------------------------------------------
F    s F    s Buck 4 range  Buck4 A          1127.7000    eV        0.000 12.000
                            Buck4 rho       0.27530000    Ang       
                            Buck4 C          15.830000    eV*Ang^6  
                            Buck4 minimum    2.7900000    Ang       
--------------------------------------------------------------------------------
F    c F    s Spring (c-s)  Spring k 2       20.770000    eV*Ang^-2 0.000  0.800
                            Spring k 4       0.0000000    eV*Ang^-4 
--------------------------------------------------------------------------------

********************************************************************************
*  Output for configuration   1                                                *
********************************************************************************


  Components of energy : 

--------------------------------------------------------------------------------
  Interatomic potentials     =           9.63906149 eV    
  Monopole - monopole (real) =        -176.75391096 eV    
--------------------------------------------------------------------------------
  Total lattice energy       =        -167.11484947 eV    
--------------------------------------------------------------------------------
  Total lattice energy       =          -16124.0284 kJ/mol
--------------------------------------------------------------------------------


  Number of variables =       27

  Maximum number of calculations  =          2000
  Maximum Hessian update interval =            10
  Maximum step size               =   1.000000000
  Maximum parameter tolerance     =   0.000001000
  Maximum function  tolerance     =   0.000010000
  Maximum gradient  tolerance     =   0.000000010
  Maximum gradient  component     =   0.010000000

  Symmetry not applied to optimisation

  Newton-Raphson optimiser to be used

  BFGS hessian update to be used

  Lower half triangular hessian to be used

  Minimiser to switch to RFO
  When gradient norm is less than     0.010000

  Shell only optimisation

  Start of cluster optimisation :

  Cycle:      0 Energy:      -167.114849  Gnorm:      1.510962  CPU:    0.004
  ** Hessian calculated **
  Cycle:      1 Energy:      -185.701219  Gnorm:      0.501742  CPU:    0.005
  ** Hessian calculated **
  Cycle:      2 Energy:      -187.310350  Gnorm:      0.041831  CPU:    0.007
  Cycle:      3 Energy:      -187.319770  Gnorm:      0.007341  CPU:    0.008
  ** Hessian has required structure
  Cycle:      4 Energy:      -187.319785  Gnorm:      0.007338  CPU:    0.010
  ** Hessian has required structure
  Cycle:      5 Energy:      -187.319786  Gnorm:      0.007323  CPU:    0.011
  ** Hessian has required structure
  Cycle:      6 Energy:      -187.319789  Gnorm:      0.007298  CPU:    0.013
  ** Hessian has required structure
  Cycle:      7 Energy:      -187.319795  Gnorm:      0.007191  CPU:    0.014
  ** Hessian has required structure
  Cycle:      8 Energy:      -187.319919  Gnorm:      0.005135  CPU:    0.015
  ** Hessian has required structure
  Cycle:      9 Energy:      -187.320074  Gnorm:      0.001455  CPU:    0.017
  ** Hessian has required structure
  Cycle:     10 Energy:      -187.320093  Gnorm:      0.000434  CPU:    0.018
  ** Hessian has required structure
  Cycle:     11 Energy:      -187.320094  Gnorm:      0.000150  CPU:    0.019
  ** Hessian has required structure
  Cycle:     12 Energy:      -187.320095  Gnorm:      0.000000  CPU:    0.021
  ** Hessian has required structure
  Cycle:     13 Energy:      -187.320095  Gnorm:      0.000000  CPU:    0.022
  ** Hessian has required structure
  Cycle:     14 Energy:      -187.320095  Gnorm:      0.000000  CPU:    0.023
  ** Hessian has required structure
  Cycle:     15 Energy:      -187.320095  Gnorm:      0.000000  CPU:    0.025
  ** Hessian has required structure
  Cycle:     16 Energy:      -187.320095  Gnorm:      0.000000  CPU:    0.026
  ** Hessian has required structure
  Cycle:     17 Energy:      -187.320095  Gnorm:      0.000000  CPU:    0.028
  ** Hessian calculated **

  XYZ File written as 001/1/sp_mod_-80/sp_mod_-80_eig.xyz



  **** Optimisation achieved ****


  Final energy =    -187.32009463 eV
  Final Gnorm  =       0.00000002

  Components of energy : 

--------------------------------------------------------------------------------
  Interatomic potentials     =          38.84784396 eV    
  Monopole - monopole (real) =        -226.16793858 eV    
--------------------------------------------------------------------------------
  Total lattice energy       =        -187.32009463 eV    
--------------------------------------------------------------------------------
  Total lattice energy       =          -18073.5257 kJ/mol
--------------------------------------------------------------------------------

  Final cartesian coordinates of atoms :

--------------------------------------------------------------------------------
   No.  Atomic        x           y          z          Radius
        Label       (Angs)      (Angs)     (Angs)       (Angs) 
--------------------------------------------------------------------------------
     1  Al    c     1.235168    0.104303    2.468926    0.000000
     2  Al    c     1.276784    1.189243   -0.083083    0.000000
     3  Al    c    -0.271633    0.780429   -2.347339    0.000000
     4  F     c    -1.455186   -0.621082   -2.332590    0.000000
     5  F     c     1.847002   -0.458345    0.722933    0.000000
     6  F     c    -0.117178    2.015152   -3.709598    0.000000
     7  F     c    -0.466581    1.734720   -0.676791    0.000000
     8  F     c     2.587877    2.420947   -0.320355    0.000000
     9  F     c     1.427017    0.172813   -1.747245    0.000000
    10  F     c     0.600808    1.711765    1.676224    0.000000
    11  F     c     2.710675    0.400845    3.536205    0.000000
    12  F     c    -0.194814   -0.949465    2.927157    0.000000
    13  F     s    -1.266766   -0.399048   -2.333935    0.000000
    14  F     s     1.711947   -0.215366    0.823512    0.000000
    15  F     s    -0.142068    1.811961   -3.488192    0.000000
    16  F     s    -0.253200    1.565323   -0.791545    0.000000
    17  F     s     2.388388    2.233537   -0.284253    0.000000
    18  F     s     1.213183    0.336033   -1.648775    0.000000
    19  F     s     0.732861    1.471716    1.592554    0.000000
    20  F     s     2.468406    0.353055    3.363148    0.000000
    21  F     s     0.031584   -0.781801    2.853431    0.000000
--------------------------------------------------------------------------------


  Final Cartesian derivatives :

--------------------------------------------------------------------------------
   No.  Atomic          x             y             z           Radius
        Label       (eV/Angs)     (eV/Angs)    (eV/Angs)      (eV/Angs)
--------------------------------------------------------------------------------
      1 Al    c       0.000000      0.000000      0.000000      0.000000
      2 Al    c       0.000000      0.000000      0.000000      0.000000
      3 Al    c       0.000000      0.000000      0.000000      0.000000
      4 F     c       0.000000      0.000000      0.000000      0.000000
      5 F     c       0.000000      0.000000      0.000000      0.000000
      6 F     c       0.000000      0.000000      0.000000      0.000000
      7 F     c       0.000000      0.000000      0.000000      0.000000
      8 F     c       0.000000      0.000000      0.000000      0.000000
      9 F     c       0.000000      0.000000      0.000000      0.000000
     10 F     c       0.000000      0.000000      0.000000      0.000000
     11 F     c       0.000000      0.000000      0.000000      0.000000
     12 F     c       0.000000      0.000000      0.000000      0.000000
     13 F     s      -0.000000      0.000000      0.000000      0.000000
     14 F     s       0.000000     -0.000000     -0.000000      0.000000
     15 F     s      -0.000000     -0.000000      0.000000      0.000000
     16 F     s      -0.000000      0.000000      0.000000      0.000000
     17 F     s      -0.000000     -0.000000      0.000000      0.000000
     18 F     s      -0.000000     -0.000000     -0.000000      0.000000
     19 F     s      -0.000000     -0.000000      0.000000      0.000000
     20 F     s      -0.000000     -0.000000     -0.000000      0.000000
     21 F     s       0.000000     -0.000000     -0.000000      0.000000
--------------------------------------------------------------------------------
  Maximum abs         0.000000      0.000000      0.000000      0.000000
--------------------------------------------------------------------------------


  Born effective charge tensors : 

-------------------------------------------------------------------------------
  Atom             x           y             z
-------------------------------------------------------------------------------
    1 Al    x       0.5802     -0.3238     -0.1650
            y      -0.3152      1.1106     -0.0112
            z      -0.1879     -0.0186      1.2704
-------------------------------------------------------------------------------
    2 Al    x       0.8366     -0.3041      0.1588
            y      -0.3039      0.8587      0.0678
            z       0.1600      0.0665      1.7515
-------------------------------------------------------------------------------
    3 Al    x       1.0960     -0.2820      0.1049
            y      -0.2930      0.7154      0.3260
            z       0.1155      0.3465      1.1497
-------------------------------------------------------------------------------
    4 F     x      -0.3082      0.2809     -0.0459
            y       0.2629     -0.1930     -0.0282
            z      -0.0294      0.0053     -0.5844
-------------------------------------------------------------------------------
    5 F     x      -0.2782      0.0132     -0.0153
            y       0.0038     -0.2786      0.0131
            z       0.0040      0.0166     -0.4036
-------------------------------------------------------------------------------
    6 F     x      -0.5374      0.0237     -0.0513
            y       0.0400     -0.2675     -0.2663
            z      -0.0857     -0.3066     -0.2743
-------------------------------------------------------------------------------
    7 F     x      -0.2878     -0.0032     -0.0347
            y       0.0086     -0.2811     -0.0076
            z      -0.0413     -0.0246     -0.3916
-------------------------------------------------------------------------------
    8 F     x      -0.2368      0.2800     -0.0875
            y       0.2797     -0.2624     -0.0349
            z      -0.0892     -0.0330     -0.6224
-------------------------------------------------------------------------------
    9 F     x      -0.2527     -0.0135     -0.0108
            y      -0.0081     -0.2879     -0.0403
            z      -0.0283     -0.0664     -0.4578
-------------------------------------------------------------------------------
   10 F     x      -0.2747     -0.0006      0.0057
            y      -0.0039     -0.2524     -0.0293
            z       0.0337     -0.0143     -0.4713
-------------------------------------------------------------------------------
   11 F     x      -0.1582      0.0846      0.2346
            y       0.0704     -0.5165      0.0612
            z       0.2797      0.0902     -0.4046
-------------------------------------------------------------------------------
   12 F     x      -0.1787      0.2447     -0.0936
            y       0.2587     -0.3453     -0.0502
            z      -0.1310     -0.0616     -0.5616
-------------------------------------------------------------------------------




  Moment of inertia tensor (10^-46 x kgm^2): 

-------------------------------------------------------------------------------
                x           y           z           Principal axis system
-------------------------------------------------------------------------------
       x        244.59       -8.54      -54.16           81.668683
       y         -8.54      261.28       30.20          246.364587
       z        -54.16       30.20      103.85          281.680445
-------------------------------------------------------------------------------
  Centre of mass (Ang) =     0.763263     0.706817     0.009850
-------------------------------------------------------------------------------


  Vibrational Frequency Calculation : 

--------------------------------------------------------------------------------

  Frequencies (cm-1) and Eigenvectors : 

  Frequency      -0.0000   -0.0000    0.0000   25.4055   26.0814   45.9891
  IR Intensity    0.0000    0.0000    0.0000    0.0000    0.0002    0.0001
     in X         0.0000    0.0000    0.0000    0.0000    0.0000    0.0000
     in Y         0.0000    0.0000    0.0000    0.0000    0.0000    0.0000
     in Z         0.0000    0.0000    0.0000    0.0000    0.0001    0.0000
  Raman Intsty    0.0000    0.0000    0.0000    0.0002    0.0000    0.0000

     1 x       0.263380 -0.142984  0.131437 -0.228165 -0.261201 -0.059637
     1 y       0.170416  0.276368 -0.040841  0.257977 -0.221907  0.083184
     1 z       0.093158 -0.101318 -0.296893  0.103003 -0.008504  0.028310
     2 x       0.263380 -0.142984  0.131437  0.006852  0.025392  0.122156
     2 y       0.170416  0.276368 -0.040841  0.006436 -0.010330 -0.142098
     2 z       0.093158 -0.101318 -0.296893 -0.001238  0.086679 -0.062660
     3 x       0.263380 -0.142984  0.131437  0.223526  0.227621 -0.073616
     3 y       0.170416  0.276368 -0.040841 -0.262334  0.237333  0.070051
     3 z       0.093158 -0.101318 -0.296893 -0.102165 -0.096965  0.030841
     4 x       0.221023 -0.119990  0.110299  0.251615  0.160296 -0.289453
     4 y       0.143010  0.231923 -0.034273 -0.274028  0.223670  0.251981
     4 z       0.078176 -0.085024 -0.249147 -0.094487 -0.203906  0.117742
     5 x       0.221023 -0.119990  0.110299 -0.099554 -0.133558 -0.168221
     5 y       0.143010  0.231923 -0.034273  0.057731 -0.101060 -0.158929
     5 z       0.078176 -0.085024 -0.249147  0.165328 -0.004327  0.052493
     6 x       0.221023 -0.119990  0.110299  0.216548  0.291337  0.064787
     6 y       0.143010  0.231923 -0.034273 -0.273060  0.248146  0.000494
     6 z       0.078176 -0.085024 -0.249147 -0.130459 -0.025480 -0.012737
     7 x       0.221023 -0.119990  0.110299  0.020992  0.104226  0.173264
     7 y       0.143010  0.231923 -0.034273 -0.131535  0.122331  0.161877
     7 z       0.078176 -0.085024 -0.249147 -0.151111 -0.047354 -0.009304
     8 x       0.221023 -0.119990  0.110299  0.005906  0.105609  0.374918
     8 y       0.143010  0.231923 -0.034273  0.005545 -0.054053 -0.429894
     8 z       0.078176 -0.085024 -0.249147 -0.001063  0.302965 -0.159946
     9 x       0.221023 -0.119990  0.110299  0.174532  0.133662 -0.147944
     9 y       0.143010  0.231923 -0.034273 -0.095783  0.122660 -0.223418
     9 z       0.078176 -0.085024 -0.249147  0.068438  0.003000 -0.010288
    10 x       0.221023 -0.119990  0.110299 -0.099182 -0.125666  0.223772
    10 y       0.143010  0.231923 -0.034273  0.166571 -0.120974  0.125788
    10 z       0.078176 -0.085024 -0.249147 -0.082073  0.049935 -0.077557
    11 x       0.221023 -0.119990  0.110299 -0.233650 -0.261118 -0.005755
    11 y       0.143010  0.231923 -0.034273  0.256994 -0.270874 -0.065785
    11 z       0.078176 -0.085024 -0.249147  0.133556  0.074497  0.000028
    12 x       0.221023 -0.119990  0.110299 -0.239846 -0.265031 -0.212146
    12 y       0.143010  0.231923 -0.034273  0.285087 -0.175919  0.324615
    12 z       0.078176 -0.085024 -0.249147  0.092351 -0.126937  0.103749


  Frequency      58.8603   75.1748   88.9506  105.6314  158.2561  162.5223
  IR Intensity    0.0011    0.0002    0.0066    0.0015    0.0021    0.0090
     in X         0.0006    0.0001    0.0015    0.0000    0.0011    0.0043
     in Y         0.0005    0.0001    0.0009    0.0000    0.0010    0.0047
     in Z         0.0000    0.0000    0.0041    0.0014    0.0000    0.0000
  Raman Intsty    0.0003    0.0003    0.0000    0.0000    0.0482    0.0000

     1 x      -0.103472  0.034216  0.028733  0.031817 -0.144408 -0.139706
     1 y      -0.044945  0.032167  0.020228 -0.077481  0.000301 -0.118073
     1 z      -0.113670  0.050520  0.040442  0.002890 -0.123435  0.042893
     2 x       0.160673 -0.065403  0.042627 -0.096705  0.082326  0.143814
     2 y       0.150946 -0.061440 -0.044930  0.116089  0.077339 -0.160265
     2 z      -0.029077  0.011837  0.002321  0.068270 -0.014899 -0.037279
     3 x      -0.027185  0.023523 -0.013471  0.075148  0.017239  0.130110
     3 y      -0.077803  0.022075 -0.019419 -0.036775 -0.119769  0.135408
     3 z       0.137315 -0.060970  0.048077 -0.004952  0.146450 -0.005939
     4 x       0.179752  0.180418 -0.109419 -0.130424 -0.200247  0.201873
     4 y      -0.235522 -0.117714  0.066458  0.134005  0.079108  0.047229
     4 z       0.315297 -0.387510 -0.328030  0.130573  0.204098  0.271281
     5 x      -0.061073 -0.311055  0.257509 -0.127445 -0.303588 -0.128893
     5 y       0.025797 -0.146232  0.085288  0.016444 -0.095942 -0.207580
     5 z      -0.108887 -0.031184  0.089499 -0.060703 -0.136792  0.037847
     6 x      -0.361734 -0.084831  0.193159  0.378101  0.398722 -0.132154
     6 y      -0.067420  0.313205  0.192418 -0.294505 -0.007066  0.186571
     6 z       0.076450  0.200762  0.250562 -0.205005  0.262191  0.028529
     7 x       0.043179 -0.151312 -0.078142 -0.021965 -0.081688  0.216486
     7 y      -0.042609 -0.288134 -0.230041  0.115538 -0.266005  0.116888
     7 z       0.112126  0.114857  0.150244 -0.079794  0.206517 -0.024659
     8 x       0.135332 -0.053716 -0.187018 -0.319000  0.071998 -0.295000
     8 y       0.127146 -0.050460  0.127813  0.321111  0.067643  0.219705
     8 z      -0.024493  0.009724 -0.369899 -0.095778 -0.013035 -0.489563
     9 x       0.155365  0.064433 -0.094699 -0.019301  0.115846  0.083184
     9 y       0.231710  0.114484 -0.205602 -0.066874  0.053936 -0.091798
     9 z      -0.097847 -0.099195  0.084851  0.153070 -0.016037 -0.084809
    10 x       0.252663  0.133897  0.221915  0.095378  0.061065  0.070347
    10 y       0.151612  0.071839  0.091840  0.040864  0.112260 -0.103858
    10 z       0.024006  0.063304  0.027553  0.132315 -0.015979 -0.082486
    11 x      -0.096578  0.265565 -0.149944  0.233445 -0.038852 -0.171789
    11 y      -0.363142 -0.143423 -0.129915 -0.430398  0.345149  0.149331
    11 z       0.006494 -0.233476  0.312653 -0.178824 -0.327319  0.035707
    12 x      -0.282676 -0.034267 -0.122343 -0.101014  0.030179 -0.003993
    12 y       0.138825  0.255012  0.054318  0.161630 -0.238879 -0.146166
    12 z      -0.296674  0.361067 -0.325681  0.125249 -0.173317  0.308540


  Frequency     171.9285  175.5389  205.5140  210.5886  222.3472  222.7561
  IR Intensity    0.0023    0.0188    0.0331    0.0019    0.0621    0.0025
     in X         0.0012    0.0055    0.0117    0.0010    0.0005    0.0013
     in Y         0.0011    0.0085    0.0088    0.0009    0.0006    0.0011
     in Z         0.0000    0.0047    0.0126    0.0000    0.0610    0.0000
  Raman Intsty    0.0716    0.0000    0.0000    0.0392    0.0000    0.0003

     1 x      -0.063987 -0.010721  0.017513 -0.221820 -0.121494  0.090884
     1 y      -0.038026 -0.003060 -0.039523  0.023734 -0.114937 -0.315890
     1 z      -0.113092 -0.017835  0.064597 -0.060808  0.126128 -0.177897
     2 x       0.025296  0.168667  0.152114  0.254270 -0.006164  0.096970
     2 y       0.023763 -0.199082 -0.148057  0.238871  0.052093  0.091105
     2 z      -0.004578 -0.101451  0.071974 -0.046016  0.236414 -0.017535
     3 x      -0.018760  0.000105  0.050204  0.024965  0.141990 -0.272227
     3 y      -0.039711  0.007111 -0.008808 -0.208668  0.132546  0.145520
     3 z       0.128067 -0.019795  0.058679  0.096434  0.078425  0.210725
     4 x       0.188069 -0.264279 -0.080991 -0.279151  0.066646  0.114721
     4 y      -0.210059  0.231002  0.099991  0.063149  0.186629 -0.179086
     4 z       0.084433  0.157039 -0.284245 -0.351798 -0.141389 -0.237222
     5 x       0.233395  0.358427 -0.102198  0.034651  0.168688  0.098992
     5 y       0.074886 -0.030696 -0.233130  0.187383  0.097248 -0.118541
     5 z      -0.009602  0.071492  0.054333 -0.009428  0.165144 -0.214767
     6 x       0.076905  0.008927 -0.319178 -0.196070 -0.187118  0.208143
     6 y       0.218655 -0.005098 -0.114671 -0.112305 -0.197398 -0.231573
     6 z       0.355611 -0.027519 -0.078858  0.141686 -0.249175 -0.080013
     7 x       0.085597  0.027774  0.243481  0.187138 -0.071640 -0.071334
     7 y       0.224786 -0.341329  0.091620  0.020974 -0.128552  0.144518
     7 z      -0.048124  0.131332 -0.008226 -0.030709  0.208613  0.209780
     8 x       0.019948 -0.113688 -0.188261  0.237335  0.112230  0.095773
     8 y       0.018741  0.161694  0.269382  0.222968 -0.198948  0.089955
     8 z      -0.003610  0.211170  0.358132 -0.042948 -0.412558 -0.017355
     9 x      -0.135635  0.184887 -0.025165  0.069701  0.097158 -0.182988
     9 y      -0.294859  0.145741 -0.230844 -0.082825  0.168811  0.182779
     9 z       0.219900 -0.282601  0.102171  0.075843  0.130979  0.028181
    10 x      -0.336806 -0.204546  0.246878 -0.092497 -0.145163  0.165871
    10 y      -0.148976 -0.220113  0.024723  0.061407 -0.058797 -0.198853
    10 z      -0.134403 -0.212123  0.052940 -0.071717  0.174832 -0.025063
    11 x       0.150697 -0.000596  0.111702 -0.145613  0.154853 -0.202830
    11 y      -0.004834 -0.014042  0.290121 -0.208686  0.123816  0.236564
    11 z      -0.396801 -0.025793 -0.156833 -0.079852 -0.311067  0.079020
    12 x      -0.213707 -0.185247 -0.148226  0.116086 -0.212731 -0.125805
    12 y       0.185977  0.305245  0.036833 -0.216339 -0.075865  0.168691
    12 z      -0.079793  0.142737 -0.272082  0.381305 -0.090853  0.239214


  Frequency     244.2921  267.3010  281.0620  349.6325  384.4618  401.5391
  IR Intensity    0.0506    0.0295    0.0323    0.0001    0.0001    0.0024
     in X         0.0195    0.0025    0.0169    0.0001    0.0000    0.0000
     in Y         0.0263    0.0005    0.0149    0.0001    0.0000    0.0000
     in Z         0.0049    0.0265    0.0006    0.0000    0.0000    0.0023
  Raman Intsty    0.0000    0.0000    0.0445    0.6355    0.0214    0.0000

     1 x      -0.217032 -0.168417  0.167633 -0.026701 -0.017131 -0.009307
     1 y       0.313760 -0.093278  0.102597  0.128111  0.003798 -0.063273
     1 z       0.132186 -0.146062 -0.115646 -0.268489  0.085235  0.169762
     2 x       0.188056 -0.050165  0.129953 -0.192448  0.061454 -0.084233
     2 y      -0.222879  0.044366  0.122084 -0.180795  0.057733  0.045673
     2 z      -0.117851 -0.046889 -0.023518  0.034828 -0.011122 -0.228349
     3 x      -0.273222  0.071349  0.129912  0.175233 -0.013139  0.094562
     3 y       0.260978  0.131969  0.176932  0.011426 -0.032235  0.034306
     3 z       0.142356 -0.189453  0.061799  0.241609 -0.079757  0.150965
     4 x       0.201968  0.152645  0.169327  0.053070 -0.068981  0.083452
     4 y      -0.143890  0.066669  0.164994  0.167535 -0.005198  0.118255
     4 z      -0.067831  0.201895  0.037748 -0.086311  0.042941 -0.029792
     5 x       0.008965  0.288269 -0.308714  0.206515 -0.003380 -0.172641
     5 y      -0.005750  0.162823 -0.111262 -0.228183 -0.224176  0.399124
     5 z       0.270398 -0.048494 -0.196791 -0.126870  0.293409  0.071401
     6 x       0.178379 -0.061285 -0.131980 -0.091230 -0.023683 -0.038490
     6 y      -0.128247  0.134719 -0.046365 -0.168400  0.079315 -0.108336
     6 z      -0.157348 -0.214567 -0.172353  0.127073 -0.009012  0.080308
     7 x       0.056341 -0.181637 -0.085608 -0.190738 -0.275510 -0.370409
     7 y       0.038761 -0.278630 -0.259183  0.243004 -0.037826  0.213331
     7 z       0.261827  0.036546  0.268153  0.124015 -0.242938  0.107192
     8 x      -0.045678  0.043968  0.140223 -0.241244  0.111590  0.024562
     8 y       0.060267 -0.002142  0.131732 -0.226637  0.104833 -0.013697
     8 z       0.060445  0.231833 -0.025377  0.043659 -0.020195  0.064620
     9 x      -0.207080 -0.205139 -0.090871  0.307650 -0.048123  0.245183
     9 y       0.018695 -0.310462 -0.299993  0.033511  0.307363 -0.289650
     9 z      -0.165065  0.153412  0.248474  0.147781  0.479771 -0.232865
    10 x      -0.040374  0.342620 -0.345262  0.018549  0.208726  0.229297
    10 y       0.175301  0.204130 -0.109731  0.272937 -0.156484 -0.304575
    10 z      -0.195235  0.054282 -0.169545 -0.206814 -0.508836 -0.229990
    11 x       0.088184 -0.169996 -0.018748 -0.193245  0.078462  0.123154
    11 y      -0.212974  0.032591 -0.095236 -0.098850 -0.027852  0.043520
    11 z      -0.141024 -0.194893  0.199630 -0.075591 -0.000901  0.051055
    12 x       0.119404 -0.033997  0.162210  0.183006 -0.016264 -0.125326
    12 y      -0.221451 -0.108672  0.146468  0.054247 -0.074885 -0.077882
    12 z      -0.052887  0.235672 -0.097747  0.043588 -0.027514  0.007992


  Frequency     467.8195  502.7292  509.7316  535.5555  539.5187  589.6251
  IR Intensity    0.0037    0.0549    0.0010    0.0141    0.0031    0.1718
     in X         0.0020    0.0002    0.0005    0.0065    0.0016    0.0274
     in Y         0.0017    0.0010    0.0005    0.0075    0.0014    0.0547
     in Z         0.0001    0.0537    0.0000    0.0000    0.0001    0.0897
  Raman Intsty    1.9654    0.0000    3.8198    0.0000    0.1686    0.0000

     1 x       0.012669 -0.050286  0.074140  0.161389 -0.200345  0.110384
     1 y      -0.011863  0.018313 -0.065952 -0.288633  0.359422 -0.172851
     1 z      -0.028807  0.194925 -0.198619 -0.133484  0.163132 -0.150576
     2 x       0.109386  0.029809 -0.009010 -0.180913  0.006304  0.284548
     2 y       0.102762 -0.012961 -0.008464  0.231264  0.005930 -0.387918
     2 z      -0.019796  0.097431  0.001630  0.200846 -0.001138 -0.441400
     3 x      -0.005633  0.021095 -0.023886  0.250774  0.312910  0.136229
     3 y       0.018472  0.085371  0.113163 -0.204643 -0.253688 -0.148572
     3 z       0.027533  0.182007  0.189523 -0.149656 -0.183507 -0.155254
     4 x       0.011134  0.208498  0.217384  0.041835  0.075844  0.062656
     4 y       0.015114  0.233942  0.246423  0.053819  0.117419  0.122522
     4 z       0.008828 -0.002850 -0.008819  0.004399  0.010631  0.012263
     5 x       0.143658  0.107210 -0.145675 -0.033119  0.106333 -0.109642
     5 y      -0.456352 -0.051698  0.159849 -0.053536 -0.132668  0.198596
     5 z       0.242683 -0.403047  0.370229  0.313294 -0.204963  0.079878
     6 x      -0.001078 -0.021434 -0.025528 -0.011088 -0.028815 -0.035581
     6 y      -0.002272 -0.220681 -0.230351 -0.043729 -0.083759 -0.073392
     6 z       0.012082  0.236016  0.238578  0.060186  0.118665  0.116213
     7 x      -0.487184 -0.030191  0.080405  0.113190 -0.086707 -0.174877
     7 y       0.133627 -0.180780 -0.221166  0.083906  0.151104  0.137312
     7 z      -0.180514 -0.378182 -0.358415  0.286811  0.201421  0.091684
     8 x       0.269397  0.007257 -0.047993 -0.009421  0.033339 -0.018042
     8 y       0.253084 -0.005828 -0.045087  0.014825  0.031320  0.021244
     8 z      -0.048754  0.009843  0.008686  0.024907 -0.006033  0.010584
     9 x       0.060872 -0.235021 -0.183263 -0.319539 -0.399186 -0.167670
     9 y      -0.205822  0.046716  0.067432  0.014738  0.149769  0.218042
     9 z      -0.288908 -0.129120 -0.088067 -0.307123 -0.093185  0.221213
    10 x      -0.144621 -0.059837  0.074690 -0.058372  0.146879 -0.164679
    10 y       0.127145  0.211291 -0.169431  0.260108 -0.386789  0.220852
    10 z       0.304064 -0.160824  0.107716 -0.354393  0.138834  0.220672
    11 x      -0.004560  0.262033 -0.272185  0.054766 -0.105864  0.095531
    11 y      -0.003025  0.045622 -0.049335  0.018134 -0.042765  0.049781
    11 z      -0.011061  0.184715 -0.184700  0.048273 -0.094290  0.092486
    12 x       0.013650 -0.239251  0.253016 -0.053819  0.116529 -0.120646
    12 y       0.008170 -0.186694  0.195493 -0.036041  0.063306 -0.049680
    12 z      -0.013313  0.078181 -0.076311  0.021710 -0.045445  0.045435


  Frequency     640.9259  722.1763  778.2325  786.2838  801.3158  803.3394
  IR Intensity    0.1376    0.0191    0.0000    0.0014    0.0016    0.0056
     in X         0.0337    0.0100    0.0000    0.0003    0.0005    0.0029
     in Y         0.0194    0.0088    0.0000    0.0002    0.0003    0.0026
     in Z         0.0845    0.0003    0.0000    0.0008    0.0008    0.0001
  Raman Intsty    0.0000    0.2815    0.3953    0.0000    0.0000    0.0212

     1 x       0.037636 -0.026985 -0.085852 -0.040260  0.470230  0.463436
     1 y      -0.170016  0.235081 -0.166268  0.217685  0.223581  0.189003
     1 z       0.163376 -0.418218  0.229942 -0.436642  0.080779  0.146008
     2 x       0.352369  0.214249  0.478075  0.208740  0.019323  0.101664
     2 y      -0.287529  0.201276  0.449128 -0.122464 -0.013597  0.095506
     2 z       0.454488 -0.038774 -0.086520  0.517698  0.036279 -0.018397
     3 x       0.195993  0.308451 -0.210355 -0.294280 -0.224884  0.178274
     3 y      -0.021247  0.029341 -0.112004 -0.020951 -0.429482  0.413815
     3 z       0.134718  0.367281 -0.176335 -0.390673  0.206612 -0.262111
     4 x      -0.162186 -0.161793  0.110979  0.104834  0.215427 -0.194994
     4 y      -0.175355 -0.176051  0.127596  0.109830  0.261631 -0.238832
     4 z       0.002226 -0.013631  0.006177  0.014171 -0.010196  0.013284
     5 x      -0.095213 -0.023716  0.026701 -0.064296 -0.022047 -0.013776
     5 y       0.255199 -0.023077 -0.092327  0.111936  0.001505 -0.026838
     5 z      -0.161502  0.120140 -0.013778  0.031149 -0.006585 -0.003945
     6 x       0.009485  0.004823  0.005540 -0.000682  0.034489 -0.034376
     6 y       0.148580  0.153204 -0.014051 -0.115255  0.222186 -0.231059
     6 z      -0.156224 -0.186618  0.028690  0.144503 -0.234564  0.247228
     7 x      -0.276657 -0.046391 -0.086787 -0.101079 -0.001741 -0.026191
     7 y       0.084742 -0.042784  0.035879  0.077381  0.020578 -0.010707
     7 z      -0.128666 -0.107453  0.024652  0.037805 -0.010261  0.011176
     8 x      -0.014583 -0.251379 -0.393597 -0.010093 -0.002633 -0.077475
     8 y       0.014273 -0.236157 -0.369764  0.007813  0.002800 -0.072783
     8 z      -0.006490  0.045493  0.071230 -0.015206 -0.000085  0.014021
     9 x      -0.129137 -0.162822  0.057472  0.128172  0.007222  0.006301
     9 y       0.016650  0.035775 -0.048777 -0.071973  0.011848 -0.023944
     9 z      -0.123288 -0.075033  0.008835 -0.013674 -0.012323  0.008978
    10 x      -0.033922  0.042075 -0.046978  0.062353 -0.014267 -0.024910
    10 y       0.106099 -0.149211  0.058636 -0.133806 -0.008344  0.006465
    10 z      -0.140520  0.096885 -0.010734 -0.001763 -0.008432 -0.005613
    11 x      -0.175696  0.185770 -0.018962  0.140400 -0.263770 -0.274948
    11 y      -0.025388  0.025849  0.001443  0.017285 -0.058044 -0.059504
    11 z      -0.122711  0.152125 -0.026262  0.118970 -0.180550 -0.191286
    12 x       0.179613 -0.177282  0.128910 -0.109700 -0.268069 -0.245464
    12 y       0.145747 -0.142493  0.097767 -0.091714 -0.192598 -0.174946
    12 z      -0.059630  0.074995 -0.049591  0.052996  0.077300  0.066431




--------------------------------------------------------------------------------
  Vibrational properties (for cluster):  Temperature  =       0.000 K
--------------------------------------------------------------------------------
  Zero point energy            =        0.710658 eV
--------------------------------------------------------------------------------

  Phonon density of states : 

--------------------------------------------------------------------------------
 Frequency (cm-1) Density of States                                             
--------------------------------------------------------------------------------
    0.00000 |******************************                                0.029
   12.55218 |                                                              0.000
   25.10436 |************************************************************  0.059
   37.65654 |******************************                                0.029
   50.20872 |******************************                                0.029
   62.76090 |******************************                                0.029
   75.31308 |                                                              0.000
   87.86526 |******************************                                0.029
  100.41743 |******************************                                0.029
  112.96961 |                                                              0.000
  125.52179 |                                                              0.000
  138.07397 |                                                              0.000
  150.62615 |************************************************************  0.059
  163.17833 |************************************************************  0.059
  175.73051 |                                                              0.000
  188.28269 |                                                              0.000
  200.83487 |************************************************************  0.059
  213.38705 |************************************************************  0.059
  225.93923 |                                                              0.000
  238.49141 |******************************                                0.029
  251.04359 |                                                              0.000
  263.59577 |******************************                                0.029
  276.14795 |******************************                                0.029
  288.70013 |                                                              0.000
  301.25230 |                                                              0.000
  313.80448 |                                                              0.000
  326.35666 |                                                              0.000
  338.90884 |******************************                                0.029
  351.46102 |                                                              0.000
  364.01320 |                                                              0.000
  376.56538 |******************************                                0.029
  389.11756 |******************************                                0.029
  401.66974 |                                                              0.000
  414.22192 |                                                              0.000
  426.77410 |                                                              0.000
  439.32628 |                                                              0.000
  451.87846 |                                                              0.000
  464.43064 |******************************                                0.029
  476.98282 |                                                              0.000
  489.53499 |                                                              0.000
  502.08717 |************************************************************  0.059
  514.63935 |                                                              0.000
  527.19153 |************************************************************  0.059
  539.74371 |                                                              0.000
  552.29589 |                                                              0.000
  564.84807 |                                                              0.000
  577.40025 |******************************                                0.029
  589.95243 |                                                              0.000
  602.50461 |                                                              0.000
  615.05679 |                                                              0.000
  627.60897 |                                                              0.000
  640.16115 |******************************                                0.029
  652.71333 |                                                              0.000
  665.26551 |                                                              0.000
  677.81769 |                                                              0.000
  690.36986 |                                                              0.000
  702.92204 |                                                              0.000
  715.47422 |******************************                                0.029
  728.02640 |                                                              0.000
  740.57858 |                                                              0.000
  753.13076 |                                                              0.000
  765.68294 |******************************                                0.029
  778.23512 |******************************                                0.029
  790.78730 |************************************************************  0.059
--------------------------------------------------------------------------------



  Time to end of optimisation =       0.0376 seconds


  Peak dynamic memory used =       0.65 MB 


  Timing analysis for GULP :

--------------------------------------------------------------------------------
  Task / Subroutine                                          Time (Seconds)
--------------------------------------------------------------------------------
  Calculation of real space energy and derivatives                0.0026
  Calculation of phonons                                          0.0016
  Calculation and manipulation of Hessian matrix                  0.0018
--------------------------------------------------------------------------------
  Total CPU time                                                  0.0376
--------------------------------------------------------------------------------


  Job Finished at 14:38.29 25th May        2022                               

