12
Properties=species:S:1:pos:R:3:forces:R:3 energy=-186.13173555 pbc="F F F"
Al    0.8876503800000001    0.544477317    2.631937273    -1.431572    2.000712    0.074555
Al    1.6104175    0.8113172999999999    -0.25759960000000004    0.547573    -1.390579    -0.413616
Al    -0.698489162    1.3236602499999999    -2.087755573    -0.997191    1.787332    1.367077
F    -1.2617465719999998    -0.571796153    -2.386549306    -0.132399    -1.359274    -0.257671
F    1.9566825529999998    -0.37831015300000004    1.1717085520000001    0.130141    -0.215906    0.357221
F    0.252120839    1.41739409    -3.835830933    0.772929    -0.142729    -1.06702
F    -0.27655901    2.043515453    -0.377563149    0.134853    0.175004    0.525157
F    2.459498957    2.484311012    -0.266751143    0.138955    0.654533    0.061359
F    0.929744039    0.126169905    -1.884033254    -0.127232    -0.089467    -0.408606
F    0.28790271700000003    1.766222129    1.302044839    -0.184407    0.331839    -0.42483
F    2.689529669    0.22003287600000004    3.416902837    1.234903    -0.369677    0.307648
F    0.427648975    -1.401702052    2.640393371    -0.086553    -1.381788    -0.121273
