------------------------------------------------------------
          Invoking FHI-aims ...

          When using FHI-aims, please cite the following reference:

            Volker Blum, Ralf Gehrke, Felix Hanke, Paula Havu,
            Ville Havu, Xinguo Ren, Karsten Reuter, and Matthias Scheffler,
            'Ab Initio Molecular Simulations with Numeric Atom-Centered Orbitals',
            Computer Physics Communications 180, 2175-2196 (2009)

          In addition, many other developments in FHI-aims are likely important for
          your particular application. A partial list of references is given at the end of
          this file. Thank you for giving credit to the authors of these developments.

          For any questions about FHI-aims, please visit our slack channel at

            https://fhi-aims.slack.com

          and our main development and support site at

            https://aims-git.rz-berlin.mpg.de .

          The latter site, in particular, has a wiki to collect information, as well
          as an issue tracker to log discussions, suggest improvements, and report issues
          or bugs. https://aims-git.rz-berlin.mpg.de is also the main development site
          of the project and all new and updated code versions can be obtained there.
          Please send an email to aims-coordinators@fhi-berlin.mpg.de and we will add
          you to these sites. They are for you and everyone is welcome there.

------------------------------------------------------------



  Date     :  20220517, Time     :  121449.203
  Time zero on CPU 1             :   0.411200000000000E-01  s.
  Internal wall clock time zero  :           422021689.203  s.

  FHI-aims created a unique identifier for this run for later identification
  aims_uuid : 8AE5E30F-417D-449E-A90A-6C3131F5BCA9

  Build configuration of the current instance of FHI-aims
  -------------------------------------------------------
  FHI-aims version      : 210914
  Commit number         : GITDIR-NOTFOUND
  CMake host system     : Linux-3.10.0-693.17.1.el7.x86_64
  CMake version         : 3.21.1
  Fortran compiler      : /shared/ucl/apps/intel/2018.Update3/impi/2018.3.222/intel64/bin/mpiifort (Intel) version 18.0.3.20180410
  Fortran compiler flags: -O3 -ip -fp-model precise
  C compiler            : /shared/ucl/apps/intel/2018.Update3/compilers_and_libraries_2018.3.222/linux/bin/intel64/icc (Intel) version 18.0.3.20180410
  C compiler flags      : -O3 -ip -fp-model precise -std=gnu99
  ELPA2 kernel          : AVX2
  Using MPI
  Using ScaLAPACK
  Using LibXC
  Using i-PI
  Using RLSY
  Linking against: /shared/ucl/apps/intel/2019.Update5/compilers_and_libraries_2019.5.281/linux/mkl/lib/intel64/libmkl_intel_lp64.so
                   /shared/ucl/apps/intel/2019.Update5/compilers_and_libraries_2019.5.281/linux/mkl/lib/intel64/libmkl_sequential.so
                   /shared/ucl/apps/intel/2019.Update5/compilers_and_libraries_2019.5.281/linux/mkl/lib/intel64/libmkl_core.so
                   /shared/ucl/apps/intel/2019.Update5/compilers_and_libraries_2019.5.281/linux/mkl/lib/intel64/libmkl_blacs_intelmpi_lp64.so
                   /shared/ucl/apps/intel/2019.Update5/compilers_and_libraries_2019.5.281/linux/mkl/lib/intel64/libmkl_scalapack_lp64.so

  Using       24 parallel tasks.
  Task        0 on host node-k98a-015 reporting.
  Task        1 on host node-k98a-015 reporting.
  Task        2 on host node-k98a-015 reporting.
  Task        3 on host node-k98a-015 reporting.
  Task        4 on host node-k98a-015 reporting.
  Task        5 on host node-k98a-015 reporting.
  Task        6 on host node-k98a-015 reporting.
  Task        7 on host node-k98a-015 reporting.
  Task        8 on host node-k98a-015 reporting.
  Task        9 on host node-k98a-015 reporting.
  Task       10 on host node-k98a-015 reporting.
  Task       11 on host node-k98a-015 reporting.
  Task       12 on host node-k98a-015 reporting.
  Task       13 on host node-k98a-015 reporting.
  Task       14 on host node-k98a-015 reporting.
  Task       15 on host node-k98a-015 reporting.
  Task       16 on host node-k98a-015 reporting.
  Task       17 on host node-k98a-015 reporting.
  Task       18 on host node-k98a-015 reporting.
  Task       19 on host node-k98a-015 reporting.
  Task       20 on host node-k98a-015 reporting.
  Task       21 on host node-k98a-015 reporting.
  Task       22 on host node-k98a-015 reporting.
  Task       23 on host node-k98a-015 reporting.

  Performing system and environment tests:
  | Environment variable OMP_NUM_THREADS correctly set to 1.
  | Checking for ScaLAPACK...
  | Testing pdtran()...
  | All pdtran() tests passed.

  Obtaining array dimensions for all initial allocations:
  
  -----------------------------------------------------------------------
  Parsing control.in (first pass over file, find array dimensions only).
  The contents of control.in will be repeated verbatim below
  unless switched off by setting 'verbatim_writeout .false.' .
  in the first line of control.in .
  -----------------------------------------------------------------------
  
  #########################################################################################  Physical model
  #########################################################################################
  xc                 pbesol
  spin               none
  relativistic       atomic_zora scalar
  charge             0.0
  #  SCF convergence
  occupation_type    gaussian 0.01
  mixer              pulay
  n_max_pulay        10
  charge_mix_param   0.5
  sc_accuracy_rho    1E-5
  sc_accuracy_eev    1E-3
  sc_accuracy_etot   1E-6
  sc_accuracy_forces 1E-4
  sc_iter_limit      1500
  #  Relaxation
  #relax_geometry   bfgs 1.e-3
  
  ################################################################################
  #
  #  FHI-aims code project
  #  VB, Fritz-Haber Institut, 2009
  #
  #  Suggested "light" defaults for Al atom (to be pasted into control.in file)
  #  Be sure to double-check any results obtained with these settings for post-processing,
  #  e.g., with the "tight" defaults and larger basis sets.
  #
  ################################################################################
    species        Al
  #     global species definitions
      nucleus             13
      mass                26.9815386
  #
      l_hartree           4
  #
      cut_pot             3.5          1.5  1.0
      basis_dep_cutoff    1e-4
  #
      radial_base         41 5.0
      radial_multiplier   1
      angular_grids       specified
        division   0.6594  110
        division   0.8170  194
        division   0.9059  302
  #      division   1.0363  434
  #      division   1.1443  590
  #      division   1.2621  770
  #      division   2.8177  974
  #      outer_grid   974
        outer_grid   302
  ################################################################################
  #
  #  Definition of "minimal" basis
  #
  ################################################################################
  #     valence basis states
      valence      3  s   2.
      valence      3  p   1.
  #     ion occupancy
      ion_occ      3  s   1.
      ion_occ      2  p   6.
  ################################################################################
  #
  #  Suggested additional basis functions. For production calculations,
  #  uncomment them one after another (the most important basis functions are
  #  listed first).
  #
  #  Constructed for dimers: 2.0 A, 2.5 A, 3.0 A, 3.75 A, 4.5 A
  #
  ################################################################################
  #  "First tier" - improvements: -199.47 meV to -10.63 meV
       ionic 3 d auto
       ionic 3 p auto
  #     hydro 4 f 4.7
       ionic 3 s auto
  #  "Second tier" - improvements: -5.35 meV to -1.57 meV
  #     hydro 5 g 7
  #     hydro 3 d 6
  #     hydro 2 s 11.6
  #     hydro 2 p 0.9
  #  "Third tier" - improvements: -0.63 meV to -0.20 meV
  #     hydro 5 f 7.6
  #     hydro 4 p 7.2
  #     hydro 4 s 3.7
  #     hydro 4 d 7.6
  #  "Fourth tier" - improvements: -0.17 meV to -0.08 meV
  #     hydro 4 d 13.6
  #     hydro 5 g 11.2
  #     hydro 4 d 0.9
  #     hydro 1 s 0.4
  #     hydro 4 p 0.1
  #     hydro 5 f 9.8
  #  Further basis functions that fell out of the optimization - noise level...
  #     hydro 4 p 5
  
  ################################################################################
  #
  #  FHI-aims code project
  #  VB, Fritz-Haber Institut, 2009
  #
  #  Suggested "light" defaults for F atom (to be pasted into control.in file)
  #  Be sure to double-check any results obtained with these settings for post-processing,
  #  e.g., with the "tight" defaults and larger basis sets.
  #
  ################################################################################
    species        F
  #     global species definitions
      nucleus             9
      mass                18.9984032
  #
      l_hartree           4
  #
      cut_pot             3.5  1.5  1.0
      basis_dep_cutoff    1e-4
  #
      radial_base         37 5.0
      radial_multiplier   1
      angular_grids specified
        division   0.4014  110
        division   0.5291  194
        division   0.6019  302
  #      division   0.6814  434
  #      division   0.7989  590
  #      division   0.8965  770
  #      division   1.3427  974
  #      outer_grid   974
        outer_grid   302
  ################################################################################
  #
  #  Definition of "minimal" basis
  #
  ################################################################################
  #     valence basis states
      valence      2  s   2.
      valence      2  p   5.
  #     ion occupancy
      ion_occ      2  s   1.
      ion_occ      2  p   4.
  ################################################################################
  #
  #  Suggested additional basis functions. For production calculations,
  #  uncomment them one after another (the most important basis functions are
  #  listed first).
  #
  #  Constructed for dimers: 1.2 A, 1.418 A, 1.75 A, 2.25 A, 3.25 A
  #
  ################################################################################
  #  "First tier" - improvements: -149.44 meV to -45.88 meV
       hydro 2 p 1.7
       hydro 3 d 7.4
       hydro 3 s 6.8
  #  "Second tier" - improvements: -12.96 meV to -1.56 meV
  #     hydro 4 f 11.2
  #     ionic 2 p auto
  #     hydro 1 s 0.75
  #     hydro 4 d 8.8
  #     hydro 5 g 16.8
  #  "Third tier" - improvements: -0.58 meV to -0.05 meV
  #     hydro 3 p 6.2
  #     hydro 3 s 3.2
  #     hydro 4 f 9.6
  #     hydro 3 s 19.6
  #     hydro 4 d 8.6
  #     hydro 5 g 14.4
  # Further basis functions: -0.05 meV and below
  #     hydro 3 p 4.2
  
  -----------------------------------------------------------------------
  Completed first pass over input file control.in .
  -----------------------------------------------------------------------
  
  
  -----------------------------------------------------------------------
  Parsing geometry.in (first pass over file, find array dimensions only).
  The contents of geometry.in will be repeated verbatim below
  unless switched off by setting 'verbatim_writeout .false.' .
  in the first line of geometry.in .
  -----------------------------------------------------------------------
  
  atom -0.061969613 1.600133972 2.149713420 Al
  atom 2.531388296 2.593169425 1.760246975 Al
  atom 1.334059684 2.725404584 -0.636066254 Al
  atom 1.015326378 3.044446936 2.860537863 F
  atom -1.569311683 2.643469322 2.216744986 F
  atom -0.466206271 -0.079149666 2.705477030 F
  atom 1.823842953 0.848693193 1.887925665 F
  atom 2.954225345 1.898949053 -0.103091416 F
  atom 1.047333209 3.134025933 -2.373107612 F
  atom 1.734836894 4.031848587 0.676244467 F
  atom 4.120893368 3.101141777 2.453163780 F
  atom -0.017337191 1.821914610 0.211104893 F
  
  -----------------------------------------------------------------------
  Completed first pass over input file geometry.in .
  -----------------------------------------------------------------------
  

  Basic array size parameters:
  | Number of species                 :        2
  | Number of atoms                   :       12
  | Max. basis fn. angular momentum   :        2
  | Max. atomic/ionic basis occupied n:        3
  | Max. number of basis fn. types    :        3
  | Max. radial fns per species/type  :        5
  | Max. logarithmic grid size        :     1340
  | Max. radial integration grid size :       41
  | Max. angular integration grid size:      302
  | Max. angular grid division number :        8
  | Radial grid for Hartree potential :     1340
  | Number of spin channels           :        1

------------------------------------------------------------
          Reading file control.in.
------------------------------------------------------------
  XC: Using PBEsol gradient-corrected functionals.
  Spin treatment: No spin polarisation.
  Scalar relativistic treatment of kinetic energy: on-site free-atom approximation to ZORA.
  Charge =   0.000000E+00: Neutral system requested explicitly.
  Occupation type: Gaussian broadening, width =   0.100000E-01 eV.
  Using pulay charge density mixing.
  Pulay mixing - number of memorized iterations:   10
  Charge density mixing - mixing parameter:     0.5000
  Convergence accuracy of self-consistent charge density:  0.1000E-04
  Convergence accuracy of sum of eigenvalues:  0.1000E-02
  Convergence accuracy of total energy:  0.1000E-05
  Convergence accuracy of forces:  0.1000E-03
  Maximum number of s.-c. iterations  :  1500
 
  Reading configuration options for species Al                  .
  | Found nuclear charge :  13.0000
  | Found atomic mass :    26.9815386000000      amu
  | Found l_max for Hartree potential  :   4
  | Found cutoff potl. onset [A], width [A], scale factor :    3.50000    1.50000    1.00000
  | Threshold for basis-dependent cutoff potential is   0.100000E-03
  | Found data for basic radial integration grid :    41 points, outermost radius =    5.000 A
  | Found multiplier for basic radial grid :   1
  | Found angular grid specification: user-specified.
  | Specified grid contains     4 separate shells.
  | Check grid settings after all constraints further below.
  | Found free-atom valence shell :  3 s   2.000
  | Found free-atom valence shell :  3 p   1.000
  | Found free-ion valence shell :  3 s   1.000
  | Found free-ion valence shell :  2 p   6.000
  | Found ionic basis function :  3 d , default cutoff radius.
  | Found ionic basis function :  3 p , default cutoff radius.
  | Found ionic basis function :  3 s , default cutoff radius.
  Species Al                  : Missing cutoff potential type.
  Defaulting to exp(1/x)/(1-x)^2 type cutoff potential.
  Species Al: No 'logarithmic' tag. Using default grid for free atom:
  | Default logarithmic grid data [bohr] : 0.1000E-03 0.1000E+03 0.1012E+01
  | Will include ionic basis functions of  2.0-fold positive Al                   ion.
  Species Al: On-site basis accuracy parameter (for Gram-Schmidt orthonormalisation) not specified.
  Using default value basis_acc =  0.1000000E-03.
  Species Al                  : Using default innermost maximum threshold i_radial=  2 for radial functions.
  Species Al                  : Default cutoff onset for free atom density etc. : 0.35000000E+01 AA.
  Species Al                  : Basic radial grid will be enhanced according to radial_multiplier =   1, to contain    41 grid points.
 
  Reading configuration options for species F                   .
  | Found nuclear charge :   9.0000
  | Found atomic mass :    18.9984032000000      amu
  | Found l_max for Hartree potential  :   4
  | Found cutoff potl. onset [A], width [A], scale factor :    3.50000    1.50000    1.00000
  | Threshold for basis-dependent cutoff potential is   0.100000E-03
  | Found data for basic radial integration grid :    37 points, outermost radius =    5.000 A
  | Found multiplier for basic radial grid :   1
  | Found angular grid specification: user-specified.
  | Specified grid contains     4 separate shells.
  | Check grid settings after all constraints further below.
  | Found free-atom valence shell :  2 s   2.000
  | Found free-atom valence shell :  2 p   5.000
  | Found free-ion valence shell :  2 s   1.000
  | Found free-ion valence shell :  2 p   4.000
  | Found hydrogenic basis function :  2 p   1.700
  | Found hydrogenic basis function :  3 d   7.400
  | Found hydrogenic basis function :  3 s   6.800
  Species F                   : Missing cutoff potential type.
  Defaulting to exp(1/x)/(1-x)^2 type cutoff potential.
  Species F : No 'logarithmic' tag. Using default grid for free atom:
  | Default logarithmic grid data [bohr] : 0.1000E-03 0.1000E+03 0.1012E+01
  Species F : On-site basis accuracy parameter (for Gram-Schmidt orthonormalisation) not specified.
  Using default value basis_acc =  0.1000000E-03.
  Species F                   : Using default innermost maximum threshold i_radial=  2 for radial functions.
  Species F                   : Default cutoff onset for free atom density etc. : 0.35000000E+01 AA.
  Species F                   : Basic radial grid will be enhanced according to radial_multiplier =   1, to contain    37 grid points.
 
  Finished reading input file 'control.in'.
 
------------------------------------------------------------


------------------------------------------------------------
          Reading geometry description geometry.in.
------------------------------------------------------------
  | The smallest distance between any two atoms is         1.80684697 AA.
  | The first atom of this pair is atom number                      2 .
  | The second atom of this pair is atom number                    11 .
  Input structure read successfully.
  The structure contains       12 atoms,  and a total of        120.000 electrons.

  Input geometry:
  | No unit cell requested.
  | Atomic structure:
  |       Atom                x [A]            y [A]            z [A]
  |    1: Species Al           -0.06196961        1.60013397        2.14971342
  |    2: Species Al            2.53138830        2.59316943        1.76024698
  |    3: Species Al            1.33405968        2.72540458       -0.63606625
  |    4: Species F             1.01532638        3.04444694        2.86053786
  |    5: Species F            -1.56931168        2.64346932        2.21674499
  |    6: Species F            -0.46620627       -0.07914967        2.70547703
  |    7: Species F             1.82384295        0.84869319        1.88792567
  |    8: Species F             2.95422534        1.89894905       -0.10309142
  |    9: Species F             1.04733321        3.13402593       -2.37310761
  |   10: Species F             1.73483689        4.03184859        0.67624447
  |   11: Species F             4.12089337        3.10114178        2.45316378
  |   12: Species F            -0.01733719        1.82191461        0.21110489

 
  Finished reading input file 'control.in'.
 

------------------------------------------------------------
          Reading geometry description geometry.in.
------------------------------------------------------------
 
  Consistency checks for stacksize environment parameter are next.
 
  | Maximum stacksize for task 0: unlimited
  | Maximum stacksize for task 1: unlimited
  | Maximum stacksize for task 2: unlimited
  | Maximum stacksize for task 3: unlimited
  | Maximum stacksize for task 4: unlimited
  | Maximum stacksize for task 5: unlimited
  | Maximum stacksize for task 6: unlimited
  | Maximum stacksize for task 7: unlimited
  | Maximum stacksize for task 8: unlimited
  | Maximum stacksize for task 9: unlimited
  | Maximum stacksize for task 10: unlimited
  | Maximum stacksize for task 11: unlimited
  | Maximum stacksize for task 12: unlimited
  | Maximum stacksize for task 13: unlimited
  | Maximum stacksize for task 14: unlimited
  | Maximum stacksize for task 15: unlimited
  | Maximum stacksize for task 16: unlimited
  | Maximum stacksize for task 17: unlimited
  | Maximum stacksize for task 18: unlimited
  | Maximum stacksize for task 19: unlimited
  | Maximum stacksize for task 20: unlimited
  | Maximum stacksize for task 21: unlimited
  | Maximum stacksize for task 22: unlimited
  | Maximum stacksize for task 23: unlimited
  | Current stacksize for task 0: unlimited
  | Current stacksize for task 1: unlimited
  | Current stacksize for task 2: unlimited
  | Current stacksize for task 3: unlimited
  | Current stacksize for task 4: unlimited
  | Current stacksize for task 5: unlimited
  | Current stacksize for task 6: unlimited
  | Current stacksize for task 7: unlimited
  | Current stacksize for task 8: unlimited
  | Current stacksize for task 9: unlimited
  | Current stacksize for task 10: unlimited
  | Current stacksize for task 11: unlimited
  | Current stacksize for task 12: unlimited
  | Current stacksize for task 13: unlimited
  | Current stacksize for task 14: unlimited
  | Current stacksize for task 15: unlimited
  | Current stacksize for task 16: unlimited
  | Current stacksize for task 17: unlimited
  | Current stacksize for task 18: unlimited
  | Current stacksize for task 19: unlimited
  | Current stacksize for task 20: unlimited
  | Current stacksize for task 21: unlimited
  | Current stacksize for task 22: unlimited
  | Current stacksize for task 23: unlimited
 
  Consistency checks for the contents of control.in are next.
 
  MPI_IN_PLACE appears to work with this MPI implementation.
  | Keeping use_mpi_in_place .true. (see manual).
  Target number of points in a grid batch is not set. Defaulting to  100
  Method for grid partitioning is not set. Defaulting to parallel hash+maxmin partitioning.
  Batch size limit is not set. Defaulting to    200
  By default, will store active basis functions for each batch.
  If in need of memory, prune_basis_once .false. can be used to disable this option.
  communication_type for Hartree potential was not specified.
  Defaulting to calc_hartree .
  Pulay mixer: Number of initial linear mixing iterations not set.
  Defaulting to    0 iterations.
  Work space size for distributed Hartree potential not set.
  Defaulting to   0.200000E+03 MB.
  Algorithm-dependent basis array size parameters:
  | n_max_pulay                         :       10
  Presetting      1001 iterations before the initial mixing cycle
  is restarted anyway using the sc_init_iter criterion / keyword.
  Presetting a factor      1.000 between actual scf density residual
  and density convergence criterion sc_accuracy_rho below which sc_init_iter
  takes no effect.
  Geometry relaxation not requested: no relaxation will be performed.
  Forces evaluation will include force correction term due to incomplete self-consistency (default).
  Handling of forces: Unphysical translation and rotation will be removed from forces.
  No accuracy limit for integral partition fn. given. Defaulting to  0.1000E-14.
  No threshold value for u(r) in integrations given. Defaulting to  0.1000E-05.
  No accuracy for occupation numbers given. Defaulting to  0.1000E-12.
  No threshold value for occupation numbers given. Defaulting to  0.0000E+00.
  No accuracy for fermi level given. Defaulting to  0.1000E-19.
  Maximum # of iterations to find E_F not set. Defaulting to  200.
  Preferred method for the eigenvalue solver ('KS_method') not specified in 'control.in'.
  Calling BLACS routine to test compilation state
  Since ScaLAPACK support is enabled, defaulting to ELPA (via ELSI).
  Will not use alltoall communication since running on < 1024 CPUs.
  Threshold for basis singularities not set.
  Default threshold for basis singularities:  0.1000E-04
  partition_type (choice of integration weights) for integrals was not specified.
  | Using a version of the partition function of Stratmann and coworkers ('stratmann_sparse').
  | At each grid point, the set of atoms used to build the partition table is smoothly restricted to
  | only those atoms whose free-atom density would be non-zero at that grid point.
  Partitioning for Hartree potential was not defined. Using partition_type for integrals.
  | Adjusted default value of keyword multip_moments_threshold to:       0.10000000E-11
  | This value may affect high angular momentum components of the Hartree potential in periodic systems.
  No q(lm)/r^(l+1) cutoff set for long-range Hartree potential.
  | Using default value of  0.100000E-09 .
  | Verify using the multipole_threshold keyword.
  Defaulting to new monopole extrapolation.
  Density update method: automatic selection selected.
  Charge integration errors on the 3D integration grid will be compensated
  by explicit normalization and distribution of residual charges.
  Use the "compensate_multipole_errors" flag to change this behaviour.
  Set 'collect_eigenvectors' to be '.true.' for use_density_matrix .false.
 
  Consistency checks for the contents of geometry.in are next.
 
  Number of empty states per atom not set in control.in - providing a guess from actual geometry.
  | Total number of empty states used during s.c.f. cycle:       36
  If you use a very high smearing, use empty_states (per atom!) in control.in to increase this value.

  Structure-dependent array size parameters: 
  | Maximum number of distinct radial functions  :       14
  | Maximum number of basis functions            :      180
  | Number of Kohn-Sham states (occupied + empty):       96
------------------------------------------------------------

------------------------------------------------------------
          Preparing all fixed parts of the calculation.
------------------------------------------------------------
  Determining machine precision:
    2.225073858507201E-308
  Setting up grids for atomic and cluster calculations.

  Creating wave function, potential, and density for free atoms.

  Species: Al

  List of occupied orbitals and eigenvalues:
    n    l              occ      energy [Ha]    energy [eV]
    1    0           2.0000       -55.621123     -1513.5278
    2    0           2.0000        -3.957030      -107.6763
    3    0           2.0000        -0.272233        -7.4078
    2    1           6.0000        -2.540949       -69.1427
    3    1           1.0000        -0.083300        -2.2667


  Species: F

  List of occupied orbitals and eigenvalues:
    n    l              occ      energy [Ha]    energy [eV]
    1    0           2.0000       -24.399611      -663.9472
    2    0           2.0000        -1.098702       -29.8972
    2    1           5.0000        -0.408210       -11.1080


  Adding cutoff potential to free-atom effective potential.
  Creating fixed part of basis set: Ionic, confined, hydrogenic.
 
  Al                   ion:

  List of free ionic orbitals and eigenvalues:
    n    l      energy [Ha]    energy [eV]
    1    0       -56.418846     -1535.2349
    2    0        -4.732717      -128.7838
    3    0        -0.872690       -23.7471
    2    1        -3.317230       -90.2664


  List of ionic basis orbitals and eigenvalues:
    n    l      energy [Ha]    energy [eV]    outer radius [A]
    3    2        -0.346815        -9.4373       4.594041
    3    1        -0.631870       -17.1940       4.538221
    3    0        -0.872657       -23.7462       4.538221

 
  F                    hydrogenic:
 
  List of hydrogenic basis orbitals: 
    n    l      effective z      eigenvalue [eV]  inner max. [A]     outer max. [A]     outer radius [A]   
    2    1         1.700000        -9.7616           1.243167           1.243167           4.598524
    3    2         7.400000       -82.7828           0.642437           0.642437           3.305741
    3    0         6.800000       -69.9026           0.057798           1.022307           3.781556
 
  Creating atomic-like basis functions for current effective potential.

  Species Al                  :

  List of atomic basis orbitals and eigenvalues:
    n    l      energy [Ha]    energy [eV]    outer radius [A]
    1    0       -55.621123     -1513.5278       0.850197
    2    0        -3.957030      -107.6763       3.144911
    3    0        -0.272233        -7.4078       4.594041
    2    1        -2.540949       -69.1427       3.731966
    3    1        -0.083300        -2.2667       4.594041


  Species F                   :

  List of atomic basis orbitals and eigenvalues:
    n    l      energy [Ha]    energy [eV]    outer radius [A]
    1    0       -24.399611      -663.9472       1.258458
    2    0        -1.098702       -29.8972       4.325857
    2    1        -0.408210       -11.1080       4.487453

  Assembling full basis from fixed parts.
  | Species Al :   atomic orbital   1 s accepted.
  | Species Al :   atomic orbital   2 s accepted.
  | Species Al :    ionic orbital   3 s accepted.
  | Species Al :   atomic orbital   3 s accepted.
  | Species Al :   atomic orbital   2 p accepted.
  | Species Al :    ionic orbital   3 p accepted.
  | Species Al :   atomic orbital   3 p accepted.
  | Species Al :    ionic orbital   3 d accepted.
  | Species F :   atomic orbital   1 s accepted.
  | Species F :    hydro orbital   3 s accepted.
  | Species F :   atomic orbital   2 s accepted.
  | Species F :   atomic orbital   2 p accepted.
  | Species F :    hydro orbital   2 p accepted.
  | Species F :    hydro orbital   3 d accepted.
 
  Basis size parameters after reduction:
  | Total number of radial functions:       14
  | Total number of basis functions :      180
 
  Per-task memory consumption for arrays in subroutine allocate_ext:
  |           4.807768MB.
  Testing on-site integration grid accuracy.
  |  Species  Function  <phi|h_atom|phi> (log., in eV)  <phi|h_atom|phi> (rad., in eV)
           1        1              -1513.5277717935              -1513.5271881332
           1        2               -107.6762691836               -107.6762662489
           1        3                 -6.9467474784                 -6.9471269649
           1        4                  5.5771951849                  5.4862107220 ***
           1        5                -69.1427313144                -69.1427312731
           1        6                 -1.5197375330                 -1.5230432022
           1        7                  6.8210948310                  6.5529872240 ***
           1        8                  4.3216540965                  4.2851170187 ***
           2        9               -663.9471986398               -663.9470363334
           2       10                 16.8514011578                 16.8512525338
           2       11                -28.4490593856                -28.4490661472
           2       12                -11.1080115307                -11.1080620173
           2       13                  7.1940182175                  7.1685154137
           2       14                 44.8544281765                 44.8543763625
 * Note: Onsite integrals marked "***" above are less accurate than
 * onsite_accuracy_threshold =    0.03000 eV. Usually, this is harmless.
 * When in doubt, tighten the "radial" and/or "radial_multiplier" flags to check.

  Preparing densities etc. for the partition functions (integrals / Hartree potential).

  Preparations completed.
  max(cpu_time)          :      0.184 s.
  Wall clock time (cpu1) :      0.184 s.
------------------------------------------------------------

------------------------------------------------------------
          Begin self-consistency loop: Initialization.

          Date     :  20220517, Time     :  121449.435
------------------------------------------------------------

  Initializing index lists of integration centers etc. from given atomic structure:
  | Number of centers in hartree potential         :        12
  | Number of centers in hartree multipole         :        12
  | Number of centers in electron density summation:        12
  | Number of centers in basis integrals           :        12
  | Number of centers in integrals                 :        12
  | Number of centers in hamiltonian               :        12
  * Using 24 tasks for Scalapack Eigenvalue solver.
  Detailed listing of tasks and assigned k-points:
  (for non-periodic systems, the "k-point" denotes an internal label only)
   Task     0 k-point     1 on node-k98a-015
   Task     1 k-point     1 on node-k98a-015
   Task     2 k-point     1 on node-k98a-015
   Task     3 k-point     1 on node-k98a-015
   Task     4 k-point     1 on node-k98a-015
   Task     5 k-point     1 on node-k98a-015
   Task     6 k-point     1 on node-k98a-015
   Task     7 k-point     1 on node-k98a-015
   Task     8 k-point     1 on node-k98a-015
   Task     9 k-point     1 on node-k98a-015
   Task    10 k-point     1 on node-k98a-015
   Task    11 k-point     1 on node-k98a-015
   Task    12 k-point     1 on node-k98a-015
   Task    13 k-point     1 on node-k98a-015
   Task    14 k-point     1 on node-k98a-015
   Task    15 k-point     1 on node-k98a-015
   Task    16 k-point     1 on node-k98a-015
   Task    17 k-point     1 on node-k98a-015
   Task    18 k-point     1 on node-k98a-015
   Task    19 k-point     1 on node-k98a-015
   Task    20 k-point     1 on node-k98a-015
   Task    21 k-point     1 on node-k98a-015
   Task    22 k-point     1 on node-k98a-015
   Task    23 k-point     1 on node-k98a-015
  Tasks:    24 split into      6 X      4 BLACS grid
  Calculating block size based on n_basis =          180  max_nprow =            6  max_npcol =            4
  ScaLAPACK block size set to:           16
  Allocating        0.012 MB for ovlp
  Allocating        0.012 MB for ham
  Allocating        0.012 MB for eigenvec
  Required Scalapack workspace - INTEGER:            1  REAL:             1
  Partitioning the integration grid into batches with parallel hashing+maxmin method.
  | Number of batches:     1024
  | Maximal batch size:     195
  | Minimal batch size:      18
  | Average batch size:      89.766
  | Standard deviation of batch sizes:      24.713

  Integration load balanced across    24 MPI tasks.
  Work distribution over tasks is as follows:
  Task     0 has       3857 integration points.
  Task     1 has       3920 integration points.
  Task     2 has       3864 integration points.
  Task     3 has       3789 integration points.
  Task     4 has       3847 integration points.
  Task     5 has       3784 integration points.
  Task     6 has       3844 integration points.
  Task     7 has       3836 integration points.
  Task     8 has       3849 integration points.
  Task     9 has       3780 integration points.
  Task    10 has       3783 integration points.
  Task    11 has       3805 integration points.
  Task    12 has       3899 integration points.
  Task    13 has       3858 integration points.
  Task    14 has       3788 integration points.
  Task    15 has       3847 integration points.
  Task    16 has       3778 integration points.
  Task    17 has       3840 integration points.
  Task    18 has       3853 integration points.
  Task    19 has       3853 integration points.
  Task    20 has       3804 integration points.
  Task    21 has       3787 integration points.
  Task    22 has       3811 integration points.
  Task    23 has       3844 integration points.
  Initializing partition tables, free-atom densities, potentials, etc. across the integration grid (initialize_grid_storage).
  | initialize_grid_storage: Actual outermost partition radius vs. multipole_radius_free
  | (-- VB: in principle, multipole_radius_free should be larger, hence this output)
  | Species        1: Confinement radius =              4.999999999999999 AA, multipole_radius_free =              5.004487022111096 AA.
  | Species        1: outer_partition_radius set to              5.004487022111096 AA .
  | Species        2: Confinement radius =              4.999999999999999 AA, multipole_radius_free =              5.009370088163274 AA.
  | Species        2: outer_partition_radius set to              5.009370088163274 AA .
  | The sparse table of interatomic distances needs          1.64 kbyte instead of         1.15 kbyte of memory.
  | Using the partition_type stratmann_smoother will reduce your memory usage.
  | Net number of integration points:    91920
  | of which are non-zero points    :    85081
  Renormalizing the initial density to the exact electron count on the 3D integration grid.
  | Initial density: Formal number of electrons (from input files) :     120.0000000000
  | Integrated number of electrons on 3D grid     :     119.9998164984
  | Charge integration error                      :      -0.0001835016
  | Normalization factor for density and gradient :       1.0000015292
  Renormalizing the free-atom superposition density to the exact electron count on the 3D integration grid.
  | Formal number of electrons (from input files) :     120.0000000000
  | Integrated number of electrons on 3D grid     :     119.9998164984
  | Charge integration error                      :      -0.0001835016
  | Normalization factor for density and gradient :       1.0000015292
  Obtaining max. number of non-zero basis functions in each batch (get_n_compute_maxes).
  | Maximal number of non-zero basis functions:      164 in task     0
  | Maximal number of non-zero basis functions:      167 in task     1
  | Maximal number of non-zero basis functions:      164 in task     2
  | Maximal number of non-zero basis functions:      166 in task     3
  | Maximal number of non-zero basis functions:      166 in task     4
  | Maximal number of non-zero basis functions:      171 in task     5
  | Maximal number of non-zero basis functions:      166 in task     6
  | Maximal number of non-zero basis functions:      172 in task     7
  | Maximal number of non-zero basis functions:      167 in task     8
  | Maximal number of non-zero basis functions:      171 in task     9
  | Maximal number of non-zero basis functions:      162 in task    10
  | Maximal number of non-zero basis functions:      170 in task    11
  | Maximal number of non-zero basis functions:      163 in task    12
  | Maximal number of non-zero basis functions:      165 in task    13
  | Maximal number of non-zero basis functions:      166 in task    14
  | Maximal number of non-zero basis functions:      163 in task    15
  | Maximal number of non-zero basis functions:      166 in task    16
  | Maximal number of non-zero basis functions:      165 in task    17
  | Maximal number of non-zero basis functions:      172 in task    18
  | Maximal number of non-zero basis functions:      166 in task    19
  | Maximal number of non-zero basis functions:      170 in task    20
  | Maximal number of non-zero basis functions:      171 in task    21
  | Maximal number of non-zero basis functions:      171 in task    22
  | Maximal number of non-zero basis functions:      164 in task    23
  Selecting the method for density update.
  Loop over occupied states selected for charge density update.
  Allocating        0.132 MB for KS_eigenvector
  Integrating Hamiltonian matrix: batch-based integration.
  Time summed over all CPUs for integration: real work        0.759 s, elapsed        0.814 s
  Integrating overlap matrix.
  Time summed over all CPUs for integration: real work        0.288 s, elapsed        0.311 s
  Deallocating overlap matrix.

  Updating Kohn-Sham eigenvalues and eigenvectors using ELSI and the ELPA eigensolver.
  Overlap matrix is not singular
  | Lowest and highest eigenvalues :  0.3091E-02,  0.5742E+01
  Finished singularity check of overlap matrix
  | Time :     0.004 s
  Starting ELPA eigensolver
  Finished Cholesky decomposition
  | Time :     0.002 s
  Finished transformation to standard eigenproblem
  | Time :     0.001 s
  Finished solving standard eigenproblem
  | Time :     0.004 s
  Finished back-transformation of eigenvectors
  | Time :     0.000 s

  Obtaining occupation numbers and chemical potential using ELSI.
  | Chemical potential (Fermi level):    -7.32809449 eV
  Writing Kohn-Sham eigenvalues.

  State    Occupation    Eigenvalue [Ha]    Eigenvalue [eV]
      1       2.00000         -55.485973        -1509.85014
      2       2.00000         -55.484826        -1509.81894
      3       2.00000         -55.484033        -1509.79736
      4       2.00000         -24.364979         -663.00482
      5       2.00000         -24.357034         -662.78861
      6       2.00000         -24.356693         -662.77933
      7       2.00000         -24.352829         -662.67420
      8       2.00000         -24.352542         -662.66639
      9       2.00000         -24.341652         -662.37005
     10       2.00000         -24.341587         -662.36828
     11       2.00000         -24.340787         -662.34652
     12       2.00000         -24.338523         -662.28489
     13       2.00000          -3.951581         -107.52798
     14       2.00000          -3.950174         -107.48970
     15       2.00000          -3.949211         -107.46351
     16       2.00000          -2.544654          -69.24356
     17       2.00000          -2.543588          -69.21455
     18       2.00000          -2.543021          -69.19911
     19       2.00000          -2.542602          -69.18772
     20       2.00000          -2.541779          -69.16534
     21       2.00000          -2.541736          -69.16415
     22       2.00000          -2.541402          -69.15507
     23       2.00000          -2.540812          -69.13902
     24       2.00000          -2.540066          -69.11872
     25       2.00000          -1.191559          -32.42398
     26       2.00000          -1.181948          -32.16243
     27       2.00000          -1.175285          -31.98114
     28       2.00000          -1.171165          -31.86901
     29       2.00000          -1.161808          -31.61440
     30       2.00000          -1.150557          -31.30826
     31       2.00000          -1.150302          -31.30130
     32       2.00000          -1.149548          -31.28080
     33       2.00000          -1.144909          -31.15456
     34       2.00000          -0.560923          -15.26349
     35       2.00000          -0.558171          -15.18860
     36       2.00000          -0.544256          -14.80996
     37       2.00000          -0.522834          -14.22704
     38       2.00000          -0.520366          -14.15988
     39       2.00000          -0.510981          -13.90450
     40       2.00000          -0.507903          -13.82073
     41       2.00000          -0.502988          -13.68699
     42       2.00000          -0.498431          -13.56299
     43       2.00000          -0.495660          -13.48759
     44       2.00000          -0.490111          -13.33660
     45       2.00000          -0.487935          -13.27740
     46       2.00000          -0.479445          -13.04637
     47       2.00000          -0.473702          -12.89009
     48       2.00000          -0.472810          -12.86581
     49       2.00000          -0.467014          -12.70809
     50       2.00000          -0.465327          -12.66218
     51       2.00000          -0.461048          -12.54574
     52       2.00000          -0.454359          -12.36373
     53       2.00000          -0.453329          -12.33571
     54       2.00000          -0.452853          -12.32275
     55       2.00000          -0.452189          -12.30469
     56       2.00000          -0.451377          -12.28259
     57       2.00000          -0.450698          -12.26412
     58       2.00000          -0.444358          -12.09161
     59       2.00000          -0.443719          -12.07420
     60       2.00000          -0.440086          -11.97535
     61       0.00000          -0.142663           -3.88206
     62       0.00000          -0.087403           -2.37837
     63       0.00000          -0.069689           -1.89632
     64       0.00000          -0.032881           -0.89475
     65       0.00000          -0.021316           -0.58004
     66       0.00000           0.001606            0.04371
     67       0.00000           0.020486            0.55746
     68       0.00000           0.030978            0.84296
     69       0.00000           0.051108            1.39073
     70       0.00000           0.074430            2.02535
     71       0.00000           0.078110            2.12548
     72       0.00000           0.116516            3.17057
     73       0.00000           0.149126            4.05794
     74       0.00000           0.162176            4.41304
     75       0.00000           0.169393            4.60943
     76       0.00000           0.179613            4.88752
     77       0.00000           0.193766            5.27264
     78       0.00000           0.197587            5.37662
     79       0.00000           0.210725            5.73412
     80       0.00000           0.215688            5.86917
     81       0.00000           0.225152            6.12669
     82       0.00000           0.227762            6.19773
     83       0.00000           0.238173            6.48102
     84       0.00000           0.241444            6.57002
     85       0.00000           0.259612            7.06441
     86       0.00000           0.266186            7.24330
     87       0.00000           0.269952            7.34575
     88       0.00000           0.277478            7.55055
     89       0.00000           0.279129            7.59548
     90       0.00000           0.293556            7.98808
     91       0.00000           0.297310            8.09021
     92       0.00000           0.337483            9.18338
     93       0.00000           0.340567            9.26731
     94       0.00000           0.360801            9.81789
     95       0.00000           0.372563           10.13794
     96       0.00000           0.385441           10.48837

  Highest occupied state (VBM) at    -11.97534916 eV
  | Occupation number:      2.00000000

  Lowest unoccupied state (CBM) at    -3.88205858 eV
  | Occupation number:      0.00000000

  Overall HOMO-LUMO gap:      8.09329058 eV.
  Calculating total energy contributions from superposition of free atom densities.

  Total energy components:
  | Sum of eigenvalues            :        -887.74407108 Ha      -24156.74525577 eV
  | XC energy correction          :        -144.40123499 Ha       -3929.35752754 eV
  | XC potential correction       :         188.02245379 Ha        5116.35128476 eV
  | Free-atom electrostatic energy:        -781.23361504 Ha      -21258.44828330 eV
  | Hartree energy correction     :           0.00000000 Ha           0.00000000 eV
  | Entropy correction            :           0.00000000 Ha           0.00000000 eV
  | ---------------------------
  | Total energy                  :       -1625.35646732 Ha      -44228.19978185 eV
  | Total energy, T -> 0          :       -1625.35646732 Ha      -44228.19978185 eV  <-- do not rely on this value for anything but (periodic) metals
  | Electronic free energy        :       -1625.35646732 Ha      -44228.19978185 eV

  Derived energy quantities:
  | Kinetic energy                :        1627.75171659 Ha       44293.37783062 eV
  | Electrostatic energy          :       -3108.70694892 Ha      -84592.22008493 eV
  | Energy correction for multipole
  | error in Hartree potential    :           0.00000000 Ha           0.00000000 eV
  | Sum of eigenvalues per atom                           :       -2013.06210465 eV
  | Total energy (T->0) per atom                          :       -3685.68331515 eV  <-- do not rely on this value for anything but (periodic) metals
  | Electronic free energy per atom                       :       -3685.68331515 eV
  Initialize hartree_potential_storage
  Max. number of atoms included in rho_multipole:           12

  End scf initialization - timings             :  max(cpu_time)    wall_clock(cpu1)
  | Time for scf. initialization                :        0.123 s           0.124 s
  | Boundary condition initialization           :        0.000 s           0.001 s
  | Integration                                 :        0.048 s           0.048 s
  | Solution of K.-S. eqns.                     :        0.012 s           0.012 s
  | Grid partitioning                           :        0.039 s           0.039 s
  | Preloading free-atom quantities on grid     :        0.016 s           0.017 s
  | Free-atom superposition energy              :        0.005 s           0.005 s
  | Total energy evaluation                     :        0.000 s           0.000 s

  Partial memory accounting:
  | Current value for overall tracked memory usage:
  |   Minimum:        0.273 MB (on task 23)
  |   Maximum:        0.292 MB (on task  0)
  |   Average:        0.287 MB
  | Peak value for overall tracked memory usage:
  |   Minimum:        1.338 MB (on task 23 after allocating wave)
  |   Maximum:        1.413 MB (on task 18 after allocating wave)
  |   Average:        1.374 MB
  | Largest tracked array allocation so far:
  |   Minimum:        0.243 MB (H_times_psi on task 12)
  |   Maximum:        0.558 MB (all_coords on task 14)
  |   Average:        0.273 MB
  Note:  These values currently only include a subset of arrays which are explicitly tracked.
  The "true" memory usage will be greater.
------------------------------------------------------------
  Evaluating new KS density.
  Integration grid: deviation in total charge (<rho> - N_e) =   0.000000E+00

  Time for density update prior                :  max(cpu_time)    wall_clock(cpu1)
  | self-consistency iterative process          :        0.030 s           0.030 s

------------------------------------------------------------
          Begin self-consistency iteration #    1

  Date     :  20220517, Time     :  121449.589
------------------------------------------------------------
  Pulay mixing of updated and previous charge densities.
  Renormalizing the density to the exact electron count on the 3D integration grid.
  | Formal number of electrons (from input files) :     120.0000000000
  | Integrated number of electrons on 3D grid     :     120.0000000000
  | Charge integration error                      :       0.0000000000
  | Normalization factor for density and gradient :       1.0000000000

  Evaluating partitioned Hartree potential by multipole expansion.
  | Original multipole sum: apparent total charge =   0.382034E-13
  | Sum of charges compensated after spline to logarithmic grids =   0.835889E-04
  | Analytical far-field extrapolation by fixed multipoles:
  | Hartree multipole sum: apparent total charge =   0.384832E-13
  Summing up the Hartree potential.
  Time summed over all CPUs for potential: real work        0.384 s, elapsed        0.414 s
  | RMS charge density error from multipole expansion :   0.109724E-01

  Integrating Hamiltonian matrix: batch-based integration.
  Time summed over all CPUs for integration: real work        0.706 s, elapsed        0.762 s

  Updating Kohn-Sham eigenvalues and eigenvectors using ELSI and the ELPA eigensolver.
  Starting ELPA eigensolver
  Finished transformation to standard eigenproblem
  | Time :     0.001 s
  Finished solving standard eigenproblem
  | Time :     0.003 s
  Finished back-transformation of eigenvectors
  | Time :     0.000 s

  Obtaining occupation numbers and chemical potential using ELSI.
  | Chemical potential (Fermi level):    -7.30543636 eV
  Writing Kohn-Sham eigenvalues.

  State    Occupation    Eigenvalue [Ha]    Eigenvalue [eV]
      1       2.00000         -55.676497        -1515.03457
      2       2.00000         -55.660136        -1514.58935
      3       2.00000         -55.619896        -1513.49439
      4       2.00000         -24.248422         -659.83313
      5       2.00000         -24.232815         -659.40845
      6       2.00000         -24.213635         -658.88653
      7       2.00000         -24.201922         -658.56779
      8       2.00000         -24.189264         -658.22335
      9       2.00000         -24.091549         -655.56440
     10       2.00000         -24.075216         -655.11995
     11       2.00000         -24.042036         -654.21709
     12       2.00000         -24.032688         -653.96273
     13       2.00000          -4.115221         -111.98087
     14       2.00000          -4.098672         -111.53054
     15       2.00000          -4.058772         -110.44481
     16       2.00000          -2.708096          -73.69105
     17       2.00000          -2.707884          -73.68526
     18       2.00000          -2.707739          -73.68134
     19       2.00000          -2.692406          -73.26410
     20       2.00000          -2.691144          -73.22975
     21       2.00000          -2.690478          -73.21164
     22       2.00000          -2.652580          -72.18038
     23       2.00000          -2.651980          -72.16404
     24       2.00000          -2.649624          -72.09993
     25       2.00000          -1.169168          -31.81468
     26       2.00000          -1.155805          -31.45104
     27       2.00000          -1.133279          -30.83810
     28       2.00000          -1.128821          -30.71677
     29       2.00000          -1.107984          -30.14979
     30       2.00000          -1.036802          -28.21281
     31       2.00000          -1.021282          -27.79049
     32       2.00000          -0.992422          -27.00517
     33       2.00000          -0.982996          -26.74869
     34       2.00000          -0.559053          -15.21262
     35       2.00000          -0.547783          -14.90594
     36       2.00000          -0.524175          -14.26352
     37       2.00000          -0.498473          -13.56415
     38       2.00000          -0.490765          -13.35439
     39       2.00000          -0.478845          -13.03003
     40       2.00000          -0.476219          -12.95858
     41       2.00000          -0.472814          -12.86594
     42       2.00000          -0.457218          -12.44153
     43       2.00000          -0.450801          -12.26691
     44       2.00000          -0.434688          -11.82846
     45       2.00000          -0.423052          -11.51184
     46       2.00000          -0.416843          -11.34288
     47       2.00000          -0.411939          -11.20944
     48       2.00000          -0.400502          -10.89823
     49       2.00000          -0.391315          -10.64823
     50       2.00000          -0.382462          -10.40731
     51       2.00000          -0.366485           -9.97257
     52       2.00000          -0.346619           -9.43198
     53       2.00000          -0.345616           -9.40470
     54       2.00000          -0.332724           -9.05388
     55       2.00000          -0.330712           -8.99913
     56       2.00000          -0.328851           -8.94849
     57       2.00000          -0.306472           -8.33952
     58       2.00000          -0.302950           -8.24369
     59       2.00000          -0.290949           -7.91714
     60       2.00000          -0.283694           -7.71971
     61       0.00000          -0.161977           -4.40763
     62       0.00000          -0.100316           -2.72973
     63       0.00000          -0.065953           -1.79467
     64       0.00000          -0.060789           -1.65416
     65       0.00000          -0.053238           -1.44867
     66       0.00000          -0.017228           -0.46879
     67       0.00000           0.017629            0.47972
     68       0.00000           0.026253            0.71437
     69       0.00000           0.037206            1.01243
     70       0.00000           0.061091            1.66237
     71       0.00000           0.089268            2.42912
     72       0.00000           0.098613            2.68338
     73       0.00000           0.144515            3.93245
     74       0.00000           0.155812            4.23985
     75       0.00000           0.160146            4.35780
     76       0.00000           0.163346            4.44488
     77       0.00000           0.181781            4.94650
     78       0.00000           0.192065            5.22636
     79       0.00000           0.199546            5.42992
     80       0.00000           0.215961            5.87659
     81       0.00000           0.216700            5.89672
     82       0.00000           0.225251            6.12940
     83       0.00000           0.232074            6.31505
     84       0.00000           0.235175            6.39943
     85       0.00000           0.247852            6.74439
     86       0.00000           0.249470            6.78843
     87       0.00000           0.257239            6.99982
     88       0.00000           0.268387            7.30319
     89       0.00000           0.278858            7.58812
     90       0.00000           0.285834            7.77794
     91       0.00000           0.290130            7.89484
     92       0.00000           0.338741            9.21761
     93       0.00000           0.350779            9.54519
     94       0.00000           0.368021           10.01437
     95       0.00000           0.381018           10.36802
     96       0.00000           0.388542           10.57277

  Highest occupied state (VBM) at     -7.71970698 eV
  | Occupation number:      2.00000000

  Lowest unoccupied state (CBM) at    -4.40763023 eV
  | Occupation number:      0.00000000

  Overall HOMO-LUMO gap:      3.31207676 eV.

  Total energy components:
  | Sum of eigenvalues            :        -882.97850072 Ha      -24027.06748829 eV
  | XC energy correction          :        -145.68664674 Ha       -3964.33536084 eV
  | XC potential correction       :         189.71194122 Ha        5162.32457684 eV
  | Free-atom electrostatic energy:        -781.23361504 Ha      -21258.44828330 eV
  | Hartree energy correction     :          -4.95477517 Ha        -134.82629233 eV
  | Entropy correction            :           0.00000000 Ha           0.00000000 eV
  | ---------------------------
  | Total energy                  :       -1625.14159645 Ha      -44222.35284791 eV
  | Total energy, T -> 0          :       -1625.14159645 Ha      -44222.35284791 eV  <-- do not rely on this value for anything but (periodic) metals
  | Electronic free energy        :       -1625.14159645 Ha      -44222.35284791 eV

  Derived energy quantities:
  | Kinetic energy                :        1633.87878514 Ha       44460.10384889 eV
  | Electrostatic energy          :       -3113.33373486 Ha      -84718.12133597 eV
  | Energy correction for multipole
  | error in Hartree potential    :           0.03349066 Ha           0.91132725 eV
  | Sum of eigenvalues per atom                           :       -2002.25562402 eV
  | Total energy (T->0) per atom                          :       -3685.19607066 eV  <-- do not rely on this value for anything but (periodic) metals
  | Electronic free energy per atom                       :       -3685.19607066 eV
  Evaluating new KS density.
  Integration grid: deviation in total charge (<rho> - N_e) =   0.000000E+00

  Self-consistency convergence accuracy:
  | Change of charge density      :  0.5897E+00
  | Change of sum of eigenvalues  :  0.1297E+03 eV
  | Change of total energy        :  0.5847E+01 eV


------------------------------------------------------------
  End self-consistency iteration #     1       :  max(cpu_time)    wall_clock(cpu1)
  | Time for this iteration                     :        0.092 s           0.093 s
  | Charge density update                       :        0.034 s           0.035 s
  | Density mixing                              :        0.001 s           0.001 s
  | Hartree multipole update                    :        0.001 s           0.001 s
  | Hartree multipole summation                 :        0.018 s           0.018 s
  | Integration                                 :        0.032 s           0.032 s
  | Solution of K.-S. eqns.                     :        0.004 s           0.004 s
  | Total energy evaluation                     :        0.000 s           0.000 s

  Partial memory accounting:
  | Current value for overall tracked memory usage:
  |   Minimum:        0.273 MB (on task 23)
  |   Maximum:        0.292 MB (on task  0)
  |   Average:        0.287 MB
  | Peak value for overall tracked memory usage:
  |   Minimum:        1.338 MB (on task 23 after allocating wave)
  |   Maximum:        1.413 MB (on task 18 after allocating wave)
  |   Average:        1.374 MB
  | Largest tracked array allocation so far:
  |   Minimum:        0.723 MB (gradient_basis_wave on task 10)
  |   Maximum:        0.768 MB (gradient_basis_wave on task  7)
  |   Average:        0.745 MB
  Note:  These values currently only include a subset of arrays which are explicitly tracked.
  The "true" memory usage will be greater.
------------------------------------------------------------

------------------------------------------------------------
          Begin self-consistency iteration #    2

  Date     :  20220517, Time     :  121449.688
------------------------------------------------------------
  Pulay mixing of updated and previous charge densities.
  Renormalizing the density to the exact electron count on the 3D integration grid.
  | Formal number of electrons (from input files) :     120.0000000000
  | Integrated number of electrons on 3D grid     :     120.0000000000
  | Charge integration error                      :      -0.0000000000
  | Normalization factor for density and gradient :       1.0000000000

  Evaluating partitioned Hartree potential by multipole expansion.
  | Original multipole sum: apparent total charge =  -0.331393E-13
  | Sum of charges compensated after spline to logarithmic grids =   0.440161E-04
  | Analytical far-field extrapolation by fixed multipoles:
  | Hartree multipole sum: apparent total charge =  -0.329886E-13
  Summing up the Hartree potential.
  Time summed over all CPUs for potential: real work        0.382 s, elapsed        0.412 s
  | RMS charge density error from multipole expansion :   0.127844E-01

  Integrating Hamiltonian matrix: batch-based integration.
  Time summed over all CPUs for integration: real work        0.708 s, elapsed        0.766 s

  Updating Kohn-Sham eigenvalues and eigenvectors using ELSI and the ELPA eigensolver.
  Starting ELPA eigensolver
  Finished transformation to standard eigenproblem
  | Time :     0.001 s
  Finished solving standard eigenproblem
  | Time :     0.018 s
  Finished back-transformation of eigenvectors
  | Time :     0.002 s

  Obtaining occupation numbers and chemical potential using ELSI.
  | Chemical potential (Fermi level):    -7.55026178 eV
  Highest occupied state (VBM) at     -8.74489749 eV
  | Occupation number:      2.00000000

  Lowest unoccupied state (CBM) at    -4.63474665 eV
  | Occupation number:      0.00000000

  Overall HOMO-LUMO gap:      4.11015084 eV.

  Checking to see if s.c.f. parameters should be adjusted.

  Total energy components:
  | Sum of eigenvalues            :        -885.85170345 Ha      -24105.25131253 eV
  | XC energy correction          :        -145.21784702 Ha       -3951.57867143 eV
  | XC potential correction       :         189.09520003 Ha        5145.54219523 eV
  | Free-atom electrostatic energy:        -781.23361504 Ha      -21258.44828330 eV
  | Hartree energy correction     :          -1.87535309 Ha         -51.03095412 eV
  | Entropy correction            :           0.00000000 Ha           0.00000000 eV
  | ---------------------------
  | Total energy                  :       -1625.08331857 Ha      -44220.76702614 eV
  | Total energy, T -> 0          :       -1625.08331857 Ha      -44220.76702614 eV  <-- do not rely on this value for anything but (periodic) metals
  | Electronic free energy        :       -1625.08331857 Ha      -44220.76702614 eV

  Derived energy quantities:
  | Kinetic energy                :        1630.11916565 Ha       44357.79939726 eV
  | Electrostatic energy          :       -3109.98463720 Ha      -84626.98775197 eV
  | Energy correction for multipole
  | error in Hartree potential    :           0.03746057 Ha           1.01935385 eV
  | Sum of eigenvalues per atom                           :       -2008.77094271 eV
  | Total energy (T->0) per atom                          :       -3685.06391884 eV  <-- do not rely on this value for anything but (periodic) metals
  | Electronic free energy per atom                       :       -3685.06391884 eV
  Evaluating new KS density.
  Integration grid: deviation in total charge (<rho> - N_e) =   5.684342E-14

  Self-consistency convergence accuracy:
  | Change of charge density      :  0.4534E+00
  | Change of sum of eigenvalues  : -0.7818E+02 eV
  | Change of total energy        :  0.1586E+01 eV


------------------------------------------------------------
  End self-consistency iteration #     2       :  max(cpu_time)    wall_clock(cpu1)
  | Time for this iteration                     :        0.115 s           0.113 s
  | Charge density update                       :        0.030 s           0.030 s
  | Density mixing                              :        0.008 s           0.006 s
  | Hartree multipole update                    :        0.002 s           0.002 s
  | Hartree multipole summation                 :        0.018 s           0.018 s
  | Integration                                 :        0.034 s           0.034 s
  | Solution of K.-S. eqns.                     :        0.022 s           0.022 s
  | Total energy evaluation                     :        0.000 s           0.000 s

  Partial memory accounting:
  | Current value for overall tracked memory usage:
  |   Minimum:        0.274 MB (on task 23)
  |   Maximum:        0.293 MB (on task  0)
  |   Average:        0.288 MB
  | Peak value for overall tracked memory usage:
  |   Minimum:        1.338 MB (on task 23 after allocating wave)
  |   Maximum:        1.413 MB (on task 18 after allocating wave)
  |   Average:        1.374 MB
  | Largest tracked array allocation so far:
  |   Minimum:        0.723 MB (gradient_basis_wave on task 10)
  |   Maximum:        0.768 MB (gradient_basis_wave on task  7)
  |   Average:        0.745 MB
  Note:  These values currently only include a subset of arrays which are explicitly tracked.
  The "true" memory usage will be greater.
------------------------------------------------------------

------------------------------------------------------------
          Begin self-consistency iteration #    3

  Date     :  20220517, Time     :  121449.806
------------------------------------------------------------
  Pulay mixing of updated and previous charge densities.
  Renormalizing the density to the exact electron count on the 3D integration grid.
  | Formal number of electrons (from input files) :     120.0000000000
  | Integrated number of electrons on 3D grid     :     120.0000000000
  | Charge integration error                      :       0.0000000000
  | Normalization factor for density and gradient :       1.0000000000

  Evaluating partitioned Hartree potential by multipole expansion.
  | Original multipole sum: apparent total charge =  -0.491032E-13
  | Sum of charges compensated after spline to logarithmic grids =   0.531669E-04
  | Analytical far-field extrapolation by fixed multipoles:
  | Hartree multipole sum: apparent total charge =  -0.521641E-13
  Summing up the Hartree potential.
  Time summed over all CPUs for potential: real work        0.383 s, elapsed        0.419 s
  | RMS charge density error from multipole expansion :   0.174000E-01

  Integrating Hamiltonian matrix: batch-based integration.
  Time summed over all CPUs for integration: real work        0.709 s, elapsed        0.762 s

  Updating Kohn-Sham eigenvalues and eigenvectors using ELSI and the ELPA eigensolver.
  Starting ELPA eigensolver
  Finished transformation to standard eigenproblem
  | Time :     0.006 s
  Finished solving standard eigenproblem
  | Time :     0.014 s
  Finished back-transformation of eigenvectors
  | Time :     0.002 s

  Obtaining occupation numbers and chemical potential using ELSI.
  | Chemical potential (Fermi level):    -7.54558074 eV
  Highest occupied state (VBM) at     -8.38397208 eV
  | Occupation number:      2.00000000

  Lowest unoccupied state (CBM) at    -4.86830796 eV
  | Occupation number:      0.00000000

  Overall HOMO-LUMO gap:      3.51566412 eV.

  Total energy components:
  | Sum of eigenvalues            :        -886.79011695 Ha      -24130.78684301 eV
  | XC energy correction          :        -145.18272545 Ha       -3950.62296500 eV
  | XC potential correction       :         189.04783437 Ha        5144.25330984 eV
  | Free-atom electrostatic energy:        -781.23361504 Ha      -21258.44828330 eV
  | Hartree energy correction     :          -0.92366522 Ha         -25.13420935 eV
  | Entropy correction            :           0.00000000 Ha           0.00000000 eV
  | ---------------------------
  | Total energy                  :       -1625.08228829 Ha      -44220.73899081 eV
  | Total energy, T -> 0          :       -1625.08228829 Ha      -44220.73899081 eV  <-- do not rely on this value for anything but (periodic) metals
  | Electronic free energy        :       -1625.08228829 Ha      -44220.73899081 eV

  Derived energy quantities:
  | Kinetic energy                :        1628.44849827 Ha       44312.33822480 eV
  | Electrostatic energy          :       -3108.34806111 Ha      -84582.45425062 eV
  | Energy correction for multipole
  | error in Hartree potential    :           0.05044782 Ha           1.37275511 eV
  | Sum of eigenvalues per atom                           :       -2010.89890358 eV
  | Total energy (T->0) per atom                          :       -3685.06158257 eV  <-- do not rely on this value for anything but (periodic) metals
  | Electronic free energy per atom                       :       -3685.06158257 eV
  Evaluating new KS density.
  Integration grid: deviation in total charge (<rho> - N_e) =   0.000000E+00

  Self-consistency convergence accuracy:
  | Change of charge density      :  0.1227E+00
  | Change of sum of eigenvalues  : -0.2554E+02 eV
  | Change of total energy        :  0.2804E-01 eV


------------------------------------------------------------
  End self-consistency iteration #     3       :  max(cpu_time)    wall_clock(cpu1)
  | Time for this iteration                     :        0.116 s           0.117 s
  | Charge density update                       :        0.029 s           0.029 s
  | Density mixing                              :        0.007 s           0.007 s
  | Hartree multipole update                    :        0.001 s           0.001 s
  | Hartree multipole summation                 :        0.021 s           0.021 s
  | Integration                                 :        0.035 s           0.035 s
  | Solution of K.-S. eqns.                     :        0.023 s           0.023 s
  | Total energy evaluation                     :        0.000 s           0.000 s

  Partial memory accounting:
  | Current value for overall tracked memory usage:
  |   Minimum:        0.274 MB (on task 23)
  |   Maximum:        0.293 MB (on task  0)
  |   Average:        0.288 MB
  | Peak value for overall tracked memory usage:
  |   Minimum:        1.338 MB (on task 23 after allocating wave)
  |   Maximum:        1.413 MB (on task 18 after allocating wave)
  |   Average:        1.374 MB
  | Largest tracked array allocation so far:
  |   Minimum:        0.723 MB (gradient_basis_wave on task 10)
  |   Maximum:        0.768 MB (gradient_basis_wave on task  7)
  |   Average:        0.745 MB
  Note:  These values currently only include a subset of arrays which are explicitly tracked.
  The "true" memory usage will be greater.
------------------------------------------------------------

------------------------------------------------------------
          Begin self-consistency iteration #    4

  Date     :  20220517, Time     :  121449.931
------------------------------------------------------------
  Pulay mixing of updated and previous charge densities.
  Renormalizing the density to the exact electron count on the 3D integration grid.
  | Formal number of electrons (from input files) :     120.0000000000
  | Integrated number of electrons on 3D grid     :     120.0000000000
  | Charge integration error                      :       0.0000000000
  | Normalization factor for density and gradient :       1.0000000000

  Evaluating partitioned Hartree potential by multipole expansion.
  | Original multipole sum: apparent total charge =   0.774214E-14
  | Sum of charges compensated after spline to logarithmic grids =   0.565204E-04
  | Analytical far-field extrapolation by fixed multipoles:
  | Hartree multipole sum: apparent total charge =   0.749924E-14
  Summing up the Hartree potential.
  Time summed over all CPUs for potential: real work        0.382 s, elapsed        0.413 s
  | RMS charge density error from multipole expansion :   0.194046E-01

  Integrating Hamiltonian matrix: batch-based integration.
  Time summed over all CPUs for integration: real work        0.709 s, elapsed        0.761 s

  Updating Kohn-Sham eigenvalues and eigenvectors using ELSI and the ELPA eigensolver.
  Starting ELPA eigensolver
  Finished transformation to standard eigenproblem
  | Time :     0.006 s
  Finished solving standard eigenproblem
  | Time :     0.016 s
  Finished back-transformation of eigenvectors
  | Time :     0.001 s

  Obtaining occupation numbers and chemical potential using ELSI.
  | Chemical potential (Fermi level):    -7.53433490 eV
  Highest occupied state (VBM) at     -8.37112777 eV
  | Occupation number:      2.00000000

  Lowest unoccupied state (CBM) at    -4.84689062 eV
  | Occupation number:      0.00000000

  Overall HOMO-LUMO gap:      3.52423716 eV.

  Total energy components:
  | Sum of eigenvalues            :        -886.90271634 Ha      -24133.85082849 eV
  | XC energy correction          :        -145.16723610 Ha       -3950.20147822 eV
  | XC potential correction       :         189.02684069 Ha        5143.68204275 eV
  | Free-atom electrostatic energy:        -781.23361504 Ha      -21258.44828330 eV
  | Hartree energy correction     :          -0.80347315 Ha         -21.86361670 eV
  | Entropy correction            :           0.00000000 Ha           0.00000000 eV
  | ---------------------------
  | Total energy                  :       -1625.08019994 Ha      -44220.68216395 eV
  | Total energy, T -> 0          :       -1625.08019994 Ha      -44220.68216395 eV  <-- do not rely on this value for anything but (periodic) metals
  | Electronic free energy        :       -1625.08019994 Ha      -44220.68216395 eV

  Derived energy quantities:
  | Kinetic energy                :        1627.80266791 Ha       44294.76428653 eV
  | Electrostatic energy          :       -3107.71563175 Ha      -84565.24497226 eV
  | Energy correction for multipole
  | error in Hartree potential    :           0.05561710 Ha           1.51341819 eV
  | Sum of eigenvalues per atom                           :       -2011.15423571 eV
  | Total energy (T->0) per atom                          :       -3685.05684700 eV  <-- do not rely on this value for anything but (periodic) metals
  | Electronic free energy per atom                       :       -3685.05684700 eV
  Evaluating new KS density.
  Integration grid: deviation in total charge (<rho> - N_e) =   0.000000E+00

  Self-consistency convergence accuracy:
  | Change of charge density      :  0.8085E-01
  | Change of sum of eigenvalues  : -0.3064E+01 eV
  | Change of total energy        :  0.5683E-01 eV


------------------------------------------------------------
  End self-consistency iteration #     4       :  max(cpu_time)    wall_clock(cpu1)
  | Time for this iteration                     :        0.115 s           0.114 s
  | Charge density update                       :        0.030 s           0.030 s
  | Density mixing                              :        0.006 s           0.004 s
  | Hartree multipole update                    :        0.001 s           0.002 s
  | Hartree multipole summation                 :        0.018 s           0.018 s
  | Integration                                 :        0.033 s           0.033 s
  | Solution of K.-S. eqns.                     :        0.026 s           0.026 s
  | Total energy evaluation                     :        0.000 s           0.001 s

  Partial memory accounting:
  | Current value for overall tracked memory usage:
  |   Minimum:        0.274 MB (on task 23)
  |   Maximum:        0.293 MB (on task  0)
  |   Average:        0.288 MB
  | Peak value for overall tracked memory usage:
  |   Minimum:        1.338 MB (on task 23 after allocating wave)
  |   Maximum:        1.413 MB (on task 18 after allocating wave)
  |   Average:        1.374 MB
  | Largest tracked array allocation so far:
  |   Minimum:        0.723 MB (gradient_basis_wave on task 10)
  |   Maximum:        0.768 MB (gradient_basis_wave on task  7)
  |   Average:        0.745 MB
  Note:  These values currently only include a subset of arrays which are explicitly tracked.
  The "true" memory usage will be greater.
------------------------------------------------------------

------------------------------------------------------------
          Begin self-consistency iteration #    5

  Date     :  20220517, Time     :  121450.053
------------------------------------------------------------
  Pulay mixing of updated and previous charge densities.
  Renormalizing the density to the exact electron count on the 3D integration grid.
  | Formal number of electrons (from input files) :     120.0000000000
  | Integrated number of electrons on 3D grid     :     120.0000000000
  | Charge integration error                      :       0.0000000000
  | Normalization factor for density and gradient :       1.0000000000

  Evaluating partitioned Hartree potential by multipole expansion.
  | Original multipole sum: apparent total charge =   0.289454E-13
  | Sum of charges compensated after spline to logarithmic grids =   0.574141E-04
  | Analytical far-field extrapolation by fixed multipoles:
  | Hartree multipole sum: apparent total charge =   0.287824E-13
  Summing up the Hartree potential.
  Time summed over all CPUs for potential: real work        0.383 s, elapsed        0.413 s
  | RMS charge density error from multipole expansion :   0.192288E-01

  Integrating Hamiltonian matrix: batch-based integration.
  Time summed over all CPUs for integration: real work        0.709 s, elapsed        0.763 s

  Updating Kohn-Sham eigenvalues and eigenvectors using ELSI and the ELPA eigensolver.
  Starting ELPA eigensolver
  Finished transformation to standard eigenproblem
  | Time :     0.000 s
  Finished solving standard eigenproblem
  | Time :     0.003 s
  Finished back-transformation of eigenvectors
  | Time :     0.001 s

  Obtaining occupation numbers and chemical potential using ELSI.
  | Chemical potential (Fermi level):    -7.52668549 eV
  Highest occupied state (VBM) at     -8.45665189 eV
  | Occupation number:      2.00000000

  Lowest unoccupied state (CBM) at    -4.78381050 eV
  | Occupation number:      0.00000000

  Overall HOMO-LUMO gap:      3.67284139 eV.

  Total energy components:
  | Sum of eigenvalues            :        -886.71690560 Ha      -24128.79466100 eV
  | XC energy correction          :        -145.16454431 Ha       -3950.12823111 eV
  | XC potential correction       :         189.02346347 Ha        5143.59014395 eV
  | Free-atom electrostatic energy:        -781.23361504 Ha      -21258.44828330 eV
  | Hartree energy correction     :          -0.98847353 Ha         -26.89773328 eV
  | Entropy correction            :           0.00000000 Ha           0.00000000 eV
[...]
   Total forces(   7)            : -0.229441E+00  0.239190E+01  0.157225E-01
  atom #    8
   Hellmann-Feynman              :  0.764025E+00 -0.807871E+00  0.384579E+00
   Ionic forces                  :  0.000000E+00  0.000000E+00  0.000000E+00
   Multipole                     :  0.399814E+00 -0.247174E+00 -0.567471E-01
   Hartree pot. SCF incomplete   :  0.813741E-05 -0.454474E-05 -0.648053E-05
   Pulay + GGA                   : -0.318061E+01  0.253105E+01  0.813217E-02
   ----------------------------------------------------------------
   Total forces(   8)            : -0.201676E+01  0.147600E+01  0.335958E+00
  atom #    9
   Hellmann-Feynman              : -0.558998E+00  0.746599E+00 -0.320383E+01
   Ionic forces                  :  0.000000E+00  0.000000E+00  0.000000E+00
   Multipole                     : -0.132397E+00  0.200608E+00 -0.863693E+00
   Hartree pot. SCF incomplete   : -0.226347E-05  0.700696E-06 -0.300672E-05
   Pulay + GGA                   :  0.127075E+01 -0.172003E+01  0.742993E+01
   ----------------------------------------------------------------
   Total forces(   9)            :  0.579354E+00 -0.772828E+00  0.336241E+01
  atom #   10
   Hellmann-Feynman              : -0.396028E+00  0.654207E+00  0.760528E+00
   Ionic forces                  :  0.000000E+00  0.000000E+00  0.000000E+00
   Multipole                     :  0.141120E-01  0.483628E+00  0.151203E+00
   Hartree pot. SCF incomplete   : -0.236958E-05  0.127027E-04 -0.239680E-05
   Pulay + GGA                   :  0.496577E+00 -0.331486E+01 -0.182247E+01
   ----------------------------------------------------------------
   Total forces(  10)            :  0.114659E+00 -0.217701E+01 -0.910736E+00
  atom #   11
   Hellmann-Feynman              :  0.306633E+01  0.100447E+01  0.121525E+01
   Ionic forces                  :  0.000000E+00  0.000000E+00  0.000000E+00
   Multipole                     :  0.745614E+00  0.288337E+00  0.262610E+00
   Hartree pot. SCF incomplete   :  0.124743E-05  0.106231E-05  0.185090E-05
   Pulay + GGA                   : -0.673468E+01 -0.224410E+01 -0.275155E+01
   ----------------------------------------------------------------
   Total forces(  11)            : -0.292273E+01 -0.951293E+00 -0.127370E+01
  atom #   12
   Hellmann-Feynman              : -0.243871E+00 -0.261543E+00  0.281669E+00
   Ionic forces                  :  0.000000E+00  0.000000E+00  0.000000E+00
   Multipole                     : -0.338451E+00 -0.322690E+00  0.108495E+00
   Hartree pot. SCF incomplete   : -0.747695E-05 -0.106713E-05 -0.397571E-05
   Pulay + GGA                   :  0.205417E+01  0.129501E+01 -0.619907E+00
   ----------------------------------------------------------------
   Total forces(  12)            :  0.147185E+01  0.710779E+00 -0.229748E+00


  Self-consistency convergence accuracy:
  | Change of charge density      :  0.1113E-05
  | Change of sum of eigenvalues  : -0.3375E-04 eV
  | Change of total energy        :  0.6596E-07 eV
  | Change of forces              :  0.1829E-05 eV/A

  Writing Kohn-Sham eigenvalues.

  State    Occupation    Eigenvalue [Ha]    Eigenvalue [eV]
      1       2.00000         -55.666965        -1514.77518
      2       2.00000         -55.641672        -1514.08693
      3       2.00000         -55.594982        -1512.81644
      4       2.00000         -24.315805         -661.66672
      5       2.00000         -24.315158         -661.64911
      6       2.00000         -24.303906         -661.34292
      7       2.00000         -24.279646         -660.68279
      8       2.00000         -24.274398         -660.53997
      9       2.00000         -24.244676         -659.73119
     10       2.00000         -24.217183         -658.98309
     11       2.00000         -24.171982         -657.75310
     12       2.00000         -24.163375         -657.51890
     13       2.00000          -4.119541         -112.09842
     14       2.00000          -4.093456         -111.38862
     15       2.00000          -4.046362         -110.10711
     16       2.00000          -2.712631          -73.81444
     17       2.00000          -2.711420          -73.78149
     18       2.00000          -2.709336          -73.72479
     19       2.00000          -2.686539          -73.10443
     20       2.00000          -2.685016          -73.06301
     21       2.00000          -2.683584          -73.02405
     22       2.00000          -2.640859          -71.86142
     23       2.00000          -2.638024          -71.78428
     24       2.00000          -2.634710          -71.69412
     25       2.00000          -1.190386          -32.39205
     26       2.00000          -1.180598          -32.12571
     27       2.00000          -1.162360          -31.62944
     28       2.00000          -1.148279          -31.24627
     29       2.00000          -1.129556          -30.73677
     30       2.00000          -1.091803          -29.70948
     31       2.00000          -1.064466          -28.96559
     32       2.00000          -1.020654          -27.77341
     33       2.00000          -1.009921          -27.48136
     34       2.00000          -0.578322          -15.73695
     35       2.00000          -0.565197          -15.37980
     36       2.00000          -0.544925          -14.82816
     37       2.00000          -0.519931          -14.14805
     38       2.00000          -0.515799          -14.03561
     39       2.00000          -0.497482          -13.53717
     40       2.00000          -0.497160          -13.52842
     41       2.00000          -0.494297          -13.45050
     42       2.00000          -0.480223          -13.06752
     43       2.00000          -0.473806          -12.89292
     44       2.00000          -0.461332          -12.55348
     45       2.00000          -0.451908          -12.29705
     46       2.00000          -0.448478          -12.20370
     47       2.00000          -0.437889          -11.91557
     48       2.00000          -0.434006          -11.80991
     49       2.00000          -0.421795          -11.47763
     50       2.00000          -0.413505          -11.25204
     51       2.00000          -0.397469          -10.81567
     52       2.00000          -0.396309          -10.78411
     53       2.00000          -0.388952          -10.58393
     54       2.00000          -0.370577          -10.08390
     55       2.00000          -0.369492          -10.05438
     56       2.00000          -0.358658           -9.75958
     57       2.00000          -0.331628           -9.02405
     58       2.00000          -0.326750           -8.89133
     59       2.00000          -0.316305           -8.60709
     60       2.00000          -0.309779           -8.42952
     61       0.00000          -0.175887           -4.78613
     62       0.00000          -0.113433           -3.08666
     63       0.00000          -0.074816           -2.03586
     64       0.00000          -0.063985           -1.74112
     65       0.00000          -0.061159           -1.66423
     66       0.00000          -0.023628           -0.64294
     67       0.00000           0.013059            0.35534
     68       0.00000           0.021457            0.58389
     69       0.00000           0.035843            0.97535
     70       0.00000           0.058959            1.60435
     71       0.00000           0.086186            2.34525
     72       0.00000           0.096369            2.62233
     73       0.00000           0.135631            3.69071
     74       0.00000           0.148509            4.04113
     75       0.00000           0.152111            4.13915
     76       0.00000           0.158986            4.32624
     77       0.00000           0.176560            4.80445
     78       0.00000           0.186466            5.07401
     79       0.00000           0.196672            5.35171
     80       0.00000           0.211215            5.74744
     81       0.00000           0.214440            5.83522
     82       0.00000           0.219933            5.98468
     83       0.00000           0.227662            6.19499
     84       0.00000           0.229892            6.25569
     85       0.00000           0.244127            6.64304
     86       0.00000           0.246820            6.71632
     87       0.00000           0.249596            6.79186
     88       0.00000           0.260626            7.09200
     89       0.00000           0.278064            7.56650
     90       0.00000           0.283731            7.72072
     91       0.00000           0.285076            7.75731
     92       0.00000           0.337491            9.18361
     93       0.00000           0.343668            9.35167
     94       0.00000           0.360609            9.81267
     95       0.00000           0.370727           10.08798
     96       0.00000           0.380298           10.34844

  Highest occupied state (VBM) at     -8.42952306 eV
  | Occupation number:      2.00000000

  Lowest unoccupied state (CBM) at    -4.78612561 eV
  | Occupation number:      0.00000000

  Overall HOMO-LUMO gap:      3.64339745 eV.
  | Chemical Potential                          :    -7.52410250 eV

  Self-consistency cycle converged.


------------------------------------------------------------
  End self-consistency iteration #    13       :  max(cpu_time)    wall_clock(cpu1)
  | Time for this iteration                     :        0.282 s           0.279 s
  | Charge density & force component update     :        0.157 s           0.157 s
  | Density mixing                              :        0.005 s           0.001 s
  | Hartree multipole update                    :        0.001 s           0.002 s
  | Hartree multipole summation                 :        0.050 s           0.050 s
  | Hartree pot. SCF incomplete forces          :        0.032 s           0.032 s
  | Integration                                 :        0.032 s           0.032 s
  | Solution of K.-S. eqns.                     :        0.004 s           0.004 s
  | Total energy evaluation                     :        0.000 s           0.000 s

  Partial memory accounting:
  | Current value for overall tracked memory usage:
  |   Minimum:        0.274 MB (on task 23)
  |   Maximum:        0.293 MB (on task  0)
  |   Average:        0.289 MB
  | Peak value for overall tracked memory usage:
  |   Minimum:        2.971 MB (on task 10 after allocating hessian_basis_wave)
  |   Maximum:        3.120 MB (on task 18 after allocating hessian_basis_wave)
  |   Average:        3.041 MB
  | Largest tracked array allocation so far:
  |   Minimum:        1.446 MB (hessian_basis_wave on task 10)
  |   Maximum:        1.535 MB (hessian_basis_wave on task  7)
  |   Average:        1.491 MB
  Note:  These values currently only include a subset of arrays which are explicitly tracked.
  The "true" memory usage will be greater.
------------------------------------------------------------
  Removing unitary transformations (pure translations, rotations) from forces on atoms.
  Atomic forces before filtering:
  | Net force on center of mass :  -0.530355E-02 -0.952859E-02  0.196101E-02 eV/A
  | Net torque on center of mass:   0.118629E-02  0.516584E-02 -0.781732E-03 eV
  Atomic forces after filtering:
  | Net force on center of mass :   0.107044E-14  0.713624E-15 -0.178406E-14 eV/A
  | Net torque on center of mass:  -0.292666E-14  0.212419E-14  0.849676E-15 eV

  Energy and forces in a compact form:
  | Total energy uncorrected      :         -0.442206784633041E+05 eV
  | Total energy corrected        :         -0.442206784633041E+05 eV  <-- do not rely on this value for anything but (periodic) metals
  | Electronic free energy        :         -0.442206784633041E+05 eV
  Total atomic forces (unitary forces cleaned) [eV/Ang]:
  |    1         -0.316904251542245E+01         -0.120207765962878E+01          0.142673544472288E+01
  |    2          0.255916375530234E+01          0.407144808310074E+00          0.189967764921989E+01
  |    3         -0.135210493984379E+00          0.553302443889313E+00         -0.244256350056689E+01
  |    4          0.793933958215722E+00         -0.154252618570741E+01         -0.124113057504803E+01
  |    5          0.237245376846852E+01         -0.157825807683496E+01         -0.121167011185264E+00
  |    6          0.578747533396895E+00          0.268012688547640E+01         -0.820875357512663E+00
  |    7         -0.229020519601827E+00          0.239274940866845E+01          0.156877209541176E-01
  |    8         -0.201617967825293E+01          0.147680129505304E+01          0.335989319602164E+00
  |    9          0.580121546142924E+00         -0.772201252782597E+00          0.336218772673548E+01
  |   10          0.115084152786167E+00         -0.217621560666967E+01         -0.910925659408495E+00
  |   11         -0.292245212976662E+01         -0.950330628445371E+00         -0.127360177020679E+01
  |   12          0.147240062271563E+01          0.711484568671514E+00         -0.230013987306405E+00

  ------------------------------------ 
  Start decomposition of the XC Energy 
  ------------------------------------ 
  X and C from original XC functional choice 
  Hartree-Fock Energy :          0.000000000 Ha              0.000000000 eV
  X Energy            :       -140.212245370 Ha          -3815.369320384 eV
  C Energy            :         -4.956003291 Ha           -134.859711138 eV
  Total XC Energy     :       -145.168248662 Ha          -3950.229031522 eV
  ------------------------------------ 
  LDA X and C from self-consistent density 
  X Energy LDA        :       -132.800622483 Ha          -3613.688800220 eV
  C Energy LDA        :         -8.828000910 Ha           -240.222127134 eV
  ------------------------------------ 
  End decomposition of the XC Energy 
  ------------------------------------ 

------------------------------------------------------------

------------------------------------------------------------------------------
  Final output of selected total energy values:

  The following output summarizes some interesting total energy values
  at the end of a run (AFTER all relaxation, molecular dynamics, etc.).

  | Total energy of the DFT / Hartree-Fock s.c.f. calculation      :         -44220.678463304 eV
  | Final zero-broadening corrected energy (caution - metals only) :         -44220.678463304 eV
  | For reference only, the value of 1 Hartree used in FHI-aims is :             27.211384500 eV

  Before relying on these values, please be sure to understand exactly which
  total energy value is referred to by a given number. Different objects may
  all carry the same name 'total energy'. Definitions:

  Total energy of the DFT / Hartree-Fock s.c.f. calculation:
  | Note that this energy does not include ANY quantities calculated after the
  | s.c.f. cycle, in particular not ANY RPA, MP2, etc. many-body perturbation terms.

  Final zero-broadening corrected energy:
  | For metallic systems only, a broadening of the occupation numbers at the Fermi
  | level can be extrapolated back to zero broadening by an electron-gas inspired
  | formula. For all systems that are not real metals, this value can be
  | meaningless and should be avoided.

------------------------------------------------------------------------------
  Methods described in the following list of references were used in this FHI-aims run.
  If you publish the results, please make sure to cite these reference if they apply.
  FHI-aims is an academic code, and for our developers (often, Ph.D. students
  and postdocs), scientific credit in the community is essential.
  Thank you for helping us!

  For any use of FHI-aims, please cite:

    Volker Blum, Ralf Gehrke, Felix Hanke, Paula Havu, Ville Havu,
    Xinguo Ren, Karsten Reuter, and Matthias Scheffler
    'Ab initio molecular simulations with numeric atom-centered orbitals'
    Computer Physics Communications 180, 2175-2196 (2009)
    http://dx.doi.org/10.1016/j.cpc.2009.06.022


  The ELSI infrastructure was used in your run to solve the Kohn-Sham electronic structure.
  Please check out http://elsi-interchange.org to learn more.
  If scalability is important for your project, please acknowledge ELSI by citing:

    V. W-z. Yu, F. Corsetti, A. Garcia, W. P. Huhn, M. Jacquelin, W. Jia,
    B. Lange, L. Lin, J. Lu, W. Mi, A. Seifitokaldani, A. Vazquez-Mayagoitia,
    C. Yang, H. Yang, and V. Blum
    'ELSI: A unified software interface for Kohn-Sham electronic structure solvers'
    Computer Physics Communications 222, 267-285 (2018).
    http://dx.doi.org/10.1016/j.cpc.2017.09.007


  For the real-space grid partitioning and parallelization used in this calculation, please cite:

    Ville Havu, Volker Blum, Paula Havu, and Matthias Scheffler,
    'Efficient O(N) integration for all-electron electronic structure calculation'
    'using numerically tabulated basis functions'
    Journal of Computational Physics 228, 8367-8379 (2009).
    http://dx.doi.org/10.1016/j.jcp.2009.08.008

  Of course, there are many other important community references, e.g., those cited in the
  above references. Our list is limited to references that describe implementations in the
  FHI-aims code. The reason is purely practical (length of this list) - please credit others as well.

------------------------------------------------------------
          Leaving FHI-aims.
          Date     :  20220517, Time     :  121451.302

          Computational steps:
          | Number of self-consistency cycles          :           13
          | Number of SCF (re)initializations          :            1

          Detailed time accounting                     :  max(cpu_time)    wall_clock(cpu1)
          | Total time                                  :        2.036 s           2.099 s
          | Preparation time                            :        0.184 s           0.184 s
          | Boundary condition initalization            :        0.000 s           0.001 s
          | Grid partitioning                           :        0.039 s           0.039 s
          | Preloading free-atom quantities on grid     :        0.016 s           0.017 s
          | Free-atom superposition energy              :        0.005 s           0.005 s
          | Total time for integrations                 :        0.474 s           0.473 s
          | Total time for solution of K.-S. equations  :        0.125 s           0.124 s
          | Total time for density & force components   :        0.672 s           0.672 s
          | Total time for mixing                       :        0.067 s           0.043 s
          | Total time for Hartree multipole update     :        0.025 s           0.026 s
          | Total time for Hartree multipole sum        :        0.300 s           0.299 s
          | Total time for total energy evaluation      :        0.002 s           0.003 s
          | Total time NSC force correction             :        0.064 s           0.063 s
          | Total time for scaled ZORA corrections      :        0.000 s           0.000 s

          Partial memory accounting:
          | Residual value for overall tracked memory usage across tasks:     0.000000 MB (should be 0.000000 MB)
          | Peak values for overall tracked memory usage:
          |   Minimum:        2.971 MB (on task 10 after allocating hessian_basis_wave)
          |   Maximum:        3.120 MB (on task 18 after allocating hessian_basis_wave)
          |   Average:        3.041 MB
          | Largest tracked array allocation:
          |   Minimum:        1.446 MB (hessian_basis_wave on task 10)
          |   Maximum:        1.535 MB (hessian_basis_wave on task  7)
          |   Average:        1.491 MB
          Note:  These values currently only include a subset of arrays which are explicitly tracked.
          The "true" memory usage will be greater.

          Have a nice day.
------------------------------------------------------------
