********************************************************************************
*                       GENERAL UTILITY LATTICE PROGRAM                        *
*                                 Julian Gale                                  *
*                       Curtin Institute for Computation                       *
*                           Department of Chemistry                            *
*                    Curtin University, Western Australia                      *
********************************************************************************
* Version = 5.1.1 * Last modified =  24th November 2018                        *
********************************************************************************
*  optimise     - perform optimisation run                                     *
*  conp         - constant pressure calculation                                *
*  shell        - only shells and radii to be optimised                        *
*  phonon       - calculate phonons for final geometry                         *
*  eigenvectors - output phonon eigenvectors                                   *
********************************************************************************

  Job Started  at 14:38.25 25th May        2022                               

  Number of CPUs =     1

  Host name      = login03                                 


  Total number of configurations input =      1

********************************************************************************
*  Input for Configuration =   1                                               *
********************************************************************************

  Formula = Al3F9                                                       

  Number of irreducible atoms/shells =      21


  Total number atoms/shells =      21

  Dimensionality = 0               :  Cluster


  Charge on cluster =  -0.000000


  Initial cluster dipoles : x =     -0.217232 e.Angs
                            y =     -0.206329 e.Angs
                            z =      0.042802 e.Angs

  Temperature of configuration =  0.000     K 

  Symmetry number =      1

  Cartesian coordinates of cluster :

--------------------------------------------------------------------------------
   No.  Atomic       x           y          z         Charge      Occupancy
        Label      (Angs)      (Angs)     (Angs)        (e)         (Frac)  
--------------------------------------------------------------------------------
      1 Al    c      1.3075      0.0698      2.4442     3.00000    1.000000    
      2 Al    c      1.2732      1.1915     -0.0911     3.00000    1.000000    
      3 Al    c     -0.3401      0.8125     -2.3138     3.00000    1.000000    
      4 F     c     -1.6817     -0.3952     -2.1944     0.59000    1.000000    
      5 F     c      2.0737     -0.3413      0.7530     0.59000    1.000000    
      6 F     c      0.0165      1.7938     -3.7994     0.59000    1.000000    
      7 F     c     -0.3706      1.9224     -0.7677     0.59000    1.000000    
      8 F     c      2.5773      2.4276     -0.3442     0.59000    1.000000    
      9 F     c      1.2540      0.0334     -1.6252     0.59000    1.000000    
     10 F     c      0.4490      1.5477      1.6105     0.59000    1.000000    
     11 F     c      2.5708      0.6261      3.6121     0.59000    1.000000    
     12 F     c      0.0501     -1.1869      2.8305     0.59000    1.000000    
     13 F     s     -1.6817 *   -0.3952 *   -2.1944 *  -1.59000    1.000000    
     14 F     s      2.0737 *   -0.3413 *    0.7530 *  -1.59000    1.000000    
     15 F     s      0.0165 *    1.7938 *   -3.7994 *  -1.59000    1.000000    
     16 F     s     -0.3706 *    1.9224 *   -0.7677 *  -1.59000    1.000000    
     17 F     s      2.5773 *    2.4276 *   -0.3442 *  -1.59000    1.000000    
     18 F     s      1.2540 *    0.0334 *   -1.6252 *  -1.59000    1.000000    
     19 F     s      0.4490 *    1.5477 *    1.6105 *  -1.59000    1.000000    
     20 F     s      2.5708 *    0.6261 *    3.6121 *  -1.59000    1.000000    
     21 F     s      0.0501 *   -1.1869 *    2.8305 *  -1.59000    1.000000    
--------------------------------------------------------------------------------


  Brillouin zone sampling points :

--------------------------------------------------------------------------------
  Point number          x          y          z            Weight
--------------------------------------------------------------------------------
        1           0.000000   0.000000   0.000000     1.00000000
--------------------------------------------------------------------------------


********************************************************************************
*  General input information                                                   *
********************************************************************************

  Species output for all configurations : 

--------------------------------------------------------------------------------
  Species    Type    Atomic    Atomic    Charge       Radii (Angs)     Library
                     Number     Mass       (e)     Cova   Ionic  VDW   Symbol
--------------------------------------------------------------------------------
    Al       Core       13      26.98   3.000000   1.350  0.000  2.050          
    F        Core        9      19.00   0.590000   0.710  0.000  1.300          
    F        Shell       9       0.00  -1.590000   0.710  0.000  1.300          
--------------------------------------------------------------------------------


  Accuracy factor for short range sums = 12.000

  Time limit = Infinity

  Maximum range for interatomic potentials =    100000.000000 Angstroms

  General interatomic potentials :

--------------------------------------------------------------------------------
Atom  Types   Potential      Parameter       Value         Units   Cutoffs(Ang)
  1     2                                                            Min /  Max 
--------------------------------------------------------------------------------
Al   c F    s Buckingham    Buckingham A     3760.0008    eV        0.000 10.000
                            Buckingham rho  0.22200000    Ang       
                            Buckingham C     0.0000000    eV*Ang^6  
--------------------------------------------------------------------------------
F    s F    s Buck 4 range  Buck4 A          1127.7000    eV        0.000 12.000
                            Buck4 rho       0.27530000    Ang       
                            Buck4 C          15.830000    eV*Ang^6  
                            Buck4 minimum    2.7900000    Ang       
--------------------------------------------------------------------------------
F    c F    s Spring (c-s)  Spring k 2       20.770000    eV*Ang^-2 0.000  0.800
                            Spring k 4       0.0000000    eV*Ang^-4 
--------------------------------------------------------------------------------

********************************************************************************
*  Output for configuration   1                                                *
********************************************************************************


  Components of energy : 

--------------------------------------------------------------------------------
  Interatomic potentials     =          10.51182700 eV    
  Monopole - monopole (real) =        -178.81136771 eV    
--------------------------------------------------------------------------------
  Total lattice energy       =        -168.29954072 eV    
--------------------------------------------------------------------------------
  Total lattice energy       =          -16238.3330 kJ/mol
--------------------------------------------------------------------------------


  Number of variables =       27

  Maximum number of calculations  =          2000
  Maximum Hessian update interval =            10
  Maximum step size               =   1.000000000
  Maximum parameter tolerance     =   0.000001000
  Maximum function  tolerance     =   0.000010000
  Maximum gradient  tolerance     =   0.000000010
  Maximum gradient  component     =   0.010000000

  Symmetry not applied to optimisation

  Newton-Raphson optimiser to be used

  BFGS hessian update to be used

  Lower half triangular hessian to be used

  Minimiser to switch to RFO
  When gradient norm is less than     0.010000

  Shell only optimisation

  Start of cluster optimisation :

  Cycle:      0 Energy:      -168.299541  Gnorm:      1.498036  CPU:    0.005
  ** Hessian calculated **
  Cycle:      1 Energy:      -185.760356  Gnorm:      0.510421  CPU:    0.006
  ** Hessian calculated **
  Cycle:      2 Energy:      -187.373963  Gnorm:      0.043628  CPU:    0.008
  Cycle:      3 Energy:      -187.383841  Gnorm:      0.007798  CPU:    0.009
  ** Hessian has required structure
  Cycle:      4 Energy:      -187.383859  Gnorm:      0.007784  CPU:    0.011
  ** Hessian has required structure
  Cycle:      5 Energy:      -187.383860  Gnorm:      0.007776  CPU:    0.012
  ** Hessian has required structure
  Cycle:      6 Energy:      -187.383861  Gnorm:      0.007751  CPU:    0.014
  ** Hessian has required structure
  Cycle:      7 Energy:      -187.383883  Gnorm:      0.007474  CPU:    0.015
  ** Hessian has required structure
  Cycle:      8 Energy:      -187.384102  Gnorm:      0.003847  CPU:    0.016
  ** Hessian has required structure
  Cycle:      9 Energy:      -187.384194  Gnorm:      0.000390  CPU:    0.018
  ** Hessian has required structure
  Cycle:     10 Energy:      -187.384195  Gnorm:      0.000311  CPU:    0.019
  ** Hessian has required structure
  Cycle:     11 Energy:      -187.384195  Gnorm:      0.000200  CPU:    0.020
  ** Hessian has required structure
  Cycle:     12 Energy:      -187.384196  Gnorm:      0.000000  CPU:    0.022
  ** Hessian has required structure
  Cycle:     13 Energy:      -187.384196  Gnorm:      0.000000  CPU:    0.023
  ** Hessian has required structure
  Cycle:     14 Energy:      -187.384196  Gnorm:      0.000000  CPU:    0.025
  ** Hessian calculated **

  XYZ File written as 001/0/sp_mod_-10/sp_mod_-10_eig.xyz



  **** Optimisation achieved ****


  Final energy =    -187.38419571 eV
  Final Gnorm  =       0.00000002

  Components of energy : 

--------------------------------------------------------------------------------
  Interatomic potentials     =          39.00047239 eV    
  Monopole - monopole (real) =        -226.38466810 eV    
--------------------------------------------------------------------------------
  Total lattice energy       =        -187.38419571 eV    
--------------------------------------------------------------------------------
  Total lattice energy       =          -18079.7105 kJ/mol
--------------------------------------------------------------------------------

  Final cartesian coordinates of atoms :

--------------------------------------------------------------------------------
   No.  Atomic        x           y          z          Radius
        Label       (Angs)      (Angs)     (Angs)       (Angs) 
--------------------------------------------------------------------------------
     1  Al    c     1.307500    0.069754    2.444154    0.000000
     2  Al    c     1.273234    1.191482   -0.091079    0.000000
     3  Al    c    -0.340074    0.812523   -2.313800    0.000000
     4  F     c    -1.681651   -0.395233   -2.194385    0.000000
     5  F     c     2.073663   -0.341319    0.752982    0.000000
     6  F     c     0.016531    1.793816   -3.799408    0.000000
     7  F     c    -0.370568    1.922447   -0.767742    0.000000
     8  F     c     2.577291    2.427622   -0.344198    0.000000
     9  F     c     1.254049    0.033385   -1.625233    0.000000
    10  F     c     0.449043    1.547741    1.610473    0.000000
    11  F     c     2.570775    0.626084    3.612073    0.000000
    12  F     c     0.050081   -1.186936    2.830460    0.000000
    13  F     s    -1.477853   -0.213332   -2.209107    0.000000
    14  F     s     1.904834   -0.142600    0.850878    0.000000
    15  F     s    -0.038583    1.641806   -3.569073    0.000000
    16  F     s    -0.202813    1.722501   -0.865327    0.000000
    17  F     s     2.378078    2.238833   -0.305601    0.000000
    18  F     s     1.078333    0.232798   -1.541562    0.000000
    19  F     s     0.623502    1.347303    1.527171    0.000000
    20  F     s     2.378002    0.541691    3.432753    0.000000
    21  F     s     0.242309   -0.993362    2.768197    0.000000
--------------------------------------------------------------------------------


  Final Cartesian derivatives :

--------------------------------------------------------------------------------
   No.  Atomic          x             y             z           Radius
        Label       (eV/Angs)     (eV/Angs)    (eV/Angs)      (eV/Angs)
--------------------------------------------------------------------------------
      1 Al    c       0.000000      0.000000      0.000000      0.000000
      2 Al    c       0.000000      0.000000      0.000000      0.000000
      3 Al    c       0.000000      0.000000      0.000000      0.000000
      4 F     c       0.000000      0.000000      0.000000      0.000000
      5 F     c       0.000000      0.000000      0.000000      0.000000
      6 F     c       0.000000      0.000000      0.000000      0.000000
      7 F     c       0.000000      0.000000      0.000000      0.000000
      8 F     c       0.000000      0.000000      0.000000      0.000000
      9 F     c       0.000000      0.000000      0.000000      0.000000
     10 F     c       0.000000      0.000000      0.000000      0.000000
     11 F     c       0.000000      0.000000      0.000000      0.000000
     12 F     c       0.000000      0.000000      0.000000      0.000000
     13 F     s      -0.000000     -0.000000      0.000000      0.000000
     14 F     s       0.000000      0.000000     -0.000000      0.000000
     15 F     s       0.000000      0.000000     -0.000000      0.000000
     16 F     s       0.000000      0.000000     -0.000000      0.000000
     17 F     s      -0.000000     -0.000000      0.000000      0.000000
     18 F     s       0.000000      0.000000     -0.000000      0.000000
     19 F     s       0.000000      0.000000     -0.000000      0.000000
     20 F     s       0.000000      0.000000      0.000000      0.000000
     21 F     s      -0.000000     -0.000000     -0.000000      0.000000
--------------------------------------------------------------------------------
  Maximum abs         0.000000      0.000000      0.000000      0.000000
--------------------------------------------------------------------------------


  Born effective charge tensors : 

-------------------------------------------------------------------------------
  Atom             x           y             z
-------------------------------------------------------------------------------
    1 Al    x       0.7260     -0.4115     -0.1879
            y      -0.4041      1.0004     -0.0973
            z      -0.2042     -0.1114      1.1618
-------------------------------------------------------------------------------
    2 Al    x       0.8842     -0.3307      0.2265
            y      -0.3308      0.8737     -0.0185
            z       0.2268     -0.0183      1.6191
-------------------------------------------------------------------------------
    3 Al    x       1.0210     -0.3392      0.2023
            y      -0.3463      0.8698      0.3111
            z       0.2179      0.3245      1.0076
-------------------------------------------------------------------------------
    4 F     x      -0.2275      0.2935     -0.0793
            y       0.2806     -0.2657     -0.0440
            z      -0.0508     -0.0195     -0.5804
-------------------------------------------------------------------------------
    5 F     x      -0.2826      0.0296     -0.0457
            y       0.0145     -0.3016      0.0420
            z      -0.0263      0.0558     -0.3595
-------------------------------------------------------------------------------
    6 F     x      -0.5253      0.0559     -0.1094
            y       0.0740     -0.3544     -0.2520
            z      -0.1495     -0.2865     -0.1847
-------------------------------------------------------------------------------
    7 F     x      -0.3189      0.0098     -0.0498
            y       0.0248     -0.2738      0.0251
            z      -0.0685      0.0097     -0.3497
-------------------------------------------------------------------------------
    8 F     x      -0.2403      0.2785     -0.0943
            y       0.2787     -0.2590     -0.0347
            z      -0.0947     -0.0351     -0.6165
-------------------------------------------------------------------------------
    9 F     x      -0.2800     -0.0054     -0.0254
            y      -0.0023     -0.2773     -0.0130
            z      -0.0464     -0.0320     -0.3852
-------------------------------------------------------------------------------
   10 F     x      -0.2727      0.0039     -0.0088
            y       0.0012     -0.2697      0.0000
            z       0.0108      0.0201     -0.4011
-------------------------------------------------------------------------------
   11 F     x      -0.2348      0.1458      0.2473
            y       0.1276     -0.4824      0.1262
            z       0.2875      0.1608     -0.3443
-------------------------------------------------------------------------------
   12 F     x      -0.2492      0.2697     -0.0755
            y       0.2821     -0.2601     -0.0449
            z      -0.1026     -0.0683     -0.5671
-------------------------------------------------------------------------------




  Moment of inertia tensor (10^-46 x kgm^2): 

-------------------------------------------------------------------------------
                x           y           z           Principal axis system
-------------------------------------------------------------------------------
       x        241.45       -8.06      -57.07           79.772368
       y         -8.06      259.91       31.08          244.990289
       z        -57.07       31.08      104.36          280.949863
-------------------------------------------------------------------------------
  Centre of mass (Ang) =     0.763269     0.706813     0.009864
-------------------------------------------------------------------------------


  Vibrational Frequency Calculation : 

--------------------------------------------------------------------------------

  Frequencies (cm-1) and Eigenvectors : 

  Frequency      -6.9545   -0.0000    0.0000    0.0000    2.1117    6.8631
  IR Intensity    0.0000    0.0000    0.0000    0.0000    0.0000    0.0000
     in X         0.0000    0.0000    0.0000    0.0000    0.0000    0.0000
     in Y         0.0000    0.0000    0.0000    0.0000    0.0000    0.0000
     in Z         0.0000    0.0000    0.0000    0.0000    0.0000    0.0000
  Raman Intsty    0.0000    0.0000    0.0000    0.0000    0.0001    0.0000

     1 x       0.102937 -0.097602  0.293911  0.105732 -0.247506 -0.188274
     1 y      -0.118792  0.311028  0.101634  0.004593 -0.208288  0.226301
     1 z      -0.054001  0.028713 -0.101863  0.309659  0.001833  0.101401
     2 x       0.075686 -0.097602  0.293911  0.105732  0.028695  0.069378
     2 y      -0.088294  0.311028  0.101634  0.004593 -0.015759 -0.081207
     2 z      -0.040134  0.028713 -0.101863  0.309659  0.083614 -0.038112
     3 x      -0.186360 -0.097602  0.293911  0.105732  0.216430  0.114029
     3 y       0.216007  0.311028  0.101634  0.004593  0.225742 -0.139494
     3 z       0.098228  0.028713 -0.101863  0.309659 -0.093423 -0.060583
     4 x      -0.350917 -0.081906  0.246644  0.088729  0.125157 -0.067410
     4 y       0.407505  0.261009  0.085290  0.003854  0.233636  0.072906
     4 z       0.185155  0.024095 -0.085481  0.259860 -0.265917  0.038135
     5 x      -0.080803 -0.081906  0.246644  0.088729 -0.094113 -0.120607
     5 y      -0.186986  0.261009  0.085290  0.003854 -0.095165 -0.056525
     5 z      -0.099441  0.024095 -0.085481  0.259860  0.033896  0.162354
     6 x      -0.100320 -0.081906  0.246644  0.088729  0.332292  0.275771
     6 y       0.116059  0.261009  0.085290  0.003854  0.270331 -0.329842
     6 z       0.052817  0.024095 -0.085481  0.259860  0.011108 -0.148159
     7 x       0.132967 -0.081906  0.246644  0.088729  0.103039  0.176348
     7 y       0.191189  0.261009  0.085290  0.003854  0.091016  0.063781
     7 z       0.080839  0.024095 -0.085481  0.259860 -0.009580 -0.179566
     8 x       0.226693 -0.081906  0.246644  0.088729  0.088190  0.205713
     8 y      -0.263946  0.261009  0.085290  0.003854 -0.044282 -0.240315
     8 z      -0.120194  0.024095 -0.085481  0.259860  0.248478 -0.112943
     9 x      -0.233820 -0.081906  0.246644  0.088729  0.098418 -0.029716
     9 y      -0.074985  0.261009  0.085290  0.003854  0.084710 -0.240669
     9 z      -0.027825  0.024095 -0.085481  0.259860 -0.004686  0.100740
    10 x       0.224774 -0.081906  0.246644  0.088729 -0.093625  0.016287
    10 y       0.019992  0.261009  0.085290  0.003854 -0.092773  0.183425
    10 z       0.023542  0.024095 -0.085481  0.259860  0.029781 -0.106783
    11 x       0.239234 -0.081906  0.246644  0.088729 -0.277988 -0.163332
    11 y      -0.276887  0.261009  0.085290  0.003854 -0.293516  0.199337
    11 z      -0.126241  0.024095 -0.085481  0.259860  0.134208  0.086374
    12 x      -0.048587 -0.081906  0.246644  0.088729 -0.278533 -0.287252
    12 y       0.057428  0.261009  0.085290  0.003854 -0.155977  0.341229
    12 z       0.026470  0.024095 -0.085481  0.259860 -0.167784  0.156624


  Frequency      25.6163   38.7660   72.3512   94.9791  155.6139  159.8528
  IR Intensity    0.0000    0.0020    0.0046    0.0020    0.0002    0.0055
     in X         0.0000    0.0009    0.0005    0.0007    0.0001    0.0026
     in Y         0.0000    0.0010    0.0001    0.0010    0.0001    0.0026
     in Z         0.0000    0.0001    0.0040    0.0002    0.0000    0.0002
  Raman Intsty    0.0000    0.0007    0.0000    0.0000    0.0000    0.0943

     1 x       0.072572  0.103784  0.093692  0.039964 -0.024090  0.158660
     1 y      -0.082605  0.040746  0.068103 -0.046454  0.027841  0.059766
     1 z      -0.037826  0.106560  0.027399 -0.021084  0.012618  0.168911
     2 x      -0.011017 -0.158478  0.002064 -0.145898  0.005862 -0.092863
     2 y       0.012684 -0.150892  0.003752  0.169613 -0.006770 -0.085836
     2 z       0.005437  0.032726 -0.004258  0.076998 -0.003044  0.013725
     3 x      -0.053012  0.017021 -0.063276  0.052193  0.036935  0.018524
     3 y       0.059974  0.070672 -0.082827 -0.060700 -0.042938  0.110425
     3 z       0.027884 -0.123715  0.062565 -0.027556 -0.019456 -0.208235
     4 x      -0.239869 -0.085677 -0.152927 -0.089273 -0.223506  0.003504
     4 y       0.277632  0.137178  0.009254  0.103826  0.259952  0.105828
     4 z       0.127371 -0.466353 -0.309786  0.047151  0.118017 -0.227015
     5 x       0.293481 -0.112908  0.234434 -0.078180 -0.315759  0.074398
     5 y       0.154284 -0.112485  0.168695  0.086724 -0.180018  0.047544
     5 z       0.030746  0.032513  0.066009 -0.083438 -0.089956  0.115036
     6 x       0.184512  0.290523  0.215143  0.347201  0.164988 -0.354989
     6 y      -0.216912  0.220042  0.085995 -0.403751 -0.191644 -0.116593
     6 z      -0.098147  0.066592  0.217643 -0.183336 -0.086950 -0.415801
     7 x       0.107167 -0.124714 -0.154609 -0.089441 -0.172078  0.027199
     7 y       0.222774 -0.115290 -0.200431  0.069869 -0.315911  0.053373
     7 z      -0.108894  0.019700  0.143030 -0.095096  0.194246 -0.145145
     8 x      -0.036296 -0.134330 -0.131626 -0.263485 -0.012979 -0.074302
     8 y       0.041979 -0.124213  0.064403  0.306387  0.015142 -0.075347
     8 z       0.018232  0.020713 -0.391023  0.139100  0.006931  0.024833
     9 x      -0.179604 -0.123517 -0.156916 -0.002170  0.242620 -0.004674
     9 y      -0.139893 -0.115745 -0.197882  0.036683  0.233931  0.090301
     9 z       0.146750  0.019163  0.144312  0.143440 -0.231426 -0.128186
    10 x      -0.218643 -0.113658  0.231673 -0.024436  0.270876  0.106376
    10 y      -0.240299 -0.111999  0.171615  0.032580  0.232116  0.011194
    10 z      -0.070280  0.032999  0.067380  0.137593  0.113576  0.098649
    11 x      -0.221502  0.223638 -0.059265  0.343378 -0.171110 -0.042165
    11 y       0.260002  0.268398 -0.178989 -0.399274  0.198984 -0.262370
    11 z       0.116851 -0.167649  0.282552 -0.181209  0.090137  0.498542
    12 x       0.300576  0.225536 -0.064612 -0.079555  0.194655  0.164173
    12 y      -0.347713  0.001152  0.090415  0.092525 -0.226494  0.045551
    12 z      -0.157260  0.423767 -0.322248  0.042003 -0.102799  0.209593


  Frequency     169.5907  174.5024  204.6790  206.9630  208.7623  210.2083
  IR Intensity    0.0234    0.0002    0.0250    0.0004    0.0385    0.0438
     in X         0.0089    0.0000    0.0095    0.0001    0.0057    0.0030
     in Y         0.0120    0.0000    0.0129    0.0002    0.0003    0.0018
     in Z         0.0025    0.0002    0.0026    0.0000    0.0325    0.0390
  Raman Intsty    0.0000    0.0000    0.0000    0.0000    0.0162    0.0114

     1 x      -0.004107 -0.125368 -0.067554  0.228456  0.199312 -0.048230
     1 y       0.004581 -0.123969  0.078318 -0.265525  0.175773  0.046723
     1 z       0.002017  0.035574  0.035453 -0.120673 -0.008957 -0.193919
     2 x      -0.177931 -0.007138 -0.136009 -0.012347 -0.256264  0.128120
     2 y       0.206935 -0.009560  0.158797  0.014405 -0.166600  0.204723
     2 z       0.093930  0.007410  0.071874  0.006284 -0.118202 -0.208670
     3 x      -0.016076  0.135504 -0.005862 -0.241812 -0.069118 -0.178584
     3 y       0.018701  0.130596  0.006551  0.280938  0.027576 -0.179951
     3 z       0.008591 -0.030970  0.003219  0.127545 -0.192078  0.057318
     4 x       0.230512  0.220008 -0.021141  0.179459  0.115402 -0.199496
     4 y      -0.268055  0.040481  0.024284 -0.208957 -0.117592 -0.141453
     4 z      -0.121347  0.327777  0.010601 -0.094669  0.478127 -0.065940
     5 x      -0.363761 -0.068538  0.136480  0.117148 -0.042440 -0.053574
     5 y      -0.024403 -0.023268  0.324727 -0.132386 -0.031768  0.083601
     5 z      -0.112468  0.023248  0.092308 -0.178955 -0.061865 -0.180049
     6 x       0.024543  0.121813  0.085723  0.221016  0.334143  0.167563
     6 y      -0.028172  0.116876 -0.099950 -0.256591  0.257410  0.026833
     6 z      -0.012627 -0.026657 -0.045167 -0.116415  0.066080  0.259284
     7 x      -0.009996  0.023232 -0.272343 -0.160310 -0.129163  0.011246
     7 y       0.311761  0.067452 -0.128828  0.118909  0.003471  0.032832
     7 z      -0.156485 -0.001159  0.128444  0.222887 -0.147907 -0.083966
     8 x       0.173543 -0.247784  0.385092  0.043112 -0.132945  0.223577
     8 y      -0.201858  0.102316 -0.447308 -0.050020 -0.203296  0.142887
     8 z      -0.091710 -0.694683 -0.203208 -0.022581  0.194869  0.110264
     9 x      -0.210363  0.064809  0.127752 -0.156137 -0.086904 -0.002054
     9 y      -0.055544  0.019213  0.297249  0.249066 -0.044952  0.047426
     9 z       0.272963 -0.023134 -0.051919 -0.056029 -0.170117 -0.076726
    10 x       0.153842 -0.027713 -0.356811  0.160724 -0.063699 -0.010726
    10 y       0.268431 -0.070855 -0.068506 -0.190767 -0.007776  0.034720
    10 z       0.223145  0.001605  0.023702  0.032062 -0.051028 -0.202480
    11 x      -0.009097 -0.108938  0.132543 -0.175439  0.043911 -0.242165
    11 y       0.010766 -0.106026 -0.154540  0.203635 -0.079503 -0.293674
    11 z       0.004491  0.027144 -0.070036  0.092717  0.257663  0.188172
    12 x       0.246859  0.019537  0.032264 -0.198943  0.111924  0.223237
    12 y      -0.287261 -0.142692 -0.037491  0.231579  0.180213 -0.018369
    12 z      -0.130532  0.351544 -0.016457  0.105304 -0.185405  0.462877


  Frequency     232.8599  262.6782  277.6100  352.6726  390.9931  401.0058
  IR Intensity    0.0514    0.0311    0.0345    0.0000    0.0000    0.0013
     in X         0.0195    0.0033    0.0179    0.0000    0.0000    0.0001
     in Y         0.0264    0.0006    0.0160    0.0000    0.0000    0.0000
     in Z         0.0054    0.0271    0.0006    0.0000    0.0000    0.0011
  Raman Intsty    0.0000    0.0001    0.0482    0.5238    0.0000    0.0000

     1 x      -0.256146 -0.177214  0.125721 -0.021555  0.033292  0.001020
     1 y       0.297871 -0.087805  0.155331  0.111422 -0.038742 -0.071754
     1 z       0.135179 -0.142270 -0.104102 -0.286398 -0.017472  0.160129
     2 x       0.208960 -0.020645  0.134442 -0.209048  0.001653 -0.083288
     2 y      -0.243009  0.013282  0.126773 -0.198645 -0.001846  0.036840
     2 z      -0.110284 -0.068383 -0.024559  0.041294 -0.000557 -0.238920
     3 x      -0.252120  0.055701  0.181456  0.167029 -0.032624  0.102777
     3 y       0.293200  0.134699  0.136573  0.027185  0.037973  0.024933
     3 z       0.133131 -0.191213  0.042862  0.256591  0.017284  0.139772
     4 x       0.145976  0.160161  0.185973  0.098468  0.036624  0.093014
     4 y      -0.169788  0.052781  0.149151  0.130503 -0.042563  0.096204
     4 z      -0.077097  0.187125  0.023760 -0.100909 -0.019314 -0.035663
     5 x      -0.022096  0.298217 -0.284023  0.229098 -0.150432 -0.245220
     5 y      -0.041152  0.220064 -0.174176 -0.093548  0.389610  0.365449
     5 z       0.268332  0.010611 -0.209314 -0.201405 -0.269918  0.066447
     6 x       0.149112 -0.013186 -0.133493 -0.096785  0.034028 -0.050547
     6 y      -0.173403  0.097309 -0.045224 -0.149737 -0.039571 -0.084749
     6 z      -0.078760 -0.239322 -0.153218  0.146496 -0.017924  0.090977
     7 x       0.096241 -0.218212 -0.138843 -0.043646  0.427634 -0.335492
     7 y       0.061898 -0.271296 -0.228538  0.268074 -0.122828  0.280018
     7 z       0.245494  0.108169  0.297998  0.164945  0.212671  0.084580
     8 x      -0.073297  0.084953  0.140773 -0.267137  0.000276  0.023071
     8 y       0.085265 -0.035162  0.133614 -0.253367 -0.000292 -0.012844
     8 z       0.038693  0.238356 -0.027670  0.052093 -0.000106  0.071995
     9 x      -0.176239 -0.248738 -0.115728  0.292783 -0.079212  0.201165
     9 y       0.031155 -0.235772 -0.255419 -0.123012 -0.282594 -0.343644
     9 z      -0.203180  0.124247  0.285862 -0.012500 -0.396958 -0.198256
    10 x      -0.066067  0.270190 -0.305945 -0.108654 -0.199769  0.291113
    10 y       0.143626  0.252467 -0.148501  0.299068  0.017739 -0.258001
    10 z      -0.221906  0.025324 -0.197591 -0.022995  0.454394 -0.216948
    11 x       0.140332 -0.144770 -0.017693 -0.180428 -0.033780  0.103424
    11 y      -0.163203 -0.026941 -0.092040 -0.110882  0.039350  0.060261
    11 z      -0.074041 -0.215007  0.169363 -0.097505  0.017914  0.063123
    12 x       0.162701 -0.019216  0.142729  0.152059 -0.038136 -0.104968
    12 y      -0.189163 -0.125158  0.162222  0.104442  0.044265 -0.090800
    12 z      -0.085844  0.239375 -0.086948  0.058092  0.020128  0.001081


  Frequency     469.8954  511.2206  518.5605  541.6052  546.7725  604.7590
  IR Intensity    0.0036    0.0386    0.0028    0.0009    0.0329    0.1292
     in X         0.0018    0.0042    0.0013    0.0003    0.0125    0.0491
     in Y         0.0017    0.0007    0.0013    0.0005    0.0169    0.0664
     in Z         0.0001    0.0336    0.0001    0.0001    0.0035    0.0137
  Raman Intsty    2.3068    0.0016    3.5823    0.0000    0.0000    0.0000

     1 x       0.000795  0.003924 -0.003639  0.247134 -0.289145  0.128928
     1 y       0.003533 -0.064472  0.060821 -0.287343  0.336203 -0.149939
     1 z      -0.006573  0.147543 -0.139578 -0.130504  0.152657 -0.067991
     2 x       0.109878  0.029600 -0.002279  0.020712  0.149779  0.436239
     2 y       0.106296 -0.013423 -0.001578 -0.024115 -0.174154 -0.507528
     2 z      -0.024370  0.085384 -0.001229 -0.011061 -0.079002 -0.230286
     3 x       0.004412  0.098303  0.085610 -0.323206 -0.201463  0.126057
     3 y       0.001449  0.023947  0.021186  0.375751  0.234241 -0.146650
     3 z       0.005093  0.136314  0.117793  0.170515  0.106320 -0.066645
     4 x       0.004104  0.251297  0.256792  0.009636  0.002656 -0.018653
     4 y      -0.000213  0.224679  0.231625 -0.012575 -0.003968  0.021876
     4 z       0.008130 -0.019016 -0.023917 -0.005388 -0.001591  0.009891
     5 x       0.192943  0.106992 -0.129379 -0.164047  0.106685 -0.179248
     5 y      -0.378697 -0.012601  0.066688  0.112956  0.014943  0.263377
     5 z       0.175223 -0.322405  0.307286  0.248481 -0.424404 -0.009027
     6 x       0.005393 -0.067795 -0.072541  0.012186  0.005055 -0.018182
     6 y       0.004785 -0.188506 -0.192268 -0.013470 -0.005428  0.021047
     6 z      -0.000423  0.286643  0.285931 -0.007094 -0.003083  0.009700
     7 x      -0.399302 -0.059481 -0.000355  0.022622 -0.118503 -0.256856
     7 y       0.184149 -0.176230 -0.183615 -0.263808 -0.110777  0.192234
     7 z      -0.131572 -0.303775 -0.269234 -0.330637 -0.297599  0.001049
     8 x       0.260575  0.005989 -0.023318  0.002976  0.018103 -0.018287
     8 y       0.247165 -0.002197 -0.022076 -0.003435 -0.020586  0.022075
     8 z      -0.050913  0.016141  0.004285 -0.001581 -0.009484  0.009780
     9 x       0.014167 -0.290761 -0.269507  0.361498  0.246303 -0.108886
     9 y      -0.296960  0.093628  0.130043 -0.182020 -0.037698  0.232714
     9 z      -0.350282 -0.180479 -0.126169  0.129037  0.230366  0.191533
    10 x      -0.218162 -0.115266  0.151474 -0.160005  0.131078 -0.186323
    10 y       0.099500  0.246131 -0.260098  0.263619 -0.291382  0.161537
    10 z       0.391779 -0.205628  0.159697 -0.076903  0.298719  0.202386
    11 x       0.004491  0.233393 -0.258800 -0.009220  0.007667 -0.017867
    11 y       0.004795  0.102038 -0.115920  0.010241 -0.008395  0.020637
    11 z      -0.002149  0.217485 -0.235031  0.004424 -0.003575  0.009298
    12 x      -0.001349 -0.221458  0.250670 -0.009677  0.007099 -0.019385
    12 y       0.002873 -0.222657  0.249780  0.011879 -0.008942  0.022719
    12 z      -0.008991  0.071033 -0.075424  0.005165 -0.003815  0.010245


  Frequency     646.2996  728.7982  776.9513  796.7046  810.6530  813.0749
  IR Intensity    0.1499    0.0187    0.0002    0.0004    0.0014    0.0036
     in X         0.0152    0.0098    0.0001    0.0000    0.0001    0.0019
     in Y         0.0034    0.0086    0.0001    0.0001    0.0001    0.0016
     in Z         0.1313    0.0003    0.0000    0.0003    0.0012    0.0000
  Raman Intsty    0.0000    0.2078    0.4484    0.0018    0.0013    0.0263

     1 x      -0.009507  0.011951 -0.088730  0.091306  0.398214  0.410069
     1 y      -0.103212  0.190664 -0.205132  0.255472  0.246804  0.242138
     1 z       0.209579 -0.397752  0.283955 -0.390099  0.210798  0.243551
     2 x       0.204825  0.262277  0.441963  0.211967 -0.010788  0.062179
     2 y      -0.095749  0.249353  0.427705 -0.057707  0.016786  0.084593
     2 z       0.599132 -0.053130 -0.105742  0.528701 -0.057436 -0.068672
     3 x       0.138636  0.260100 -0.218646 -0.299616 -0.252140  0.260596
     3 y       0.035886  0.059484 -0.092274 -0.081194 -0.358552  0.347129
     3 z       0.182953  0.361040 -0.210671 -0.388249  0.312107 -0.270968
     4 x      -0.196157 -0.177290  0.129278  0.143329  0.236278 -0.232247
     4 y      -0.175796 -0.153326  0.112882  0.122470  0.217074 -0.213280
     4 z       0.015722  0.001981 -0.003799  0.001667 -0.030638  0.029920
     5 x      -0.056048 -0.043712  0.042719 -0.085792 -0.000447  0.002933
     5 y       0.142690 -0.016229 -0.067322  0.082516 -0.019832 -0.029550
     5 z      -0.179668  0.137745 -0.051153  0.053580 -0.022933 -0.022741
     6 x       0.047386  0.034610 -0.005140 -0.018512  0.075296 -0.070591
     6 y       0.131101  0.119701 -0.031799 -0.078629  0.196231 -0.180642
     6 z      -0.198950 -0.198022  0.060288  0.138063 -0.289531  0.264119
     7 x      -0.175992 -0.044915 -0.049896 -0.076062  0.013987 -0.010918
     7 y       0.032392 -0.068684  0.048291  0.103578  0.000910 -0.011547
     7 z      -0.155977 -0.121773  0.049347  0.056112 -0.018532  0.012906
     8 x      -0.000982 -0.295567 -0.370028 -0.027224 -0.004933 -0.058925
     8 y       0.004238 -0.280200 -0.351032 -0.017934 -0.005706 -0.056635
     8 z      -0.011191  0.057448  0.072457 -0.012059  0.003229  0.013157
     9 x      -0.076353 -0.120616  0.050651  0.096071 -0.003311 -0.007634
     9 y      -0.083364  0.019242 -0.068427 -0.096295  0.020984 -0.015345
     9 z      -0.208455 -0.081946 -0.003439 -0.034359 -0.009441  0.011187
    10 x       0.040845  0.030310 -0.069842  0.073894 -0.026842 -0.034550
    10 y       0.030157 -0.102289  0.063488 -0.103059  0.010840  0.014009
    10 z      -0.231065  0.098663  0.008476 -0.030944 -0.008966 -0.002900
    11 x      -0.165368  0.143868 -0.030624  0.049754 -0.251415 -0.262712
    11 y      -0.072820  0.056851 -0.007994  0.014231 -0.112922 -0.117896
    11 z      -0.152902  0.147368 -0.040415  0.062942 -0.227588 -0.238034
    12 x       0.184718 -0.163410  0.142504 -0.159817 -0.199825 -0.198640
    12 y       0.185730 -0.170290  0.146644 -0.165790 -0.194418 -0.192111
    12 z      -0.059218  0.065595 -0.053085  0.062488  0.049730  0.046891




--------------------------------------------------------------------------------
  Vibrational properties (for cluster):  Temperature  =       0.000 K
--------------------------------------------------------------------------------
  Zero point energy            =        0.707025 eV
--------------------------------------------------------------------------------

  Phonon density of states : 

--------------------------------------------------------------------------------
 Frequency (cm-1) Density of States                                             
--------------------------------------------------------------------------------
    0.00000 |************************************************************  0.118
   12.70430 |                                                              0.000
   25.40859 |***************                                               0.029
   38.11289 |***************                                               0.029
   50.81719 |                                                              0.000
   63.52148 |***************                                               0.029
   76.22578 |                                                              0.000
   88.93008 |***************                                               0.029
  101.63437 |                                                              0.000
  114.33867 |                                                              0.000
  127.04297 |                                                              0.000
  139.74726 |                                                              0.000
  152.45156 |******************************                                0.059
  165.15586 |******************************                                0.059
  177.86015 |                                                              0.000
  190.56445 |                                                              0.000
  203.26875 |************************************************************  0.118
  215.97304 |                                                              0.000
  228.67734 |***************                                               0.029
  241.38164 |                                                              0.000
  254.08593 |***************                                               0.029
  266.79023 |***************                                               0.029
  279.49453 |                                                              0.000
  292.19883 |                                                              0.000
  304.90312 |                                                              0.000
  317.60742 |                                                              0.000
  330.31172 |                                                              0.000
  343.01601 |***************                                               0.029
  355.72031 |                                                              0.000
  368.42461 |                                                              0.000
  381.12890 |***************                                               0.029
  393.83320 |***************                                               0.029
  406.53750 |                                                              0.000
  419.24179 |                                                              0.000
  431.94609 |                                                              0.000
  444.65039 |                                                              0.000
  457.35468 |***************                                               0.029
  470.05898 |                                                              0.000
  482.76328 |                                                              0.000
  495.46757 |                                                              0.000
  508.17187 |******************************                                0.059
  520.87617 |                                                              0.000
  533.58046 |***************                                               0.029
  546.28476 |***************                                               0.029
  558.98906 |                                                              0.000
  571.69335 |                                                              0.000
  584.39765 |                                                              0.000
  597.10195 |***************                                               0.029
  609.80624 |                                                              0.000
  622.51054 |                                                              0.000
  635.21484 |***************                                               0.029
  647.91913 |                                                              0.000
  660.62343 |                                                              0.000
  673.32773 |                                                              0.000
  686.03202 |                                                              0.000
  698.73632 |                                                              0.000
  711.44062 |                                                              0.000
  724.14491 |***************                                               0.029
  736.84921 |                                                              0.000
  749.55351 |                                                              0.000
  762.25780 |                                                              0.000
  774.96210 |***************                                               0.029
  787.66640 |***************                                               0.029
  800.37069 |******************************                                0.059
--------------------------------------------------------------------------------



  Time to end of optimisation =       0.0350 seconds


  Peak dynamic memory used =       0.65 MB 


  Timing analysis for GULP :

--------------------------------------------------------------------------------
  Task / Subroutine                                          Time (Seconds)
--------------------------------------------------------------------------------
  Calculation of real space energy and derivatives                0.0024
  Calculation of phonons                                          0.0017
  Calculation and manipulation of Hessian matrix                  0.0014
--------------------------------------------------------------------------------
  Total CPU time                                                  0.0350
--------------------------------------------------------------------------------


  Job Finished at 14:38.26 25th May        2022                               

