12
Properties=species:S:1:pos:R:3:forces:R:3 energy=-187.16061628 pbc="F F F"
Al    0.664815193    -0.09554415799999999    1.671335739    0.557033    1.177814    -0.401586
Al    2.374850365    -1.671358872    -0.6426754969999999    -0.245685    -1.155737    -0.261412
Al    -0.9138829810000001    -1.520273758    -0.820909143    -0.537422    -0.057432    0.289177
F    3.533101707    -0.5205867930000001    -1.41432418    0.47753    0.509167    -0.289502
F    -1.840010854    -0.32394888800000005    -1.783657597    -0.035128    0.082731    -0.082881
F    2.6481583950000003    -3.485624694    -0.46820864300000004    -0.053392    0.369705    -0.054082
F    -1.361483566    -3.338886202    -0.74382072    -0.039578    -0.162262    -0.044605
F    2.070365997    -1.135798393    1.108569402    -0.066749    0.135671    0.419814
F    0.797065164    -1.400109882    -1.503421665    0.517214    0.059556    -0.144016
F    0.46521775200000004    -0.584700563    3.453770289    -0.105928    -0.186512    0.631911
F    0.7388705710000001    1.506690299    0.983774136    -0.030461    -0.467393    0.208185
F    -0.820970868    -1.029985383    0.909825814    -0.437438    -0.305306    -0.271
