********************************************************************************
*                       GENERAL UTILITY LATTICE PROGRAM                        *
*                                 Julian Gale                                  *
*                       Curtin Institute for Computation                       *
*                           Department of Chemistry                            *
*                    Curtin University, Western Australia                      *
********************************************************************************
* Version = 5.1.1 * Last modified =  11th January 2019                         *
********************************************************************************
*  single       - perform a single point run                                   *
*  phonon       - calculate phonons for final geometry                         *
*  eigenvectors - output phonon eigenvectors                                   *
********************************************************************************

  Job Started  at 10:30.22 17th May        2022                               

  Number of CPUs =     1

  Host name      = login04                                 


  Total number of configurations input =      1

********************************************************************************
*  Input for Configuration =   1                                               *
********************************************************************************

  Formula = Al3F9                                                       

  Number of irreducible atoms/shells =      21


  Total number atoms/shells =      21

  Dimensionality = 0               :  Cluster


  Charge on cluster =  -0.000000


  Initial cluster dipoles : x =      0.006731 e.Angs
                            y =     -0.006311 e.Angs
                            z =      0.092315 e.Angs

  Temperature of configuration =  0.000     K 

  Symmetry number =      1

  Cartesian coordinates of cluster :

--------------------------------------------------------------------------------
   No.  Atomic       x           y          z         Charge      Occupancy
        Label      (Angs)      (Angs)     (Angs)        (e)         (Frac)  
--------------------------------------------------------------------------------
      1 Al    c      0.3344     -0.5995      1.7382     3.00000    1.000000    
      2 Al    c      2.3594     -1.7929     -0.5100     3.00000    1.000000    
      3 Al    c     -0.8818     -1.8260     -0.9985     3.00000    1.000000    
      4 F     c      3.5332     -0.5849     -1.1952     0.59000    1.000000    
      5 F     c     -1.8057     -0.4749     -1.7916     0.59000    1.000000    
      6 F     c      2.6657     -3.5819     -0.3736     0.59000    1.000000    
      7 F     c     -1.2612     -3.5951     -1.2030     0.59000    1.000000    
      8 F     c      1.9555     -1.2664      1.1968     0.59000    1.000000    
      9 F     c      0.8442     -1.5083     -1.4875     0.59000    1.000000    
     10 F     c      0.1668     -1.1716      3.4517     0.59000    1.000000    
     11 F     c      0.2356      1.1330      1.1737     0.59000    1.000000    
     12 F     c     -0.9051     -1.5987      0.8252     0.59000    1.000000    
     13 F     s      3.5332     -0.5849     -1.1952    -1.59000    1.000000    
     14 F     s     -1.8057     -0.4749     -1.7916    -1.59000    1.000000    
     15 F     s      2.6657     -3.5819     -0.3736    -1.59000    1.000000    
     16 F     s     -1.2612     -3.5951     -1.2030    -1.59000    1.000000    
     17 F     s      1.9555     -1.2664      1.1968    -1.59000    1.000000    
     18 F     s      0.8442     -1.5083     -1.4875    -1.59000    1.000000    
     19 F     s      0.1668     -1.1716      3.4517    -1.59000    1.000000    
     20 F     s      0.2356      1.1330      1.1737    -1.59000    1.000000    
     21 F     s     -0.9051     -1.5987      0.8252    -1.59000    1.000000    
--------------------------------------------------------------------------------


  Brillouin zone sampling points :

--------------------------------------------------------------------------------
  Point number          x          y          z            Weight
--------------------------------------------------------------------------------
        1           0.000000   0.000000   0.000000     1.00000000
--------------------------------------------------------------------------------


********************************************************************************
*  General input information                                                   *
********************************************************************************

  Species output for all configurations : 

--------------------------------------------------------------------------------
  Species    Type    Atomic    Atomic    Charge       Radii (Angs)     Library
                     Number     Mass       (e)     Cova   Ionic  VDW   Symbol
--------------------------------------------------------------------------------
    Al       Core       13      26.98   3.000000   1.350  0.000  2.050          
    F        Core        9      19.00   0.590000   0.710  0.000  1.300          
    F        Shell       9       0.00  -1.590000   0.710  0.000  1.300          
--------------------------------------------------------------------------------


  Accuracy factor for short range sums = 12.000

  Time limit = Infinity

  Maximum range for interatomic potentials =    100000.000000 Angstroms

  General interatomic potentials :

--------------------------------------------------------------------------------
Atom  Types   Potential      Parameter       Value         Units   Cutoffs(Ang)
  1     2                                                            Min /  Max 
--------------------------------------------------------------------------------
Al   c F    s Buckingham    Buckingham A     3760.0008    eV        0.000 10.000
                            Buckingham rho  0.22200000    Ang       
                            Buckingham C     0.0000000    eV*Ang^6  
--------------------------------------------------------------------------------
F    s F    s Buck 4 range  Buck4 A          1127.7000    eV        0.000 12.000
                            Buck4 rho       0.27530000    Ang       
                            Buck4 C          15.830000    eV*Ang^6  
                            Buck4 minimum    2.7900000    Ang       
--------------------------------------------------------------------------------
F    c F    s Spring (c-s)  Spring k 2       20.770000    eV*Ang^-2 0.000  0.800
                            Spring k 4       0.0000000    eV*Ang^-4 
--------------------------------------------------------------------------------

********************************************************************************
*  Output for configuration   1                                                *
********************************************************************************


  Components of energy : 

--------------------------------------------------------------------------------
  Interatomic potentials     =          11.68683222 eV    
  Monopole - monopole (real) =        -182.11921379 eV    
--------------------------------------------------------------------------------
  Total lattice energy       =        -170.43238157 eV    
--------------------------------------------------------------------------------
  Total lattice energy       =          -16444.1195 kJ/mol
--------------------------------------------------------------------------------

  Born effective charge tensors : 

-------------------------------------------------------------------------------
  Atom             x           y             z
-------------------------------------------------------------------------------
    1 Al    x       1.9622     -0.0151     -0.0044
            y      -0.0303      2.1206     -0.1329
            z      -0.0218      0.0339      2.1143
-------------------------------------------------------------------------------
    2 Al    x       2.0387     -0.0161     -0.0817
            y       0.0786      2.1772      0.0064
            z      -0.0730     -0.0561      1.9450
-------------------------------------------------------------------------------
    3 Al    x       1.9880      0.0029      0.0924
            y      -0.0725      2.2050      0.0548
            z       0.0993     -0.0389      1.9867
-------------------------------------------------------------------------------
    4 F     x      -0.8943     -0.3101      0.2123
            y      -0.2434     -0.7419      0.1304
            z       0.1933      0.1573     -0.6242
-------------------------------------------------------------------------------
    5 F     x      -0.7600      0.2779     -0.2167
            y       0.2196     -0.7903      0.1809
            z      -0.2075      0.2215     -0.6960
-------------------------------------------------------------------------------
    6 F     x      -0.6235      0.2403      0.0005
            y       0.1742     -1.0916      0.0261
            z       0.0077     -0.0051     -0.5112
-------------------------------------------------------------------------------
    7 F     x      -0.6160     -0.2333     -0.0569
            y      -0.1784     -1.0914     -0.1030
            z      -0.0594     -0.1498     -0.5441
-------------------------------------------------------------------------------
    8 F     x      -0.6542      0.1511      0.1708
            y       0.1474     -0.3816     -0.1656
            z       0.1725     -0.1706     -0.6729
-------------------------------------------------------------------------------
    9 F     x      -0.8728     -0.0038     -0.0657
            y      -0.0031     -0.2952      0.0020
            z      -0.0619      0.0065     -0.4729
-------------------------------------------------------------------------------
   10 F     x      -0.5299     -0.0176      0.0722
            y      -0.0063     -0.5580      0.1086
            z       0.0674      0.1731     -1.1802
-------------------------------------------------------------------------------
   11 F     x      -0.5133      0.0542     -0.0060
            y       0.0435     -1.1491      0.0753
            z       0.0021      0.0105     -0.5585
-------------------------------------------------------------------------------
   12 F     x      -0.5249     -0.1303     -0.1168
            y      -0.1292     -0.4038     -0.1831
            z      -0.1187     -0.1822     -0.7860
-------------------------------------------------------------------------------




  Moment of inertia tensor (10^-46 x kgm^2): 

-------------------------------------------------------------------------------
                x           y           z           Principal axis system
-------------------------------------------------------------------------------
       x        154.21        3.82       -1.68          153.884306
       y          3.82      202.15      -24.02          155.629294
       z         -1.68      -24.02      167.98          214.826488
-------------------------------------------------------------------------------
  Centre of mass (Ang) =     0.603472    -1.405656     0.069601
-------------------------------------------------------------------------------


  Vibrational Frequency Calculation : 

--------------------------------------------------------------------------------

  Frequencies (cm-1) and Eigenvectors : 

  Frequency    -105.8764  -69.5343  -50.1341   -0.0000    0.0000    0.0000
  IR Intensity    0.0001    0.0001    0.0001    0.0000    0.0000    0.0000
     in X         0.0001    0.0000    0.0000    0.0000    0.0000    0.0000
     in Y         0.0000    0.0000    0.0000    0.0000    0.0000    0.0000
     in Z         0.0000    0.0001    0.0000    0.0000    0.0000    0.0000
  Raman Intsty    0.0003    0.0000    0.0000    0.0000    0.0000    0.0000

     1 x       0.369426 -0.151155 -0.187034 -0.324393  0.043076  0.001663
     1 y       0.136212  0.427387 -0.198816  0.038817  0.297374 -0.130963
     1 z      -0.010336 -0.254085  0.072168  0.018750  0.129624  0.299892
     2 x      -0.120323  0.068576  0.097324 -0.324393  0.043076  0.001663
     2 y       0.075535 -0.071522  0.507087  0.038817  0.297374 -0.130963
     2 z      -0.394634  0.207876 -0.043323  0.018750  0.129624  0.299892
     3 x      -0.231322  0.083565  0.111107 -0.324393  0.043076  0.001663
     3 y      -0.216405 -0.375792 -0.303031  0.038817  0.297374 -0.130963
     3 z       0.398381  0.010361 -0.017485  0.018750  0.129624  0.299892
     4 x      -0.036410  0.033125  0.094342 -0.272224  0.036149  0.001395
     4 y       0.061317 -0.044038  0.383602  0.032574  0.249550 -0.109901
     4 z      -0.199599  0.118369 -0.038575  0.015734  0.108778  0.251664
     5 x      -0.075506  0.085885  0.086170 -0.272224  0.036149  0.001395
     5 y      -0.137668 -0.245328 -0.235533  0.032574  0.249550 -0.109901
     5 z       0.217801  0.039123  0.012425  0.015734  0.108778  0.251664
     6 x      -0.073685  0.040176  0.008639 -0.272224  0.036149  0.001395
     6 y       0.066486 -0.069406  0.375558  0.032574  0.249550 -0.109901
     6 z      -0.174336  0.124583 -0.040710  0.015734  0.108778  0.251664
     7 x      -0.129031  0.025800  0.046902 -0.272224  0.036149  0.001395
     7 y      -0.157898 -0.286458 -0.214821  0.032574  0.249550 -0.109901
     7 z       0.171610  0.002336 -0.021374  0.015734  0.108778  0.251664
     8 x       0.100526 -0.075263 -0.034741 -0.272224  0.036149  0.001395
     8 y       0.002078  0.119361  0.119442  0.032574  0.249550 -0.109901
     8 z      -0.158052  0.019282  0.024148  0.015734  0.108778  0.251664
     9 x      -0.197841  0.059041  0.049509 -0.272224  0.036149  0.001395
     9 y      -0.026335 -0.111136  0.051376  0.032574  0.249550 -0.109901
     9 z      -0.004038  0.104707 -0.041668  0.015734  0.108778  0.251664
    10 x       0.172295 -0.097863 -0.125517 -0.272224  0.036149  0.001395
    10 y       0.077279  0.307329 -0.152358  0.032574  0.249550 -0.109901
    10 z      -0.030131 -0.218646  0.062542  0.015734  0.108778  0.251664
    11 x       0.159782 -0.077063 -0.100029 -0.272224  0.036149  0.001395
    11 y       0.094686  0.349059 -0.156755  0.032574  0.249550 -0.109901
    11 z       0.007249 -0.083959  0.031308  0.015734  0.108778  0.251664
    12 x       0.058682  0.004988 -0.050773 -0.272224  0.036149  0.001395
    12 y       0.025607  0.004363 -0.176755  0.032574  0.249550 -0.109901
    12 z       0.177348 -0.063078 -0.001633  0.015734  0.108778  0.251664


  Frequency     121.9956  125.2386  129.4730  132.9175  135.4208  145.9806
  IR Intensity    0.0037    0.0032    0.0028    0.0008    0.0005    0.0002
     in X         0.0001    0.0029    0.0000    0.0008    0.0002    0.0000
     in Y         0.0026    0.0001    0.0023    0.0000    0.0003    0.0001
     in Z         0.0010    0.0002    0.0005    0.0000    0.0000    0.0001
  Raman Intsty    0.1275    0.1328    0.0029    0.0573    0.0309    0.1111

     1 x       0.019913  0.158839 -0.018910  0.092648 -0.044962 -0.001640
     1 y      -0.047141 -0.006811  0.011108  0.033199  0.042710  0.035075
     1 z      -0.187900  0.006367  0.038326  0.018369 -0.024808  0.011711
     2 x       0.119442 -0.108028 -0.069935 -0.047792 -0.035597  0.079170
     2 y       0.037194  0.024221 -0.062374  0.072783  0.003279 -0.022020
     2 z       0.086906  0.128180 -0.055814  0.039898 -0.027103 -0.009330
     3 x      -0.128820 -0.054899  0.099497 -0.002322  0.049922 -0.087537
     3 y       0.026887 -0.045587 -0.063492 -0.046359  0.053107 -0.026412
     3 z       0.070343 -0.125456 -0.009635 -0.067187  0.034586 -0.053690
     4 x       0.182567 -0.129088  0.044294 -0.201916 -0.067492  0.047837
     4 y      -0.009475  0.049992 -0.171486  0.316689  0.070410  0.003874
     4 z       0.102308  0.144252 -0.086931  0.266491  0.029202 -0.006796
     5 x      -0.230622 -0.147174 -0.003038 -0.021210  0.102659 -0.114211
     5 y      -0.050692 -0.130405 -0.147903 -0.124980  0.237525 -0.039112
     5 z       0.042526 -0.201621 -0.078783 -0.222602  0.335366 -0.044914
     6 x       0.233980 -0.420664 -0.312333 -0.012920 -0.009741  0.465832
     6 y       0.030441  0.012220 -0.082679  0.055390 -0.007521  0.008412
     6 z       0.030190  0.264948 -0.176343 -0.084021 -0.138578 -0.196919
     7 x      -0.158173 -0.221399  0.420538 -0.035334  0.002637 -0.378048
     7 y       0.023800 -0.007899 -0.096752 -0.037884  0.068724  0.048347
     7 z       0.027495 -0.285801 -0.008308 -0.055961 -0.124217 -0.300893
     8 x       0.092183  0.259890 -0.098537 -0.139588 -0.124577 -0.040693
     8 y      -0.110391  0.275635 -0.162237 -0.625918 -0.250849 -0.095721
     8 z       0.082200  0.113011 -0.005211  0.223096  0.039535 -0.013412
     9 x      -0.062533 -0.051483 -0.019114 -0.004103  0.015053 -0.034435
     9 y       0.395649  0.111823  0.685005 -0.073371  0.048360  0.128155
     9 z       0.415450  0.038569  0.120763 -0.068195 -0.079324  0.167272
    10 x       0.022773  0.194200 -0.039193  0.064977 -0.144405 -0.016062
    10 y      -0.067237 -0.023151  0.024952  0.162996  0.342230 -0.118631
    10 z      -0.190194  0.004753  0.047758  0.062228  0.074846 -0.047761
    11 x       0.064567  0.170711 -0.024818  0.333052 -0.097372 -0.063969
    11 y      -0.205434 -0.010950  0.093471  0.024410 -0.061859  0.236658
    11 z      -0.507480 -0.016266  0.221130 -0.022140 -0.226097  0.538459
    12 x      -0.157295  0.349878  0.019508 -0.033644  0.359745  0.145676
    12 y      -0.026846 -0.243687 -0.005621  0.231620 -0.565105 -0.156068
    12 z       0.034031 -0.072678 -0.001753 -0.088268  0.109912 -0.033894


  Frequency     152.8627  156.5496  158.9594  164.9717  165.0909  183.4731
  IR Intensity    0.0004    0.0006    0.0006    0.0000    0.0001    0.0099
     in X         0.0003    0.0003    0.0000    0.0000    0.0001    0.0001
     in Y         0.0000    0.0000    0.0000    0.0000    0.0000    0.0045
     in Z         0.0002    0.0003    0.0006    0.0000    0.0000    0.0053
  Raman Intsty    0.0196    0.0111    0.0480    0.0551    0.0014    0.0047

     1 x      -0.017950  0.016036  0.006441  0.021798 -0.026563  0.003339
     1 y       0.004356  0.015518  0.048288  0.041354  0.001836 -0.092963
     1 z      -0.063220 -0.061500 -0.105341 -0.093785 -0.024842  0.093986
     2 x       0.045910 -0.044710 -0.029096 -0.053876  0.018626 -0.018452
     2 y       0.068038 -0.026662 -0.061357 -0.078482  0.062098 -0.119504
     2 z      -0.006074  0.024545  0.028651  0.037967  0.001827  0.060854
     3 x       0.036763 -0.012561  0.009315  0.020613  0.024919 -0.017887
     3 y      -0.084485 -0.003750 -0.008033  0.010495 -0.093819 -0.102409
     3 z       0.027897 -0.008063  0.012700  0.024933  0.015859  0.061764
     4 x       0.319924 -0.301001 -0.110672 -0.444674 -0.089636 -0.296310
     4 y      -0.116040  0.122634  0.260961  0.200660 -0.051927  0.083259
     4 z       0.133791 -0.144734  0.451769 -0.143259 -0.411240 -0.018643
     5 x       0.369982 -0.247759  0.020354  0.419369  0.288560  0.314833
     5 y       0.261950  0.086226  0.115239  0.139046  0.114922  0.045256
     5 z       0.242969  0.425391  0.224103 -0.246603  0.085109 -0.049963
     6 x      -0.400158  0.137708 -0.103692  0.091912 -0.036632  0.086633
     6 y      -0.009152  0.020093 -0.091840 -0.055852  0.070870 -0.151042
     6 z      -0.090511  0.262976 -0.291288  0.069193  0.434184 -0.354411
     7 x      -0.330581  0.392239  0.151217 -0.094479 -0.134765  0.027697
     7 y       0.009753 -0.047766 -0.026795 -0.027197 -0.029769 -0.073228
     7 z      -0.142981 -0.321849 -0.060126  0.439640 -0.274527 -0.384036
     8 x      -0.020702  0.023972  0.008700  0.050735 -0.113239  0.175843
     8 y      -0.083537  0.007300  0.031304 -0.006679 -0.258530  0.294386
     8 z       0.016148  0.017500 -0.042287  0.029650  0.039165  0.021383
     9 x       0.039750 -0.029276  0.000895 -0.024567  0.001507 -0.048550
     9 y       0.015778 -0.016141 -0.009364  0.163904  0.081118 -0.006954
     9 z       0.018620 -0.014016 -0.011529  0.108950  0.087623  0.286495
    10 x      -0.243752 -0.217787  0.465337 -0.152379  0.469376 -0.072230
    10 y      -0.233050 -0.263938 -0.324563 -0.290504  0.045766  0.253632
    10 z      -0.164925 -0.176979 -0.181544 -0.219643  0.036582  0.211773
    11 x       0.310801  0.324180 -0.371909  0.040966 -0.247179  0.097623
    11 y       0.063380  0.067978  0.049888  0.061025 -0.015036 -0.178571
    11 z       0.068241  0.049375 -0.003088 -0.005016 -0.003928 -0.056512
    12 x      -0.122391 -0.033139 -0.044335  0.126779 -0.158227 -0.246215
    12 y       0.105325  0.041363  0.020315 -0.152667  0.078198  0.108481
    12 z      -0.032021 -0.044018 -0.009758  0.003893  0.015559  0.085800


  Frequency     198.0616  203.0706  212.1657  230.6655  236.0618  268.6946
  IR Intensity    0.0022    0.0347    0.0319    0.0495    0.0331    0.0009
     in X         0.0020    0.0254    0.0134    0.0046    0.0278    0.0000
     in Y         0.0000    0.0021    0.0067    0.0159    0.0004    0.0001
     in Z         0.0002    0.0072    0.0117    0.0291    0.0049    0.0008
  Raman Intsty    0.0016    0.0016    0.0478    0.0574    0.1229    0.1125

     1 x      -0.201349 -0.242537  0.133510 -0.046333  0.022505  0.007054
     1 y      -0.019257 -0.071909 -0.105210  0.250968 -0.073427  0.002096
     1 z      -0.019608 -0.020330  0.049281  0.258521 -0.050049 -0.110187
     2 x       0.125459 -0.103857 -0.019706 -0.217813 -0.234683 -0.071335
     2 y       0.038340 -0.049367 -0.146258  0.043230  0.117483  0.006779
     2 z       0.265304 -0.027081 -0.115248  0.118014  0.052301  0.057516
     3 x       0.183932 -0.012229  0.139700  0.070944 -0.265262  0.053784
     3 y      -0.022973 -0.046825 -0.135312 -0.046037 -0.105478  0.025386
     3 z      -0.210033 -0.098991 -0.089823  0.110606 -0.193425  0.081268
     4 x      -0.176267 -0.015221 -0.127937 -0.059724  0.076228 -0.072049
     4 y      -0.028578 -0.033349  0.066408 -0.303797 -0.287080 -0.144019
     4 z      -0.388224  0.211565  0.177480 -0.027124  0.079925  0.026608
     5 x      -0.247648  0.062804  0.017562  0.110356  0.077181  0.030023
     5 y      -0.028095  0.064507 -0.065438 -0.148811  0.372616 -0.138433
     5 z       0.307637  0.032811  0.301928 -0.033186  0.020071 -0.014897
     6 x      -0.138582  0.185673  0.147666  0.187423  0.168341  0.072215
     6 y      -0.044642 -0.020232 -0.117766  0.129404  0.253627  0.071724
     6 z      -0.369521  0.109181  0.177616 -0.172342 -0.061926 -0.039263
     7 x      -0.214917 -0.049562 -0.298305 -0.054036  0.162104 -0.038038
     7 y      -0.004190 -0.060447 -0.109148  0.017750 -0.338539  0.140694
     7 z       0.274191  0.126257  0.068347 -0.170019  0.125480 -0.032343
     8 x       0.061731 -0.336080  0.125158 -0.215151  0.197108  0.358606
     8 y       0.034577  0.204630  0.041946  0.077861 -0.000100 -0.026052
     8 z       0.182004 -0.314269 -0.095307  0.161471  0.283388  0.342221
     9 x       0.148914 -0.055829  0.096555 -0.025575 -0.262573  0.068378
     9 y      -0.019671  0.189494  0.361143  0.073760 -0.014690  0.135617
     9 z       0.041207 -0.166859 -0.325276 -0.213308 -0.011156 -0.489553
    10 x       0.236008  0.347724 -0.177844  0.034320  0.076951  0.020480
    10 y       0.031615  0.084947  0.115243 -0.383201  0.106016  0.089696
    10 z       0.040279  0.100892  0.121649  0.167203 -0.009275 -0.224335
    11 x       0.168665  0.483067 -0.192102  0.029145 -0.017869 -0.009316
    11 y       0.010452 -0.000520 -0.160219  0.093518 -0.053427  0.045217
    11 z       0.013925  0.039537 -0.010798 -0.380388  0.087669  0.103422
    12 x       0.033348 -0.195228  0.107160  0.223469  0.091462 -0.417791
    12 y       0.053165 -0.228716  0.328731  0.147798  0.034770 -0.215270
    12 z      -0.143996  0.035344 -0.229993  0.087198 -0.286368  0.294064


  Frequency     327.1091  357.0809  360.5947  447.7003  451.0701  466.2759
  IR Intensity    0.0001    0.1868    0.2073    0.0323    0.0212    0.0247
     in X         0.0000    0.0000    0.2063    0.0085    0.0121    0.0193
     in Y         0.0000    0.0504    0.0006    0.0044    0.0002    0.0008
     in Z         0.0000    0.1363    0.0004    0.0194    0.0088    0.0045
  Raman Intsty    5.7128    0.0100    0.0024    0.0063    0.0002    0.0004

     1 x       0.029964  0.001661 -0.275295  0.008938  0.021361  0.326285
     1 y      -0.116330  0.189803 -0.004095 -0.369665  0.338167 -0.009228
     1 z      -0.137583  0.082340 -0.020496  0.204818 -0.150926  0.059135
     2 x      -0.157424  0.039314 -0.186818 -0.065807 -0.098489 -0.026181
     2 y       0.060200  0.047500  0.065119 -0.074856 -0.541412  0.007525
     2 z       0.050617  0.252752 -0.052354  0.060377  0.082537 -0.159399
     3 x       0.129755 -0.043885 -0.220379 -0.073840 -0.073891 -0.082339
     3 y       0.038624  0.021635 -0.051685  0.526540  0.191947  0.043688
     3 z       0.094851  0.240263  0.052968 -0.056701 -0.078282  0.214522
     4 x      -0.208442  0.094354  0.282712  0.083472  0.218241 -0.025818
     4 y      -0.281570  0.100286  0.250416  0.087975  0.263254 -0.015880
     4 z       0.129685 -0.124202 -0.122143 -0.051712 -0.121726 -0.004967
     5 x       0.157775 -0.122093  0.213720  0.170642  0.102927 -0.017737
     5 y      -0.304892  0.198143 -0.245459 -0.277062 -0.165077  0.002885
     5 z       0.135327 -0.167741  0.113982  0.131508  0.085928 -0.008525
     6 x      -0.003492  0.006500  0.089233 -0.002944 -0.047508  0.004115
     6 y       0.346570 -0.178805 -0.436061  0.013980  0.412112 -0.064090
     6 z      -0.042809 -0.047602  0.045499 -0.015620 -0.028227 -0.007840
     7 x       0.031765 -0.023933  0.108280 -0.059275 -0.013387  0.001032
     7 y       0.362677 -0.255340  0.356329 -0.407562 -0.075927  0.017609
     7 z       0.014386 -0.082948  0.022244 -0.047279  0.006159  0.007773
     8 x      -0.142667 -0.222790  0.068354 -0.090430  0.023938 -0.356430
     8 y       0.022143  0.074828  0.045779  0.046584 -0.000384  0.198633
     8 z      -0.136354  0.015815  0.244942  0.041572  0.023873  0.350016
     9 x      -0.023812  0.061856 -0.238327 -0.028833 -0.021413  0.388435
     9 y      -0.084899  0.066727  0.008491 -0.007805  0.007798  0.005253
     9 z       0.176455 -0.211369 -0.065732  0.000837 -0.013520  0.044289
    10 x       0.029114  0.031382  0.076949  0.024725 -0.017416  0.001883
    10 y       0.155698  0.085646  0.016670  0.122855 -0.097366  0.008936
    10 z      -0.331343 -0.370067 -0.031652 -0.292059  0.213960 -0.003961
    11 x       0.010316  0.027005  0.066177 -0.005831  0.023588 -0.018342
    11 y      -0.298199 -0.517349 -0.057230  0.270556 -0.246392  0.028537
    11 z       0.168314  0.176814  0.027655 -0.093658  0.089924 -0.012810
    12 x       0.146708  0.151185  0.146185  0.064230 -0.089008 -0.236635
    12 y       0.103333  0.117303  0.049936  0.052743 -0.084555 -0.231912
    12 z      -0.123058  0.125686 -0.211102  0.077962 -0.081593 -0.500129


  Frequency     481.9592  482.9852  485.5426  516.7540  532.9180  552.4895
  IR Intensity    0.7470    0.0406    0.0433    0.3947    0.3514    0.0025
     in X         0.0003    0.0042    0.0052    0.0050    0.3477    0.0009
     in Y         0.6530    0.0342    0.0378    0.0189    0.0002    0.0006
     in Z         0.0937    0.0022    0.0003    0.3708    0.0036    0.0010
  Raman Intsty    0.0189    0.5478    0.0280    0.0182    0.0140    0.3021

     1 x       0.014034  0.380296  0.426432  0.049419 -0.150808 -0.069060
     1 y      -0.430589  0.054944 -0.031616 -0.142205 -0.021602  0.192091
     1 z       0.035526  0.280261 -0.230697 -0.450933 -0.044914  0.480168
     2 x       0.057387 -0.384502  0.130508  0.169388 -0.419665  0.481273
     2 y      -0.382184 -0.023297  0.256882 -0.060263  0.061614 -0.099757
     2 z       0.266443  0.037049  0.532894 -0.263671  0.020119 -0.142386
     3 x      -0.112116  0.226981 -0.352702 -0.120120 -0.376197 -0.464966
     3 y      -0.378146 -0.233498  0.039379 -0.033416 -0.060540 -0.120507
     3 z       0.228410 -0.497687 -0.132657 -0.228701 -0.064295 -0.285835
     4 x       0.107969  0.176743 -0.024472 -0.041600  0.036585 -0.136308
     4 y       0.170408  0.137496 -0.040823 -0.021594  0.010950 -0.081547
     4 z      -0.103659 -0.079759 -0.060198  0.033648 -0.014905  0.063187
     5 x      -0.071923 -0.043478  0.137406  0.018587  0.017239  0.107437
     5 y       0.186803  0.048583 -0.144595 -0.011169  0.003947 -0.082769
     5 z      -0.104460  0.052951  0.090242  0.027458  0.005633  0.080928
     6 x      -0.029617  0.055726 -0.006542 -0.012770  0.031912 -0.064342
     6 y       0.265403 -0.070467 -0.130412 -0.002795  0.005407  0.109602
     6 z      -0.052716  0.002265 -0.055721  0.019007 -0.002920  0.006182
     7 x       0.045818 -0.011173  0.057980  0.007103  0.027268  0.067035
     7 y       0.238354  0.141148  0.062991 -0.005718 -0.002991  0.126275
     7 z      -0.013684  0.073293  0.021178  0.013121  0.003713  0.041098
     8 x      -0.099250 -0.148162 -0.119983 -0.327404  0.166490  0.008468
     8 y       0.056857  0.052712 -0.026396  0.200752 -0.087703 -0.009283
     8 z      -0.005202  0.037087 -0.239531  0.410062 -0.164706  0.013381
     9 x      -0.002331 -0.069938 -0.076586  0.052307  0.726094  0.052782
     9 y       0.065763 -0.041775  0.039778  0.006044  0.009716  0.044250
     9 z      -0.141205  0.139838 -0.168678  0.012191  0.097090 -0.039258
    10 x       0.009014 -0.033485 -0.077512 -0.008315  0.009570  0.023028
    10 y       0.083582  0.043519 -0.052178 -0.021605 -0.002912  0.034141
    10 z      -0.098526 -0.207625  0.204942  0.113032  0.018328 -0.209970
    11 x      -0.012261 -0.049977 -0.056405  0.003092  0.017284  0.011596
    11 y       0.257064 -0.026908  0.026136 -0.054693  0.007328 -0.078877
    11 z      -0.098045 -0.024508  0.012867  0.063603  0.004114 -0.033857
    12 x       0.101076 -0.141723 -0.077265  0.191402  0.095645 -0.006834
    12 y       0.094910 -0.043773 -0.049862  0.191866  0.080720 -0.028219
    12 z      -0.014522  0.221403 -0.007131  0.431955  0.159816  0.016407




--------------------------------------------------------------------------------
  Vibrational properties (for cluster):  Temperature  =       0.000 K
--------------------------------------------------------------------------------
  Zero point energy            =        0.532152 eV
--------------------------------------------------------------------------------

  Phonon density of states : 

--------------------------------------------------------------------------------
 Frequency (cm-1) Density of States                                             
--------------------------------------------------------------------------------
    0.00000 |****************************************                      0.062
    8.63265 |                                                              0.000
   17.26530 |                                                              0.000
   25.89795 |                                                              0.000
   34.53060 |                                                              0.000
   43.16324 |                                                              0.000
   51.79589 |                                                              0.000
   60.42854 |                                                              0.000
   69.06119 |                                                              0.000
   77.69384 |                                                              0.000
   86.32649 |                                                              0.000
   94.95914 |                                                              0.000
  103.59179 |                                                              0.000
  112.22443 |                                                              0.000
  120.85708 |************************************************************  0.094
  129.48973 |****************************************                      0.062
  138.12238 |********************                                          0.031
  146.75503 |********************                                          0.031
  155.38768 |****************************************                      0.062
  164.02033 |****************************************                      0.062
  172.65298 |                                                              0.000
  181.28562 |********************                                          0.031
  189.91827 |********************                                          0.031
  198.55092 |********************                                          0.031
  207.18357 |********************                                          0.031
  215.81622 |                                                              0.000
  224.44887 |********************                                          0.031
  233.08152 |********************                                          0.031
  241.71417 |                                                              0.000
  250.34681 |                                                              0.000
  258.97946 |                                                              0.000
  267.61211 |********************                                          0.031
  276.24476 |                                                              0.000
  284.87741 |                                                              0.000
  293.51006 |                                                              0.000
  302.14271 |                                                              0.000
  310.77536 |                                                              0.000
  319.40800 |********************                                          0.031
  328.04065 |                                                              0.000
  336.67330 |                                                              0.000
  345.30595 |                                                              0.000
  353.93860 |****************************************                      0.062
  362.57125 |                                                              0.000
  371.20390 |                                                              0.000
  379.83655 |                                                              0.000
  388.46919 |                                                              0.000
  397.10184 |                                                              0.000
  405.73449 |                                                              0.000
  414.36714 |                                                              0.000
  422.99979 |                                                              0.000
  431.63244 |                                                              0.000
  440.26509 |********************                                          0.031
  448.89774 |********************                                          0.031
  457.53038 |                                                              0.000
  466.16303 |********************                                          0.031
  474.79568 |****************************************                      0.062
  483.42833 |********************                                          0.031
  492.06098 |                                                              0.000
  500.69363 |                                                              0.000
  509.32628 |********************                                          0.031
  517.95893 |                                                              0.000
  526.59157 |********************                                          0.031
  535.22422 |                                                              0.000
  543.85687 |********************                                          0.031
--------------------------------------------------------------------------------



  XYZ File written as 002/1/sp_mod_-40/sp_mod_-40_eig.xyz


  Time to end of properties =       0.0123 seconds


  Peak dynamic memory used =       0.64 MB 


  Timing analysis for GULP :

--------------------------------------------------------------------------------
  Task / Subroutine                                          Time (Seconds)
--------------------------------------------------------------------------------
  Calculation of phonons                                          0.0037
--------------------------------------------------------------------------------
  Total CPU time                                                  0.0124
--------------------------------------------------------------------------------


  Job Finished at 10:30.22 17th May        2022                               

