********************************************************************************
*                       GENERAL UTILITY LATTICE PROGRAM                        *
*                                 Julian Gale                                  *
*                       Curtin Institute for Computation                       *
*                           Department of Chemistry                            *
*                    Curtin University, Western Australia                      *
********************************************************************************
* Version = 5.1.1 * Last modified =  24th November 2018                        *
********************************************************************************
*  optimise     - perform optimisation run                                     *
*  conp         - constant pressure calculation                                *
*  shell        - only shells and radii to be optimised                        *
*  phonon       - calculate phonons for final geometry                         *
*  eigenvectors - output phonon eigenvectors                                   *
********************************************************************************

  Job Started  at 11:00.03 24th May        2022                               

  Number of CPUs =     1

  Host name      = login03                                 


  Total number of configurations input =      1

********************************************************************************
*  Input for Configuration =   1                                               *
********************************************************************************

  Formula = Al3F9                                                       

  Number of irreducible atoms/shells =      21


  Total number atoms/shells =      21

  Dimensionality = 0               :  Cluster


  Charge on cluster =  -0.000000


  Initial cluster dipoles : x =     -0.218666 e.Angs
                            y =     -0.205425 e.Angs
                            z =      0.039573 e.Angs

  Temperature of configuration =  0.000     K 

  Symmetry number =      1

  Cartesian coordinates of cluster :

--------------------------------------------------------------------------------
   No.  Atomic       x           y          z         Charge      Occupancy
        Label      (Angs)      (Angs)     (Angs)        (e)         (Frac)  
--------------------------------------------------------------------------------
      1 Al    c      1.2826      0.0489      2.4438     3.00000    1.000000    
      2 Al    c      1.2768      1.1892     -0.0831     3.00000    1.000000    
      3 Al    c     -0.3191      0.8358     -2.3222     3.00000    1.000000    
      4 F     c     -1.6706     -0.3699     -2.2187     0.59000    1.000000    
      5 F     c      2.0632     -0.3521      0.7559     0.59000    1.000000    
      6 F     c      0.0496      1.8207     -3.7977     0.59000    1.000000    
      7 F     c     -0.3590      1.9326     -0.7684     0.59000    1.000000    
      8 F     c      2.5879      2.4209     -0.3204     0.59000    1.000000    
      9 F     c      1.2628      0.0411     -1.6257     0.59000    1.000000    
     10 F     c      0.4413      1.5394      1.6133     0.59000    1.000000    
     11 F     c      2.5439      0.5953      3.6244     0.59000    1.000000    
     12 F     c      0.0206     -1.2006      2.8133     0.59000    1.000000    
     13 F     s     -1.6706 *   -0.3699 *   -2.2187 *  -1.59000    1.000000    
     14 F     s      2.0632 *   -0.3521 *    0.7559 *  -1.59000    1.000000    
     15 F     s      0.0496 *    1.8207 *   -3.7977 *  -1.59000    1.000000    
     16 F     s     -0.3590 *    1.9326 *   -0.7684 *  -1.59000    1.000000    
     17 F     s      2.5879 *    2.4209 *   -0.3204 *  -1.59000    1.000000    
     18 F     s      1.2628 *    0.0411 *   -1.6257 *  -1.59000    1.000000    
     19 F     s      0.4413 *    1.5394 *    1.6133 *  -1.59000    1.000000    
     20 F     s      2.5439 *    0.5953 *    3.6244 *  -1.59000    1.000000    
     21 F     s      0.0206 *   -1.2006 *    2.8133 *  -1.59000    1.000000    
--------------------------------------------------------------------------------


  Brillouin zone sampling points :

--------------------------------------------------------------------------------
  Point number          x          y          z            Weight
--------------------------------------------------------------------------------
        1           0.000000   0.000000   0.000000     1.00000000
--------------------------------------------------------------------------------


********************************************************************************
*  General input information                                                   *
********************************************************************************

  Species output for all configurations : 

--------------------------------------------------------------------------------
  Species    Type    Atomic    Atomic    Charge       Radii (Angs)     Library
                     Number     Mass       (e)     Cova   Ionic  VDW   Symbol
--------------------------------------------------------------------------------
    Al       Core       13      26.98   3.000000   1.350  0.000  2.050          
    F        Core        9      19.00   0.590000   0.710  0.000  1.300          
    F        Shell       9       0.00  -1.590000   0.710  0.000  1.300          
--------------------------------------------------------------------------------


  Accuracy factor for short range sums = 12.000

  Time limit = Infinity

  Maximum range for interatomic potentials =    100000.000000 Angstroms

  General interatomic potentials :

--------------------------------------------------------------------------------
Atom  Types   Potential      Parameter       Value         Units   Cutoffs(Ang)
  1     2                                                            Min /  Max 
--------------------------------------------------------------------------------
Al   c F    s Buckingham    Buckingham A     3760.0008    eV        0.000 10.000
                            Buckingham rho  0.22200000    Ang       
                            Buckingham C     0.0000000    eV*Ang^6  
--------------------------------------------------------------------------------
F    s F    s Buck 4 range  Buck4 A          1127.7000    eV        0.000 12.000
                            Buck4 rho       0.27530000    Ang       
                            Buck4 C          15.830000    eV*Ang^6  
                            Buck4 minimum    2.7900000    Ang       
--------------------------------------------------------------------------------
F    c F    s Spring (c-s)  Spring k 2       20.770000    eV*Ang^-2 0.000  0.800
                            Spring k 4       0.0000000    eV*Ang^-4 
--------------------------------------------------------------------------------

********************************************************************************
*  Output for configuration   1                                                *
********************************************************************************


  Components of energy : 

--------------------------------------------------------------------------------
  Interatomic potentials     =          10.51497297 eV    
  Monopole - monopole (real) =        -178.81669450 eV    
--------------------------------------------------------------------------------
  Total lattice energy       =        -168.30172154 eV    
--------------------------------------------------------------------------------
  Total lattice energy       =          -16238.5434 kJ/mol
--------------------------------------------------------------------------------


  Number of variables =       27

  Maximum number of calculations  =          2000
  Maximum Hessian update interval =            10
  Maximum step size               =   1.000000000
  Maximum parameter tolerance     =   0.000001000
  Maximum function  tolerance     =   0.000010000
  Maximum gradient  tolerance     =   0.000000010
  Maximum gradient  component     =   0.010000000

  Symmetry not applied to optimisation

  Newton-Raphson optimiser to be used

  BFGS hessian update to be used

  Lower half triangular hessian to be used

  Minimiser to switch to RFO
  When gradient norm is less than     0.010000

  Shell only optimisation

  Start of cluster optimisation :

  Cycle:      0 Energy:      -168.301722  Gnorm:      1.498126  CPU:    0.004
  ** Hessian calculated **
  Cycle:      1 Energy:      -185.761448  Gnorm:      0.510445  CPU:    0.005
  ** Hessian calculated **
  Cycle:      2 Energy:      -187.374960  Gnorm:      0.043620  CPU:    0.007
  Cycle:      3 Energy:      -187.384834  Gnorm:      0.007798  CPU:    0.008
  ** Hessian has required structure
  Cycle:      4 Energy:      -187.384852  Gnorm:      0.007783  CPU:    0.010
  ** Hessian has required structure
  Cycle:      5 Energy:      -187.384852  Gnorm:      0.007775  CPU:    0.011
  ** Hessian has required structure
  Cycle:      6 Energy:      -187.384854  Gnorm:      0.007750  CPU:    0.013
  ** Hessian has required structure
  Cycle:      7 Energy:      -187.384876  Gnorm:      0.007466  CPU:    0.014
  ** Hessian has required structure
  Cycle:      8 Energy:      -187.385100  Gnorm:      0.003744  CPU:    0.015
  ** Hessian has required structure
  Cycle:      9 Energy:      -187.385187  Gnorm:      0.000358  CPU:    0.017
  ** Hessian has required structure
  Cycle:     10 Energy:      -187.385188  Gnorm:      0.000238  CPU:    0.018
  ** Hessian has required structure
  Cycle:     11 Energy:      -187.385188  Gnorm:      0.000162  CPU:    0.019
  ** Hessian has required structure

  XYZ File written as 001/2/sp_mod_0/sp_mod_0_eig.xyz



  **** Optimisation achieved ****


  Final energy =    -187.38518821 eV
  Final Gnorm  =       0.00000001

  Components of energy : 

--------------------------------------------------------------------------------
  Interatomic potentials     =          39.00496094 eV    
  Monopole - monopole (real) =        -226.39014915 eV    
--------------------------------------------------------------------------------
  Total lattice energy       =        -187.38518821 eV    
--------------------------------------------------------------------------------
  Total lattice energy       =          -18079.8062 kJ/mol
--------------------------------------------------------------------------------

  Final cartesian coordinates of atoms :

--------------------------------------------------------------------------------
   No.  Atomic        x           y          z          Radius
        Label       (Angs)      (Angs)     (Angs)       (Angs) 
--------------------------------------------------------------------------------
     1  Al    c     1.282632    0.048945    2.443836    0.000000
     2  Al    c     1.276784    1.189243   -0.083083    0.000000
     3  Al    c    -0.319098    0.835786   -2.322249    0.000000
     4  F     c    -1.670556   -0.369898   -2.218742    0.000000
     5  F     c     2.063174   -0.352116    0.755931    0.000000
     6  F     c     0.049582    1.820661   -3.797749    0.000000
     7  F     c    -0.359050    1.932594   -0.768371    0.000000
     8  F     c     2.587877    2.420947   -0.320355    0.000000
     9  F     c     1.262785    0.041069   -1.625692    0.000000
    10  F     c     0.441337    1.539406    1.613253    0.000000
    11  F     c     2.543914    0.595335    3.624357    0.000000
    12  F     c     0.020557   -1.200649    2.813308    0.000000
    13  F     s    -1.463629   -0.186742   -2.231389    0.000000
    14  F     s     1.893639   -0.153995    0.853938    0.000000
    15  F     s    -0.006683    1.669341   -3.570327    0.000000
    16  F     s    -0.190713    1.733347   -0.866161    0.000000
    17  F     s     2.387659    2.232853   -0.284122    0.000000
    18  F     s     1.088344    0.241601   -1.542285    0.000000
    19  F     s     0.614581    1.337750    1.530063    0.000000
    20  F     s     2.350006    0.511631    3.442210    0.000000
    21  F     s     0.211770   -1.009773    2.753902    0.000000
--------------------------------------------------------------------------------


  Final Cartesian derivatives :

--------------------------------------------------------------------------------
   No.  Atomic          x             y             z           Radius
        Label       (eV/Angs)     (eV/Angs)    (eV/Angs)      (eV/Angs)
--------------------------------------------------------------------------------
      1 Al    c       0.000000      0.000000      0.000000      0.000000
      2 Al    c       0.000000      0.000000      0.000000      0.000000
      3 Al    c       0.000000      0.000000      0.000000      0.000000
      4 F     c       0.000000      0.000000      0.000000      0.000000
      5 F     c       0.000000      0.000000      0.000000      0.000000
      6 F     c       0.000000      0.000000      0.000000      0.000000
      7 F     c       0.000000      0.000000      0.000000      0.000000
      8 F     c       0.000000      0.000000      0.000000      0.000000
      9 F     c       0.000000      0.000000      0.000000      0.000000
     10 F     c       0.000000      0.000000      0.000000      0.000000
     11 F     c       0.000000      0.000000      0.000000      0.000000
     12 F     c       0.000000      0.000000      0.000000      0.000000
     13 F     s       0.000000      0.000000      0.000000      0.000000
     14 F     s       0.000000      0.000000     -0.000000      0.000000
     15 F     s       0.000000      0.000000      0.000000      0.000000
     16 F     s       0.000000      0.000000      0.000000      0.000000
     17 F     s      -0.000000     -0.000000      0.000000      0.000000
     18 F     s       0.000000      0.000000      0.000000      0.000000
     19 F     s       0.000000      0.000000     -0.000000      0.000000
     20 F     s       0.000000      0.000000     -0.000000      0.000000
     21 F     s       0.000000      0.000000     -0.000000      0.000000
--------------------------------------------------------------------------------
  Maximum abs         0.000000      0.000000      0.000000      0.000000
--------------------------------------------------------------------------------


  Born effective charge tensors : 

-------------------------------------------------------------------------------
  Atom             x           y             z
-------------------------------------------------------------------------------
    1 Al    x       0.7248     -0.4119     -0.1908
            y      -0.4046      1.0040     -0.0991
            z      -0.2068     -0.1128      1.1637
-------------------------------------------------------------------------------
    2 Al    x       0.8792     -0.3317      0.2208
            y      -0.3317      0.8760     -0.0245
            z       0.2208     -0.0245      1.6210
-------------------------------------------------------------------------------
    3 Al    x       1.0164     -0.3393      0.2006
            y      -0.3465      0.8695      0.3077
            z       0.2166      0.3214      1.0067
-------------------------------------------------------------------------------
    4 F     x      -0.2259      0.2904     -0.0750
            y       0.2778     -0.2690     -0.0394
            z      -0.0471     -0.0155     -0.5799
-------------------------------------------------------------------------------
    5 F     x      -0.2815      0.0289     -0.0439
            y       0.0139     -0.3013      0.0416
            z      -0.0245      0.0558     -0.3598
-------------------------------------------------------------------------------
    6 F     x      -0.5241      0.0593     -0.1128
            y       0.0775     -0.3521     -0.2540
            z      -0.1529     -0.2884     -0.1866
-------------------------------------------------------------------------------
    7 F     x      -0.3190      0.0106     -0.0501
            y       0.0259     -0.2741      0.0271
            z      -0.0683      0.0116     -0.3495
-------------------------------------------------------------------------------
    8 F     x      -0.2366      0.2792     -0.0906
            y       0.2792     -0.2610     -0.0307
            z      -0.0906     -0.0307     -0.6181
-------------------------------------------------------------------------------
    9 F     x      -0.2788     -0.0052     -0.0240
            y      -0.0025     -0.2771     -0.0131
            z      -0.0454     -0.0315     -0.3866
-------------------------------------------------------------------------------
   10 F     x      -0.2725      0.0042     -0.0087
            y       0.0013     -0.2701      0.0017
            z       0.0115      0.0213     -0.3999
-------------------------------------------------------------------------------
   11 F     x      -0.2378      0.1417      0.2471
            y       0.1235     -0.4842      0.1245
            z       0.2873      0.1589     -0.3408
-------------------------------------------------------------------------------
   12 F     x      -0.2442      0.2737     -0.0726
            y       0.2863     -0.2606     -0.0417
            z      -0.1004     -0.0657     -0.5701
-------------------------------------------------------------------------------




  Moment of inertia tensor (10^-46 x kgm^2): 

-------------------------------------------------------------------------------
                x           y           z           Principal axis system
-------------------------------------------------------------------------------
       x        242.22       -7.85      -55.89           79.765422
       y         -7.85      259.54       32.32          244.962743
       z        -55.89       32.32      103.88          280.915458
-------------------------------------------------------------------------------
  Centre of mass (Ang) =     0.763263     0.706817     0.009850
-------------------------------------------------------------------------------


  Vibrational Frequency Calculation : 

--------------------------------------------------------------------------------

  Frequencies (cm-1) and Eigenvectors : 

  Frequency      -0.0116   -0.0101   -0.0068    0.0000    0.0000    0.0000
  IR Intensity    0.0000    0.0000    0.0001    0.0000    0.0000    0.0000
     in X         0.0000    0.0000    0.0000    0.0000    0.0000    0.0000
     in Y         0.0000    0.0000    0.0000    0.0000    0.0000    0.0000
     in Z         0.0000    0.0000    0.0000    0.0000    0.0000    0.0000
  Raman Intsty    0.0000    0.0000    0.0000    0.0000    0.0000    0.0000

     1 x      -0.246853 -0.216426  0.040795  0.055228  0.307158 -0.098451
     1 y      -0.206473  0.231995 -0.115279 -0.262129 -0.015463 -0.195289
     1 z      -0.003133  0.108886 -0.039862 -0.187955  0.111820  0.243430
     2 x       0.042323 -0.007290 -0.098491  0.055228  0.307159 -0.098451
     2 y      -0.030485  0.009283  0.117453 -0.262129 -0.015464 -0.195290
     2 z       0.075614  0.007901  0.065483 -0.187955  0.111820  0.243430
     3 x       0.200451  0.224420  0.067187  0.055228  0.307158 -0.098452
     3 y       0.239895 -0.242172 -0.013492 -0.262129 -0.015463 -0.195290
     3 z      -0.079766 -0.117549 -0.031927 -0.187955  0.111820  0.243430
     4 x       0.088307  0.214220  0.267327  0.046346  0.257761 -0.082619
     4 y       0.276868 -0.234152 -0.259761 -0.219973 -0.012976 -0.163883
     4 z      -0.230205 -0.120820 -0.166444 -0.157728  0.093838  0.204282
     5 x      -0.115252 -0.031202  0.162986  0.046346  0.257761 -0.082619
     5 y      -0.121976  0.092235  0.173254 -0.219974 -0.012977 -0.163884
     5 z       0.027682  0.185277 -0.038066 -0.157728  0.093837  0.204282
     6 x       0.329174  0.281701 -0.068620  0.046346  0.257762 -0.082619
     6 y       0.265087 -0.301737  0.168906 -0.219974 -0.012977 -0.163884
     6 z       0.015847 -0.141068  0.062273 -0.157728  0.093837  0.204282
     7 x       0.127535  0.029087 -0.191569  0.046347  0.257762 -0.082618
     7 y       0.113128 -0.089542 -0.139167 -0.219974 -0.012976 -0.163883
     7 z      -0.005737 -0.182984  0.057072 -0.157728  0.093837  0.204282
     8 x       0.126197 -0.021739 -0.293675  0.046347  0.257762 -0.082618
     8 y      -0.090899  0.027678  0.350216 -0.219974 -0.012977 -0.163884
     8 z       0.225461  0.023560  0.195251 -0.157729  0.093837  0.204281
     9 x       0.072321  0.153662  0.174053  0.046346  0.257761 -0.082619
     9 y       0.065204 -0.106602  0.215937 -0.219974 -0.012977 -0.163884
     9 z      -0.004453  0.090323 -0.034739 -0.157728  0.093837  0.204282
    10 x      -0.060038 -0.155778 -0.202636  0.046347  0.257762 -0.082618
    10 y      -0.074052  0.109296 -0.181851 -0.219974 -0.012976 -0.163883
    10 z       0.026398 -0.088030  0.053744 -0.157728  0.093837  0.204282
    11 x      -0.255379 -0.294413 -0.103110  0.046347  0.257762 -0.082618
    11 y      -0.318242  0.317922  0.035887 -0.219974 -0.012977 -0.163883
    11 z       0.115994  0.154845  0.051904 -0.157729  0.093837  0.204282
    12 x      -0.308009 -0.176374  0.243944  0.046346  0.257761 -0.082619
    12 y      -0.118618  0.185965 -0.349945 -0.219974 -0.012976 -0.163883
    12 z      -0.162307  0.079804 -0.173474 -0.157728  0.093838  0.204282


  Frequency      25.4520   38.7241   72.3104   94.9904  155.6822  159.8622
  IR Intensity    0.0000    0.0020    0.0046    0.0020    0.0000    0.0055
     in X         0.0000    0.0010    0.0005    0.0008    0.0000    0.0029
     in Y         0.0000    0.0009    0.0001    0.0010    0.0000    0.0025
     in Z         0.0000    0.0000    0.0040    0.0002    0.0000    0.0001
  Raman Intsty    0.0000    0.0007    0.0000    0.0000    0.0000    0.0942

     1 x      -0.059330  0.098741  0.094574 -0.045892  0.030107  0.153584
     1 y       0.069197  0.036942  0.067220  0.053523 -0.035115  0.053060
     1 z       0.031363  0.105285  0.030600  0.024259 -0.015917  0.173473
     2 x      -0.000000 -0.159985 -0.001180  0.145640  0.000001 -0.091787
     2 y      -0.000000 -0.150297  0.000580 -0.169857  0.000001 -0.086229
     2 z       0.000000  0.028953 -0.003510 -0.076987 -0.000000  0.016611
     3 x       0.059331  0.020709 -0.064341 -0.045892 -0.030108  0.026060
     3 y      -0.069196  0.075275 -0.082072  0.053523  0.035114  0.115706
     3 z      -0.031363 -0.126903  0.059359  0.024259  0.015917 -0.205984
     4 x       0.269213 -0.077357 -0.149743  0.084456  0.209215  0.007819
     4 y      -0.313980  0.141821  0.011564 -0.098500 -0.244006  0.112951
     4 z      -0.142311 -0.459239 -0.308790 -0.044644 -0.110592 -0.234420
     5 x      -0.270215 -0.117599  0.232513  0.080851  0.335176  0.077946
     5 y      -0.132786 -0.114691  0.164978 -0.081270  0.179682  0.048094
     5 z      -0.041248  0.028868  0.069798  0.089858  0.094572  0.120308
     6 x      -0.208450  0.297854  0.223594 -0.344965 -0.168471 -0.354591
     6 y       0.243114  0.224071  0.090350  0.402328  0.196488 -0.113031
     6 z       0.110189  0.069089  0.223639  0.182353  0.089059 -0.421409
     7 x      -0.134414 -0.123165 -0.158932  0.093131  0.173214  0.027890
     7 y      -0.247342 -0.111494 -0.202764 -0.069734  0.297923  0.051334
     7 z       0.114475  0.014704  0.140639  0.087635 -0.186577 -0.139462
     8 x      -0.000000 -0.133077 -0.131442  0.262673  0.000001 -0.078113
     8 y      -0.000000 -0.125019  0.064570 -0.306351  0.000001 -0.073383
     8 z       0.000000  0.024083 -0.391118 -0.138853 -0.000000  0.014136
     9 x       0.205290 -0.122482 -0.161360  0.003954 -0.230512 -0.003739
     9 y       0.164680 -0.112294 -0.199931 -0.043495 -0.231098  0.088217
     9 z      -0.151941  0.014342  0.141924 -0.138955  0.216867 -0.122741
    10 x       0.199338 -0.118284  0.230084  0.016234 -0.277879  0.109569
    10 y       0.215448 -0.113894  0.167811 -0.031959 -0.246508  0.011205
    10 z       0.078714  0.029230  0.071083 -0.141178 -0.124862  0.103589
    11 x       0.208451  0.219924 -0.056256 -0.344966  0.168473 -0.046925
    11 y      -0.243112  0.262354 -0.172554  0.402328 -0.196486 -0.264172
    11 z      -0.110190 -0.162793  0.274285  0.182353 -0.089060  0.494072
    12 x      -0.269213  0.222489 -0.063077  0.084456 -0.209216  0.155449
    12 y       0.313980 -0.005477  0.092982 -0.098499  0.244004  0.040431
    12 z       0.142311  0.432974 -0.324474 -0.044644  0.110593  0.204873


  Frequency     169.5594  174.5120  204.7036  206.8379  209.3823  209.5172
  IR Intensity    0.0236    0.0002    0.0254    0.0000    0.0006    0.0817
     in X         0.0089    0.0000    0.0096    0.0000    0.0003    0.0081
     in Y         0.0122    0.0000    0.0131    0.0000    0.0003    0.0020
     in Z         0.0025    0.0002    0.0027    0.0000    0.0000    0.0717
  Raman Intsty    0.0000    0.0000    0.0000    0.0000    0.0276    0.0000

     1 x       0.010455 -0.132816 -0.037098 -0.236849 -0.178153 -0.101117
     1 y      -0.012193 -0.126311  0.043266  0.276234 -0.093696 -0.151880
     1 z      -0.005526  0.027429  0.019611  0.125202 -0.130293  0.143806
     2 x       0.177766  0.001952 -0.136413 -0.000001  0.277190  0.078561
     2 y      -0.207326 -0.000959  0.159096 -0.000001  0.260405 -0.038594
     2 z      -0.093969  0.005808  0.072111  0.000000 -0.050164  0.233762
     3 x       0.010455  0.134966 -0.037097  0.236850 -0.075169  0.180639
     3 y      -0.012193  0.125256  0.043267 -0.276233 -0.144287  0.112815
     3 z      -0.005526 -0.021033  0.019611 -0.125202  0.176137  0.092815
     4 x      -0.239134  0.212983  0.004126 -0.190940 -0.222371  0.072393
     4 y       0.278898  0.036228 -0.004811  0.222692 -0.005164  0.186341
     4 z       0.126408  0.322980 -0.002184  0.100936 -0.409271 -0.274178
     5 x       0.349746 -0.068231  0.151838 -0.093098  0.004449  0.060595
     5 y       0.008641 -0.020655  0.304539  0.170850  0.085030 -0.045666
     5 z       0.105051  0.019280  0.072275  0.193845 -0.074939  0.170621
     6 x      -0.007430  0.117640  0.111145 -0.199271 -0.133500 -0.340221
     6 y       0.008666  0.109972 -0.129631  0.232409 -0.170976 -0.187033
     6 z       0.003928 -0.020091 -0.058755  0.105337  0.124684 -0.230954
     7 x      -0.004089  0.026923 -0.291804  0.126853  0.097772  0.074361
     7 y      -0.323768  0.068737 -0.112240 -0.139138  0.011001 -0.032733
     7 z       0.169086  0.002060  0.152562 -0.199954  0.056440  0.168130
     8 x      -0.174188 -0.234425  0.386450 -0.000001  0.257734 -0.071672
     8 y       0.203153  0.115160 -0.450711 -0.000001  0.242128  0.035210
     8 z       0.092078 -0.697554 -0.204282  0.000000 -0.046643 -0.213257
     9 x       0.219372  0.068090  0.108791  0.172296  0.056021  0.056432
     9 y       0.072686  0.020726  0.325686 -0.209757  0.059696 -0.011828
     9 z      -0.282887 -0.019702 -0.055817  0.041818  0.078512  0.177608
    10 x      -0.134462 -0.027066 -0.334852 -0.206053  0.046201  0.042671
    10 y      -0.259723 -0.068668 -0.091093  0.178044  0.036336 -0.024755
    10 z      -0.218852 -0.002481  0.024471 -0.035709 -0.097011  0.180098
    11 x      -0.007430 -0.116879  0.111149  0.199273 -0.197190  0.154875
    11 y       0.008666 -0.110346 -0.129627 -0.232407 -0.139690  0.278084
    11 z       0.003928  0.022350 -0.058756 -0.105337 -0.064839 -0.320553
    12 x      -0.239134  0.016079  0.004125  0.190941  0.062443 -0.237812
    12 y       0.278898 -0.148753 -0.004813 -0.222691 -0.145080 -0.105080
    12 z       0.126408  0.358614 -0.002183 -0.100936  0.438213 -0.218041


  Frequency     232.7806  262.6578  277.5891  352.6863  391.0511  401.0162
  IR Intensity    0.0514    0.0311    0.0345    0.0000    0.0000    0.0013
     in X         0.0195    0.0031    0.0180    0.0000    0.0000    0.0001
     in Y         0.0265    0.0007    0.0159    0.0000    0.0000    0.0000
     in Z         0.0054    0.0273    0.0006    0.0000    0.0000    0.0011
  Raman Intsty    0.0000    0.0000    0.0482    0.5232    0.0000    0.0000

     1 x      -0.253789 -0.174082  0.129828 -0.018029  0.032918 -0.000762
     1 y       0.295990 -0.082959  0.157575  0.113855 -0.038391 -0.072932
     1 z       0.134156 -0.146285 -0.102059 -0.285306 -0.017400  0.159471
     2 x       0.208655 -0.022813  0.134698 -0.210483  0.000000 -0.080464
     2 y      -0.243351  0.011206  0.126542 -0.197737  0.000000  0.039528
     2 z      -0.110298 -0.067881 -0.024377  0.038092 -0.000000 -0.239429
     3 x      -0.253788  0.061435  0.179606  0.164808 -0.032918  0.101715
     3 y       0.295990  0.138297  0.133122  0.024037  0.038391  0.023339
     3 z       0.134156 -0.188907  0.046060  0.258742  0.017400  0.140926
     4 x       0.154028  0.164606  0.183991  0.098335  0.037257  0.093456
     4 y      -0.179641  0.052262  0.145937  0.130581 -0.043452  0.096118
     4 z      -0.081421  0.196086  0.026081 -0.102079 -0.019694 -0.035272
     5 x      -0.020231  0.297285 -0.285407  0.229484 -0.146186 -0.244554
     5 y      -0.043586  0.216011 -0.172712 -0.093390  0.390585  0.365777
     5 z       0.267403  0.012916 -0.215136 -0.200071 -0.267020  0.067292
     6 x       0.144601 -0.010657 -0.128249 -0.097517  0.033846 -0.051132
     6 y      -0.168646  0.099495 -0.042627 -0.150351 -0.039474 -0.085129
     6 z      -0.076438 -0.239678 -0.148565  0.147244 -0.017892  0.091094
     7 x       0.094184 -0.222608 -0.141392 -0.043659  0.427154 -0.335293
     7 y       0.063901 -0.272401 -0.228243  0.267962 -0.126630  0.280532
     7 z       0.246697  0.107002  0.292375  0.166442  0.216172  0.083714
     8 x      -0.073228  0.080414  0.141654 -0.268663  0.000000  0.024117
     8 y       0.085405 -0.039503  0.133077 -0.252395  0.000000 -0.011847
     8 z       0.038709  0.239279 -0.025636  0.048621 -0.000000  0.071763
     9 x      -0.178096 -0.251799 -0.118853  0.292872 -0.078193  0.200176
     9 y       0.033965 -0.238356 -0.254530 -0.124530 -0.280359 -0.343977
     9 z      -0.202340  0.122433  0.280461 -0.011454 -0.400637 -0.199341
    10 x      -0.063682  0.268094 -0.307946 -0.107048 -0.202776  0.290915
    10 y       0.141451  0.250056 -0.146425  0.299101  0.016404 -0.258732
    10 z      -0.223046  0.028346 -0.203222 -0.022176  0.451485 -0.215763
    11 x       0.144601 -0.142425 -0.019412 -0.179629 -0.033846  0.102986
    11 y      -0.168646 -0.024295 -0.096093 -0.110014  0.039475  0.059656
    11 z      -0.076438 -0.215831  0.175288 -0.097088  0.017892  0.063203
    12 x       0.154029 -0.021491  0.146368  0.151737 -0.037257 -0.105088
    12 y      -0.179641 -0.122566  0.164419  0.104348  0.043452 -0.090404
    12 z      -0.081421  0.229764 -0.085867  0.056823  0.019694  0.000659


  Frequency     469.9254  511.2749  518.6027  541.8450  546.7743  604.8303
  IR Intensity    0.0036    0.0385    0.0027    0.0000    0.0338    0.1291
     in X         0.0019    0.0038    0.0014    0.0000    0.0128    0.0489
     in Y         0.0017    0.0009    0.0013    0.0000    0.0174    0.0665
     in Z         0.0001    0.0338    0.0000    0.0000    0.0036    0.0137
  Raman Intsty    2.3063    0.0000    3.5833    0.0000    0.0000    0.0000

     1 x       0.000703  0.001087 -0.000720  0.288006 -0.247873  0.127197
     1 y       0.003447 -0.067484  0.061293 -0.335897  0.289090 -0.148348
     1 z      -0.006275  0.150949 -0.136594 -0.152243  0.131028 -0.067238
     2 x       0.111844  0.028750 -0.001840  0.000000  0.150794  0.435690
     2 y       0.105072 -0.014123 -0.001729  0.000000 -0.175869 -0.508138
     2 z      -0.020241  0.085549  0.000333 -0.000000 -0.079711 -0.230310
     3 x       0.004598  0.094679  0.085909 -0.288006 -0.247872  0.127197
     3 y       0.001533  0.020440  0.018737  0.335897  0.289090 -0.148348
     3 z       0.005315  0.134011  0.121177  0.152243  0.131028 -0.067238
     4 x       0.004280  0.246598  0.263656  0.010321  0.005213 -0.019058
     4 y      -0.000082  0.218612  0.235785 -0.012037 -0.006079  0.022226
     4 z       0.008276 -0.015826 -0.021445 -0.005456 -0.002755  0.010074
     5 x       0.190390  0.112446 -0.129310 -0.181272  0.083671 -0.178127
     5 y      -0.380786 -0.011034  0.064154  0.108906  0.035215  0.265308
     5 z       0.172520 -0.329139  0.299970  0.309060 -0.381259 -0.011331
     6 x       0.005356 -0.068614 -0.076591  0.010496  0.006296 -0.017930
     6 y       0.004602 -0.185541 -0.197725 -0.012241 -0.007343  0.020912
     6 z      -0.000022  0.279562  0.291354 -0.005548 -0.003328  0.009478
     7 x      -0.397730 -0.056347  0.000530  0.040416 -0.110294 -0.254529
     7 y       0.186002 -0.169606 -0.185137 -0.241233 -0.147005  0.193532
     7 z      -0.134997 -0.298592 -0.276664 -0.283569 -0.346156  0.002496
     8 x       0.262149  0.005459 -0.023425  0.000000  0.018086 -0.018619
     8 y       0.246275 -0.002682 -0.022006  0.000000 -0.021093  0.021715
     8 z      -0.047442  0.016243  0.004239 -0.000000 -0.009560  0.009842
     9 x       0.013915 -0.283120 -0.274280  0.316949  0.295271 -0.110339
     9 y      -0.294094  0.094877  0.135369 -0.175557 -0.068732  0.232007
     9 z      -0.352598 -0.178717 -0.131397  0.094661  0.248375  0.190377
    10 x      -0.221255 -0.114327  0.145499 -0.176094  0.101306 -0.186741
    10 y       0.099309  0.253448 -0.256352  0.307883 -0.250952  0.160232
    10 z       0.390121 -0.209264  0.154703 -0.120152  0.283477  0.204204
    11 x       0.004756  0.237877 -0.252411 -0.010496  0.006296 -0.017931
    11 y       0.004897  0.102392 -0.111355  0.012241 -0.007342  0.020912
    11 z      -0.001808  0.224095 -0.231813  0.005548 -0.003328  0.009478
    12 x      -0.001455 -0.228349  0.247012 -0.010321  0.005212 -0.019057
    12 y       0.002735 -0.227576  0.243961  0.012038 -0.006079  0.022227
    12 z      -0.008787  0.070126 -0.070972  0.005456 -0.002755  0.010074


  Frequency     646.3850  728.9016  777.0878  796.9894  810.5861  812.9010
  IR Intensity    0.1498    0.0187    0.0002    0.0004    0.0014    0.0036
     in X         0.0148    0.0097    0.0001    0.0000    0.0001    0.0019
     in Y         0.0036    0.0086    0.0001    0.0000    0.0000    0.0017
     in Z         0.1314    0.0003    0.0000    0.0003    0.0012    0.0001
  Raman Intsty    0.0000    0.2074    0.4516    0.0000    0.0000    0.0268

     1 x      -0.008155  0.006739 -0.074180  0.057372  0.410064  0.408489
     1 y      -0.101938  0.188338 -0.187714  0.239428  0.259713  0.260334
     1 z       0.209481 -0.402786  0.273827 -0.419722  0.202729  0.198381
     2 x       0.201541  0.264915  0.451007  0.180674 -0.019710  0.082431
     2 y      -0.099006  0.248874  0.423698 -0.088755  0.009683  0.077440
     2 z       0.599705 -0.047942 -0.081620  0.537611 -0.058650 -0.014918
     3 x       0.139947  0.261172 -0.239171 -0.316730 -0.234595  0.235956
     3 y       0.037196  0.063350 -0.106663 -0.112020 -0.345911  0.345090
     3 z       0.182678  0.354301 -0.217119 -0.352020  0.319395 -0.315008
     4 x      -0.198849 -0.181858  0.144856  0.164479  0.222076 -0.220459
     4 y      -0.176486 -0.155886  0.125512  0.140625  0.202776 -0.201748
     4 z       0.013212 -0.000095 -0.002890  0.000889 -0.027278  0.028069
     5 x      -0.054738 -0.044998  0.039432 -0.087237 -0.002259 -0.005616
     5 y       0.145107 -0.016734 -0.064518  0.087987 -0.018818 -0.021084
     5 z      -0.178997  0.138045 -0.049309  0.056328 -0.019323 -0.015561
     6 x       0.048627  0.034499 -0.003593 -0.011457  0.077226 -0.076673
     6 y       0.130258  0.115103 -0.027618 -0.057342  0.197392 -0.194498
     6 z      -0.195401 -0.188691  0.054137  0.104841 -0.289416  0.284079
     7 x      -0.173754 -0.044493 -0.052230 -0.071812  0.014909 -0.017991
     7 y       0.033298 -0.067337  0.052495  0.102478 -0.002690 -0.001093
     7 z      -0.157459 -0.121849  0.051625  0.053537 -0.022430  0.019834
     8 x      -0.003586 -0.297749 -0.372296 -0.005493  0.000744 -0.060989
     8 y       0.001762 -0.279720 -0.349753  0.002699 -0.000366 -0.057296
     8 z      -0.010670  0.053885  0.067376 -0.016346  0.002215  0.011037
     9 x      -0.075745 -0.119088  0.054408  0.094596 -0.007748  0.002618
     9 y      -0.081008  0.019662 -0.071875 -0.091603  0.023734 -0.025129
     9 z      -0.209268 -0.082417 -0.004745 -0.034429 -0.010453  0.008940
    10 x       0.043271  0.029598 -0.067206  0.079172 -0.024916 -0.026225
    10 y       0.030801 -0.103733  0.059852 -0.106093  0.007606  0.002951
    10 z      -0.230806  0.098613  0.007062 -0.031637 -0.007347 -0.004667
    11 x      -0.166858  0.150098 -0.037482  0.076571 -0.251745 -0.247874
    11 y      -0.072178  0.058316 -0.010970  0.025356 -0.111660 -0.110397
    11 z      -0.156404  0.155284 -0.046703  0.088910 -0.229881 -0.225345
    12 x       0.184419 -0.160945  0.130077 -0.145056 -0.213895 -0.212964
    12 y       0.183575 -0.166159  0.132772 -0.150167 -0.206795 -0.205430
    12 z      -0.056149  0.062133 -0.046866  0.056906  0.051621  0.050369




--------------------------------------------------------------------------------
  Vibrational properties (for cluster):  Temperature  =       0.000 K
--------------------------------------------------------------------------------
  Zero point energy            =        0.707051 eV
--------------------------------------------------------------------------------

  Phonon density of states : 

--------------------------------------------------------------------------------
 Frequency (cm-1) Density of States                                             
--------------------------------------------------------------------------------
    0.00000 |*********************************************                 0.091
   12.70158 |                                                              0.000
   25.40316 |***************                                               0.030
   38.10474 |***************                                               0.030
   50.80631 |                                                              0.000
   63.50789 |***************                                               0.030
   76.20947 |                                                              0.000
   88.91105 |***************                                               0.030
  101.61263 |                                                              0.000
  114.31421 |                                                              0.000
  127.01579 |                                                              0.000
  139.71736 |                                                              0.000
  152.41894 |******************************                                0.061
  165.12052 |******************************                                0.061
  177.82210 |                                                              0.000
  190.52368 |                                                              0.000
  203.22526 |************************************************************  0.121
  215.92683 |                                                              0.000
  228.62841 |***************                                               0.030
  241.32999 |                                                              0.000
  254.03157 |***************                                               0.030
  266.73315 |***************                                               0.030
  279.43473 |                                                              0.000
  292.13631 |                                                              0.000
  304.83788 |                                                              0.000
  317.53946 |                                                              0.000
  330.24104 |                                                              0.000
  342.94262 |***************                                               0.030
  355.64420 |                                                              0.000
  368.34578 |                                                              0.000
  381.04736 |***************                                               0.030
  393.74893 |***************                                               0.030
  406.45051 |                                                              0.000
  419.15209 |                                                              0.000
  431.85367 |                                                              0.000
  444.55525 |                                                              0.000
  457.25683 |***************                                               0.030
  469.95841 |                                                              0.000
  482.65998 |                                                              0.000
  495.36156 |                                                              0.000
  508.06314 |******************************                                0.061
  520.76472 |                                                              0.000
  533.46630 |***************                                               0.030
  546.16788 |***************                                               0.030
  558.86945 |                                                              0.000
  571.57103 |                                                              0.000
  584.27261 |                                                              0.000
  596.97419 |***************                                               0.030
  609.67577 |                                                              0.000
  622.37735 |                                                              0.000
  635.07893 |***************                                               0.030
  647.78050 |                                                              0.000
  660.48208 |                                                              0.000
  673.18366 |                                                              0.000
  685.88524 |                                                              0.000
  698.58682 |                                                              0.000
  711.28840 |                                                              0.000
  723.98998 |***************                                               0.030
  736.69155 |                                                              0.000
  749.39313 |                                                              0.000
  762.09471 |                                                              0.000
  774.79629 |***************                                               0.030
  787.49787 |***************                                               0.030
  800.19945 |******************************                                0.061
--------------------------------------------------------------------------------



  Time to end of optimisation =       0.0296 seconds


  Peak dynamic memory used =       0.65 MB 


  Timing analysis for GULP :

--------------------------------------------------------------------------------
  Task / Subroutine                                          Time (Seconds)
--------------------------------------------------------------------------------
  Calculation of real space energy and derivatives                0.0018
  Calculation of phonons                                          0.0017
  Calculation and manipulation of Hessian matrix                  0.0012
--------------------------------------------------------------------------------
  Total CPU time                                                  0.0297
--------------------------------------------------------------------------------


  Job Finished at 11:00.03 24th May        2022                               

