********************************************************************************
*                       GENERAL UTILITY LATTICE PROGRAM                        *
*                                 Julian Gale                                  *
*                       Curtin Institute for Computation                       *
*                           Department of Chemistry                            *
*                    Curtin University, Western Australia                      *
********************************************************************************
* Version = 5.1.1 * Last modified =  24th November 2018                        *
********************************************************************************
*  optimise     - perform optimisation run                                     *
*  conp         - constant pressure calculation                                *
*  shell        - only shells and radii to be optimised                        *
*  phonon       - calculate phonons for final geometry                         *
*  eigenvectors - output phonon eigenvectors                                   *
********************************************************************************

  Job Started  at 14:38.53 25th May        2022                               

  Number of CPUs =     1

  Host name      = login03                                 


  Total number of configurations input =      1

********************************************************************************
*  Input for Configuration =   1                                               *
********************************************************************************

  Formula = Al3F9                                                       

  Number of irreducible atoms/shells =      21


  Total number atoms/shells =      21

  Dimensionality = 0               :  Cluster


  Charge on cluster =  -0.000000


  Initial cluster dipoles : x =     -0.048942 e.Angs
                            y =     -0.007026 e.Angs
                            z =      0.084203 e.Angs

  Temperature of configuration =  0.000     K 

  Symmetry number =      1

  Cartesian coordinates of cluster :

--------------------------------------------------------------------------------
   No.  Atomic       x           y          z         Charge      Occupancy
        Label      (Angs)      (Angs)     (Angs)        (e)         (Frac)  
--------------------------------------------------------------------------------
      1 Al    c      0.3085     -0.5998      1.7344     3.00000    1.000000    
      2 Al    c      2.3722     -1.8072     -0.5525     3.00000    1.000000    
      3 Al    c     -0.8820     -1.8115     -0.9542     3.00000    1.000000    
      4 F     c      3.5467     -0.5735     -1.1761     0.59000    1.000000    
      5 F     c     -1.7870     -0.4858     -1.8059     0.59000    1.000000    
      6 F     c      2.8341     -3.5617     -0.5642     0.59000    1.000000    
      7 F     c     -1.1537     -3.6117     -0.9721     0.59000    1.000000    
      8 F     c      1.8434     -1.4236      1.1613     0.59000    1.000000    
      9 F     c      0.8375     -1.5084     -1.4885     0.59000    1.000000    
     10 F     c      0.0100     -1.1736      3.4289     0.59000    1.000000    
     11 F     c      0.3404      1.1343      1.1890     0.59000    1.000000    
     12 F     c     -1.0265     -1.4446      0.8267     0.59000    1.000000    
     13 F     s      3.5467 *   -0.5735 *   -1.1761 *  -1.59000    1.000000    
     14 F     s     -1.7870 *   -0.4858 *   -1.8059 *  -1.59000    1.000000    
     15 F     s      2.8341 *   -3.5617 *   -0.5642 *  -1.59000    1.000000    
     16 F     s     -1.1537 *   -3.6117 *   -0.9721 *  -1.59000    1.000000    
     17 F     s      1.8434 *   -1.4236 *    1.1613 *  -1.59000    1.000000    
     18 F     s      0.8375 *   -1.5084 *   -1.4885 *  -1.59000    1.000000    
     19 F     s      0.0100 *   -1.1736 *    3.4289 *  -1.59000    1.000000    
     20 F     s      0.3404 *    1.1343 *    1.1890 *  -1.59000    1.000000    
     21 F     s     -1.0265 *   -1.4446 *    0.8267 *  -1.59000    1.000000    
--------------------------------------------------------------------------------


  Brillouin zone sampling points :

--------------------------------------------------------------------------------
  Point number          x          y          z            Weight
--------------------------------------------------------------------------------
        1           0.000000   0.000000   0.000000     1.00000000
--------------------------------------------------------------------------------


********************************************************************************
*  General input information                                                   *
********************************************************************************

  Species output for all configurations : 

--------------------------------------------------------------------------------
  Species    Type    Atomic    Atomic    Charge       Radii (Angs)     Library
                     Number     Mass       (e)     Cova   Ionic  VDW   Symbol
--------------------------------------------------------------------------------
    Al       Core       13      26.98   3.000000   1.350  0.000  2.050          
    F        Core        9      19.00   0.590000   0.710  0.000  1.300          
    F        Shell       9       0.00  -1.590000   0.710  0.000  1.300          
--------------------------------------------------------------------------------


  Accuracy factor for short range sums = 12.000

  Time limit = Infinity

  Maximum range for interatomic potentials =    100000.000000 Angstroms

  General interatomic potentials :

--------------------------------------------------------------------------------
Atom  Types   Potential      Parameter       Value         Units   Cutoffs(Ang)
  1     2                                                            Min /  Max 
--------------------------------------------------------------------------------
Al   c F    s Buckingham    Buckingham A     3760.0008    eV        0.000 10.000
                            Buckingham rho  0.22200000    Ang       
                            Buckingham C     0.0000000    eV*Ang^6  
--------------------------------------------------------------------------------
F    s F    s Buck 4 range  Buck4 A          1127.7000    eV        0.000 12.000
                            Buck4 rho       0.27530000    Ang       
                            Buck4 C          15.830000    eV*Ang^6  
                            Buck4 minimum    2.7900000    Ang       
--------------------------------------------------------------------------------
F    c F    s Spring (c-s)  Spring k 2       20.770000    eV*Ang^-2 0.000  0.800
                            Spring k 4       0.0000000    eV*Ang^-4 
--------------------------------------------------------------------------------

********************************************************************************
*  Output for configuration   1                                                *
********************************************************************************


  Components of energy : 

--------------------------------------------------------------------------------
  Interatomic potentials     =          11.88388851 eV    
  Monopole - monopole (real) =        -182.52207921 eV    
--------------------------------------------------------------------------------
  Total lattice energy       =        -170.63819069 eV    
--------------------------------------------------------------------------------
  Total lattice energy       =          -16463.9770 kJ/mol
--------------------------------------------------------------------------------


  Number of variables =       27

  Maximum number of calculations  =          2000
  Maximum Hessian update interval =            10
  Maximum step size               =   1.000000000
  Maximum parameter tolerance     =   0.000001000
  Maximum function  tolerance     =   0.000010000
  Maximum gradient  tolerance     =   0.000000010
  Maximum gradient  component     =   0.010000000

  Symmetry not applied to optimisation

  Newton-Raphson optimiser to be used

  BFGS hessian update to be used

  Lower half triangular hessian to be used

  Minimiser to switch to RFO
  When gradient norm is less than     0.010000

  Shell only optimisation

  Start of cluster optimisation :

  Cycle:      0 Energy:      -170.638191  Gnorm:      1.352489  CPU:    0.004
  ** Hessian calculated **
  Cycle:      1 Energy:      -186.026052  Gnorm:      0.416672  CPU:    0.005
  ** Hessian calculated **
  Cycle:      2 Energy:      -187.160604  Gnorm:      0.009471  CPU:    0.007
  ** Hessian has required structure
  Cycle:      3 Energy:      -187.161330  Gnorm:      0.003125  CPU:    0.010
  ** Hessian has required structure
  Cycle:      4 Energy:      -187.161389  Gnorm:      0.002177  CPU:    0.011
  ** Hessian has required structure
  Cycle:      5 Energy:      -187.161400  Gnorm:      0.001805  CPU:    0.013
  ** Hessian has required structure
  Cycle:      6 Energy:      -187.161401  Gnorm:      0.001760  CPU:    0.014
  ** Hessian has required structure
  Cycle:      7 Energy:      -187.161401  Gnorm:      0.001757  CPU:    0.016
  ** Hessian has required structure
  Cycle:      8 Energy:      -187.161401  Gnorm:      0.001758  CPU:    0.017
  ** Hessian has required structure
  Cycle:      9 Energy:      -187.161401  Gnorm:      0.001743  CPU:    0.019
  ** Hessian has required structure
  Cycle:     10 Energy:      -187.161401  Gnorm:      0.001728  CPU:    0.020
  ** Hessian has required structure
  Cycle:     11 Energy:      -187.161402  Gnorm:      0.001675  CPU:    0.022
  ** Hessian has required structure
  Cycle:     12 Energy:      -187.161420  Gnorm:      0.000000  CPU:    0.024
  ** Hessian has required structure
  Cycle:     13 Energy:      -187.161420  Gnorm:      0.000000  CPU:    0.025
  ** Hessian has required structure
  Cycle:     14 Energy:      -187.161420  Gnorm:      0.000000  CPU:    0.027
  ** Hessian has required structure
  Cycle:     15 Energy:      -187.161420  Gnorm:      0.000000  CPU:    0.028
  ** Hessian has required structure
  Cycle:     16 Energy:      -187.161420  Gnorm:      0.000000  CPU:    0.030
  ** Hessian has required structure
  Cycle:     17 Energy:      -187.161420  Gnorm:      0.000000  CPU:    0.032
  ** Hessian has required structure
  Cycle:     18 Energy:      -187.161420  Gnorm:      0.000000  CPU:    0.033
  ** Hessian has required structure
  Cycle:     19 Energy:      -187.161420  Gnorm:      0.000000  CPU:    0.035
  ** Hessian calculated **

  XYZ File written as 002/2/sp_mod_30/sp_mod_30_eig.xyz



  **** Optimisation achieved ****


  Final energy =    -187.16141977 eV
  Final Gnorm  =       0.00000036

  Components of energy : 

--------------------------------------------------------------------------------
  Interatomic potentials     =          37.86990581 eV    
  Monopole - monopole (real) =        -225.03132558 eV    
--------------------------------------------------------------------------------
  Total lattice energy       =        -187.16141977 eV    
--------------------------------------------------------------------------------
  Total lattice energy       =          -18058.2160 kJ/mol
--------------------------------------------------------------------------------

  Final cartesian coordinates of atoms :

--------------------------------------------------------------------------------
   No.  Atomic        x           y          z          Radius
        Label       (Angs)      (Angs)     (Angs)       (Angs) 
--------------------------------------------------------------------------------
     1  Al    c     0.308458   -0.599844    1.734416    0.000000
     2  Al    c     2.372189   -1.807182   -0.552467    0.000000
     3  Al    c    -0.881989   -1.811541   -0.954196    0.000000
     4  F     c     3.546712   -0.573534   -1.176088    0.000000
     5  F     c    -1.787048   -0.485815   -1.805945    0.000000
     6  F     c     2.834116   -3.561701   -0.564231    0.000000
     7  F     c    -1.153731   -3.611698   -0.972112    0.000000
     8  F     c     1.843436   -1.423563    1.161324    0.000000
     9  F     c     0.837463   -1.508420   -1.488450    0.000000
    10  F     c     0.010046   -1.173631    3.428865    0.000000
    11  F     c     0.340398    1.134310    1.188993    0.000000
    12  F     c    -1.026476   -1.444622    0.826700    0.000000
    13  F     s     3.356929   -0.752723   -1.073639    0.000000
    14  F     s    -1.649882   -0.698264   -1.681127    0.000000
    15  F     s     2.750032   -3.295120   -0.553048    0.000000
    16  F     s    -1.115865   -3.332889   -0.976192    0.000000
    17  F     s     1.708018   -1.363813    1.008333    0.000000
    18  F     s     0.813832   -1.590677   -1.279065    0.000000
    19  F     s     0.066440   -1.086491    3.167596    0.000000
    20  F     s     0.343365    0.866438    1.267453    0.000000
    21  F     s    -0.815689   -1.380060    0.704550    0.000000
--------------------------------------------------------------------------------


  Final Cartesian derivatives :

--------------------------------------------------------------------------------
   No.  Atomic          x             y             z           Radius
        Label       (eV/Angs)     (eV/Angs)    (eV/Angs)      (eV/Angs)
--------------------------------------------------------------------------------
      1 Al    c       0.000000      0.000000      0.000000      0.000000
      2 Al    c       0.000000      0.000000      0.000000      0.000000
      3 Al    c       0.000000      0.000000      0.000000      0.000000
      4 F     c       0.000000      0.000000      0.000000      0.000000
      5 F     c       0.000000      0.000000      0.000000      0.000000
      6 F     c       0.000000      0.000000      0.000000      0.000000
      7 F     c       0.000000      0.000000      0.000000      0.000000
      8 F     c       0.000000      0.000000      0.000000      0.000000
      9 F     c       0.000000      0.000000      0.000000      0.000000
     10 F     c       0.000000      0.000000      0.000000      0.000000
     11 F     c       0.000000      0.000000      0.000000      0.000000
     12 F     c       0.000000      0.000000      0.000000      0.000000
     13 F     s      -0.000002     -0.000003      0.000002      0.000000
     14 F     s       0.000002     -0.000003      0.000002      0.000000
     15 F     s      -0.000001      0.000004      0.000001      0.000000
     16 F     s       0.000001      0.000004      0.000000      0.000000
     17 F     s      -0.000002     -0.000001      0.000000      0.000000
     18 F     s      -0.000002      0.000002      0.000000      0.000000
     19 F     s       0.000001      0.000001     -0.000000      0.000000
     20 F     s       0.000000     -0.000002     -0.000000      0.000000
     21 F     s       0.000001     -0.000001     -0.000001      0.000000
--------------------------------------------------------------------------------
  Maximum abs         0.000002      0.000004      0.000002      0.000000
--------------------------------------------------------------------------------


  Born effective charge tensors : 

-------------------------------------------------------------------------------
  Atom             x           y             z
-------------------------------------------------------------------------------
    1 Al    x       1.4207     -0.1016      0.0393
            y      -0.1005      0.7604      0.4677
            z       0.0334      0.4594      0.9109
-------------------------------------------------------------------------------
    2 Al    x       1.2566     -0.1669      0.0749
            y      -0.1724      0.4921      0.2037
            z       0.0749      0.1999      1.3953
-------------------------------------------------------------------------------
    3 Al    x       1.3849      0.1782     -0.0699
            y       0.1815      0.4397      0.2537
            z      -0.0615      0.2616      1.2640
-------------------------------------------------------------------------------
    4 F     x      -0.3414      0.2856     -0.1203
            y       0.2548     -0.2466     -0.1487
            z      -0.1137     -0.1526     -0.4880
-------------------------------------------------------------------------------
    5 F     x      -0.4329     -0.2489      0.1210
            y      -0.1996     -0.2179     -0.1982
            z       0.1137     -0.2367     -0.4282
-------------------------------------------------------------------------------
    6 F     x      -0.5566     -0.1381      0.0125
            y      -0.1095      0.0211     -0.0208
            z       0.0078     -0.0072     -0.5532
-------------------------------------------------------------------------------
    7 F     x      -0.5782      0.0951     -0.0223
            y       0.0480      0.0361     -0.0312
            z      -0.0188      0.0113     -0.5510
-------------------------------------------------------------------------------
    8 F     x      -0.3805      0.0295      0.0106
            y       0.0194     -0.2731     -0.0471
            z       0.0203     -0.0599     -0.3647
-------------------------------------------------------------------------------
    9 F     x      -0.3412      0.0001      0.0114
            y       0.0007     -0.2529     -0.0420
            z       0.0025     -0.0385     -0.3529
-------------------------------------------------------------------------------
   10 F     x      -0.5412      0.0396     -0.0810
            y       0.0360     -0.4747     -0.1815
            z      -0.0868     -0.2289     -0.0443
-------------------------------------------------------------------------------
   11 F     x      -0.5538      0.0193      0.0009
            y       0.0232     -0.0347     -0.2449
            z       0.0057     -0.1852     -0.5284
-------------------------------------------------------------------------------
   12 F     x      -0.3364      0.0083      0.0229
            y       0.0184     -0.2493     -0.0108
            z       0.0224     -0.0230     -0.2594
-------------------------------------------------------------------------------




  Moment of inertia tensor (10^-46 x kgm^2): 

-------------------------------------------------------------------------------
                x           y           z           Principal axis system
-------------------------------------------------------------------------------
       x        152.13        6.19        4.41          147.305895
       y          6.19      202.15      -23.62          161.851063
       z          4.41      -23.62      169.64          214.754467
-------------------------------------------------------------------------------
  Centre of mass (Ang) =     0.603244    -1.405659     0.069567
-------------------------------------------------------------------------------


  Vibrational Frequency Calculation : 

--------------------------------------------------------------------------------

  Frequencies (cm-1) and Eigenvectors : 

  Frequency     -26.3112  -12.0811   -0.0000   -0.0000    0.0000    3.9517
  IR Intensity    0.0001    0.0008    0.0000    0.0000    0.0000    0.0000
     in X         0.0001    0.0002    0.0000    0.0000    0.0000    0.0000
     in Y         0.0000    0.0002    0.0000    0.0000    0.0000    0.0000
     in Z         0.0000    0.0004    0.0000    0.0000    0.0000    0.0000
  Raman Intsty    0.0022    0.0587    0.0000    0.0000    0.0000    0.0021

     1 x       0.022040  0.035311  0.058418 -0.118936  0.299217 -0.269321
     1 y       0.196828 -0.081026  0.311292  0.098590 -0.021587 -0.009007
     1 z      -0.099799  0.004204 -0.082301  0.288484  0.130738 -0.041044
     2 x       0.011619  0.004210  0.058418 -0.118936  0.299217  0.106083
     2 y       0.058525 -0.051441  0.311292  0.098590 -0.021587  0.098547
     2 z      -0.033308  0.009911 -0.082301  0.288484  0.130738  0.235476
     3 x      -0.028823 -0.034759  0.058418 -0.118936  0.299217  0.163240
     3 y      -0.254873  0.136253  0.311292  0.098590 -0.021587 -0.089533
     3 z       0.138995  0.009121 -0.082301  0.288484  0.130738 -0.187002
     4 x      -0.118041  0.056886  0.049023 -0.099809  0.251097  0.108057
     4 y       0.043930 -0.124478  0.261231  0.082735 -0.018115  0.100714
     4 z      -0.278994 -0.052650 -0.069065  0.242091  0.109713  0.269862
     5 x      -0.090006  0.115541  0.049023 -0.099809  0.251097  0.187313
     5 y      -0.264706  0.432519  0.261231  0.082735 -0.018115 -0.060545
     5 z       0.106161  0.344035 -0.069065  0.242091  0.109713 -0.188261
     6 x       0.141702 -0.094629  0.049023 -0.099809  0.251097  0.140942
     6 y       0.082006 -0.069422  0.261231  0.082735 -0.018115  0.095487
     6 z       0.214457  0.041703 -0.069065  0.242091  0.109713  0.293995
     7 x      -0.006273 -0.275296  0.049023 -0.099809  0.251097  0.195554
     7 y      -0.216366  0.159674  0.261231  0.082735 -0.018115 -0.082110
     7 z       0.205578 -0.420186 -0.069065  0.242091  0.109713 -0.274894
     8 x       0.085004  0.098902  0.049023 -0.099809  0.251097 -0.089037
     8 y       0.268820  0.036309  0.261231  0.082735 -0.018115  0.128346
     8 z      -0.054773  0.022907 -0.069065  0.242091  0.109713  0.133487
     9 x      -0.059915 -0.002193  0.049023 -0.099809  0.251097  0.178945
     9 y      -0.221307 -0.005616  0.261231  0.082735 -0.018115  0.002876
     9 z       0.007070  0.040182 -0.069065  0.242091  0.109713  0.028744
    10 x       0.170800  0.135767  0.049023 -0.099809  0.251097 -0.342242
    10 y       0.374388  0.097280  0.261231  0.082735 -0.018115  0.023742
    10 z       0.013411  0.076716 -0.069065  0.242091  0.109713 -0.044080
    11 x      -0.212221 -0.168393  0.049023 -0.099809  0.251097 -0.338927
    11 y       0.090464 -0.131974  0.261231  0.082735 -0.018115 -0.020371
    11 z      -0.335937 -0.219766 -0.069065  0.242091  0.109713 -0.083207
    12 x       0.083184  0.127742  0.049023 -0.099809  0.251097 -0.040607
    12 y      -0.157799 -0.398803  0.261231  0.082735 -0.018115 -0.188147
    12 z       0.116012  0.139371 -0.069065  0.242091  0.109713 -0.144499


  Frequency      24.4463   27.3661   45.4301  117.9726  141.1476  149.5029
  IR Intensity    0.0004    0.0006    0.0024    0.0005    0.0068    0.0077
     in X         0.0001    0.0000    0.0002    0.0001    0.0044    0.0042
     in Y         0.0000    0.0001    0.0018    0.0000    0.0007    0.0016
     in Z         0.0003    0.0005    0.0004    0.0004    0.0017    0.0019
  Raman Intsty    0.0010    0.0032    0.0062    0.0039    0.0351    0.0146

     1 x      -0.015158 -0.006453  0.007226 -0.034421  0.044522 -0.144455
     1 y      -0.142101  0.142413 -0.022519  0.075017  0.117804  0.028229
     1 z       0.104970 -0.019457 -0.024197 -0.034843  0.026399  0.047455
     2 x       0.035984  0.012319  0.033978  0.009502  0.004551 -0.050750
     2 y       0.184745 -0.199049 -0.018580 -0.043051  0.013908 -0.141240
     2 z      -0.117473  0.063700  0.053110 -0.017594 -0.077877 -0.136864
     3 x      -0.015239  0.000644 -0.053248  0.010438  0.062034  0.107308
     3 y      -0.044846  0.068062  0.003843 -0.031563 -0.163502  0.059085
     3 z      -0.005859 -0.068514  0.006551  0.018778 -0.008683  0.041483
     4 x      -0.173276  0.059265 -0.253995  0.189459  0.133415 -0.071594
     4 y       0.281632 -0.334095  0.308003  0.038920  0.020873 -0.104530
     4 z      -0.231633 -0.188298  0.155100  0.480828  0.195135 -0.131832
     5 x       0.021715  0.257866  0.196433  0.212823 -0.055311  0.209129
     5 y       0.040552  0.145376  0.130862 -0.011939 -0.028891  0.290003
     5 z       0.077029 -0.196501 -0.054907 -0.176572  0.283175  0.270868
     6 x       0.275472 -0.051853  0.456367 -0.113976 -0.144329  0.159089
     6 y       0.218663 -0.185128  0.097169 -0.067774 -0.026706 -0.071783
     6 z      -0.006329  0.428834 -0.087599 -0.366510 -0.311671 -0.039811
     7 x      -0.103535 -0.316355 -0.356135 -0.193424 -0.112274  0.469994
     7 y      -0.022064  0.104811  0.051360  0.001607 -0.116384 -0.014633
     7 z      -0.068753  0.083342  0.040121  0.218419 -0.031491  0.151031
     8 x       0.073282  0.012217 -0.103936 -0.060144  0.070936 -0.348658
     8 y       0.208180  0.205504 -0.306828  0.079191  0.208711 -0.199406
     8 z      -0.111025 -0.044663  0.073573 -0.078258 -0.085666 -0.203669
     9 x      -0.028187  0.058591  0.002693  0.008517  0.022875  0.044111
     9 y      -0.137669 -0.327036 -0.366566 -0.128861 -0.237932 -0.095093
     9 z      -0.075376 -0.057760  0.009178 -0.052650 -0.206281 -0.262817
    10 x       0.134877 -0.046683 -0.126261  0.429215 -0.481867 -0.024422
    10 y      -0.474981 -0.047828  0.148899 -0.004201  0.185569  0.183750
    10 z      -0.005582 -0.078929  0.013022  0.024439 -0.037335  0.112124
    11 x      -0.259610  0.020556  0.253338 -0.422164  0.159649 -0.201877
    11 y      -0.005842  0.182148 -0.074410  0.075669  0.178912  0.049508
    11 z       0.441176  0.192673 -0.184660 -0.017699  0.286319  0.123201
    12 x       0.052605 -0.001364 -0.054153 -0.033049  0.274508 -0.131031
    12 y      -0.105849  0.242632  0.055904  0.016908 -0.146269  0.026445
    12 z       0.002376 -0.109777 -0.006087  0.008111 -0.020495  0.038014


  Frequency     153.1287  167.8572  175.7046  187.3524  196.4173  218.1897
  IR Intensity    0.0060    0.0050    0.0050    0.0054    0.0119    0.0194
     in X         0.0006    0.0003    0.0001    0.0003    0.0117    0.0000
     in Y         0.0000    0.0034    0.0006    0.0025    0.0000    0.0007
     in Z         0.0053    0.0013    0.0043    0.0026    0.0003    0.0187
  Raman Intsty    0.0156    0.0573    0.0025    0.0058    0.0199    0.0000

     1 x       0.033230 -0.044795  0.024304  0.048551  0.197164  0.063428
     1 y       0.124954  0.034581 -0.000884  0.172168 -0.069106  0.188615
     1 z      -0.057206 -0.126494 -0.047170 -0.149134  0.081636 -0.221081
     2 x      -0.060037  0.102514 -0.119863 -0.022298 -0.050057 -0.033349
     2 y      -0.119036  0.001668  0.111427 -0.252362 -0.227019 -0.108485
     2 z       0.023455 -0.034519 -0.034744  0.188734  0.018157 -0.071074
     3 x      -0.029423 -0.068073  0.059292 -0.072324  0.029309 -0.014693
     3 y       0.016753  0.069157 -0.036369 -0.069579  0.304184 -0.110970
     3 z      -0.104570  0.065977 -0.040605  0.046695 -0.129049 -0.024105
     4 x      -0.054930  0.365589 -0.193033 -0.414877 -0.247910 -0.056587
     4 y       0.054841 -0.174729  0.290763  0.058514  0.011430 -0.005964
     4 z       0.339344  0.130996  0.193796  0.001900  0.070639  0.075651
     5 x      -0.454552 -0.252284  0.173517  0.154862 -0.317557  0.096227
     5 y      -0.098014  0.116535  0.168965  0.136611  0.013202  0.013389
     5 z       0.191278  0.342134  0.138229  0.109777 -0.153163  0.037393
     6 x       0.112956  0.320332 -0.433490 -0.005450  0.143635  0.179790
     6 y      -0.062411  0.061192  0.013691 -0.221952 -0.157715 -0.046787
     6 z       0.275708 -0.006994  0.311308 -0.278299 -0.002692  0.177618
     7 x       0.076627 -0.015912  0.132515  0.272770  0.075671 -0.218163
     7 y       0.004986  0.051751 -0.053728 -0.115168  0.262198 -0.074860
     7 z      -0.407484  0.220912  0.263165 -0.176279  0.288827  0.167406
     8 x      -0.120034  0.011688  0.022365  0.193842  0.241378 -0.152381
     8 y      -0.089104  0.129660  0.038637  0.174890 -0.003760 -0.289641
     8 z      -0.042575 -0.098604 -0.012522  0.173610  0.092321 -0.059935
     9 x       0.012494 -0.007665 -0.000638 -0.024500  0.086553 -0.043257
     9 y      -0.181101 -0.053570 -0.084884 -0.051893  0.001181  0.500347
     9 z      -0.169261  0.081642 -0.298653  0.333936 -0.165552  0.076809
    10 x       0.374960 -0.181939  0.050364 -0.011557 -0.194841 -0.003174
    10 y       0.032500 -0.362396 -0.307625 -0.140807  0.028894 -0.046814
    10 z      -0.019381 -0.269319 -0.140903 -0.244486  0.041807 -0.296453
    11 x       0.070598 -0.046862  0.199943 -0.058857 -0.334118 -0.037702
    11 y       0.159597 -0.025752 -0.072635  0.189656 -0.094475  0.290589
    11 z       0.115552 -0.308330 -0.271297 -0.030320 -0.063642  0.169113
    12 x       0.048887 -0.180607  0.091672 -0.051334  0.336964  0.216914
    12 y       0.151689  0.131703 -0.081572  0.148625 -0.070559 -0.303511
    12 z      -0.118351  0.020812 -0.037125  0.007331 -0.073682  0.029267


  Frequency     220.4705  232.7804  242.4066  254.2802  266.4014  318.6217
  IR Intensity    0.0172    0.0558    0.1266    0.0598    0.0336    0.0006
     in X         0.0134    0.0542    0.0002    0.0530    0.0218    0.0006
     in Y         0.0021    0.0003    0.0450    0.0056    0.0004    0.0000
     in Z         0.0017    0.0013    0.0814    0.0012    0.0114    0.0000
  Raman Intsty    0.0051    0.0000    0.0002    0.0612    0.1763    0.0027

     1 x      -0.203048  0.340189  0.029734 -0.068942  0.006970  0.009206
     1 y       0.074424  0.032058 -0.345390 -0.050157  0.055255 -0.051398
     1 z      -0.024120  0.035215 -0.219389  0.081547  0.242926 -0.218197
     2 x       0.167404  0.109947  0.055636  0.213952 -0.337148 -0.108891
     2 y       0.111786  0.096197 -0.020848 -0.241404 -0.033263  0.011840
     2 z       0.335853 -0.168866 -0.096536 -0.083544  0.046937  0.056961
     3 x       0.277947  0.053226 -0.113176  0.334898  0.015969  0.150189
     3 y      -0.059613 -0.078878 -0.164102 -0.003885 -0.214410  0.048617
     3 z      -0.234979  0.211098 -0.255365  0.112390 -0.018324  0.150050
     4 x      -0.040003  0.097640  0.024256 -0.211275 -0.084515 -0.039165
     4 y      -0.016075  0.148368  0.108313  0.224447 -0.271329 -0.093988
     4 z      -0.303755 -0.068589  0.103086  0.038086  0.071192  0.011093
     5 x      -0.159793  0.093450 -0.003272  0.008217  0.193448  0.036829
     5 y      -0.019302 -0.104339  0.221976 -0.220596 -0.007355 -0.135517
     5 z       0.283088  0.120144  0.206472  0.138963  0.112414  0.029003
     6 x      -0.159000 -0.208565  0.001421 -0.004877  0.247943  0.052233
     6 y       0.023075  0.006673 -0.035564 -0.299555  0.122639  0.059818
     6 z      -0.198291  0.119981  0.142432  0.035328 -0.069174 -0.019506
     7 x      -0.203702 -0.079995 -0.054320 -0.247983 -0.126629 -0.065661
     7 y       0.013273 -0.042896 -0.180857  0.097084 -0.195973  0.099894
     7 z       0.167845 -0.194236  0.187699 -0.064884 -0.098232 -0.038416
     8 x      -0.137516  0.075187  0.300176 -0.106690  0.052221  0.331885
     8 y      -0.194527 -0.417618  0.055026  0.265701  0.135713 -0.050257
     8 z       0.283872  0.019415 -0.007184 -0.336817  0.129832  0.325485
     9 x       0.282846 -0.006833 -0.044083  0.219824 -0.094991  0.082424
     9 y      -0.022496 -0.054761  0.143223  0.287121  0.319744  0.056252
     9 z      -0.018295  0.009317  0.122421 -0.020463 -0.304785 -0.490225
    10 x       0.137428 -0.216338  0.051356 -0.070398  0.008376  0.018612
    10 y      -0.055432 -0.027515  0.342702 -0.007092 -0.101488  0.081256
    10 z      -0.009804 -0.078015  0.010894  0.096360  0.199003 -0.205233
    11 x      -0.070942 -0.426206 -0.065502  0.044734 -0.010700 -0.012966
    11 y       0.065324  0.016403 -0.203558 -0.103895 -0.076921  0.060575
    11 z      -0.029971 -0.065186  0.224368 -0.088177 -0.193506  0.138542
    12 x       0.061945  0.071833 -0.176897 -0.203428  0.189272 -0.464374
    12 y       0.055301  0.416845  0.180713  0.108849  0.304262 -0.088828
    12 z      -0.266153  0.044879 -0.309419  0.070056 -0.170320  0.262588


  Frequency     454.6331  491.4405  517.0341  604.1567  614.6305  646.2872
  IR Intensity    0.0047    0.0238    0.0106    0.0558    0.0824    0.0019
     in X         0.0032    0.0036    0.0072    0.0009    0.0761    0.0006
     in Y         0.0001    0.0014    0.0009    0.0003    0.0002    0.0004
     in Z         0.0014    0.0188    0.0024    0.0546    0.0061    0.0008
  Raman Intsty    3.6883    0.1979    0.6235    0.0001    0.3045    0.0054

     1 x       0.174708  0.271340 -0.279174  0.089491  0.541779 -0.300056
     1 y      -0.192925 -0.077104 -0.094722 -0.064058  0.018219  0.061541
     1 z      -0.187165 -0.035053 -0.138004 -0.043045  0.099024  0.005402
     2 x      -0.249980  0.202109  0.120200  0.200348 -0.062199  0.044985
     2 y       0.096437  0.037604 -0.030702  0.059065  0.024778  0.048899
     2 z       0.194551  0.427884 -0.006085  0.495009  0.043019  0.210479
     3 x       0.217788 -0.289881 -0.147337 -0.218859  0.196786  0.324651
     3 y       0.065294 -0.053460  0.055509 -0.012188 -0.050298 -0.035451
     3 z       0.091956  0.017067  0.326857  0.133511 -0.334921 -0.328216
     4 x      -0.215822  0.001804  0.169114 -0.009279  0.121390  0.024240
     4 y      -0.276259  0.025542  0.185413 -0.000145  0.108420  0.019162
     4 z       0.105998 -0.058867 -0.095925 -0.019348 -0.065667 -0.004164
     5 x       0.106999 -0.142167  0.118534  0.123081  0.042587 -0.038921
     5 y      -0.190519  0.237081 -0.141651 -0.138729 -0.062843  0.050122
     5 z       0.115150 -0.167544  0.063971  0.087709  0.069087 -0.033608
     6 x      -0.060308 -0.009799  0.067882  0.000079  0.058586  0.027220
     6 y       0.344160 -0.038898 -0.264677 -0.035785 -0.175534 -0.080148
     6 z      -0.025195 -0.046015 -0.005900 -0.017631 -0.010495  0.006908
     7 x       0.015199 -0.036111  0.052033  0.055957  0.011320 -0.005893
     7 y       0.227775 -0.316914  0.197316  0.206998  0.106493 -0.024503
     7 z      -0.003573 -0.018791 -0.026861 -0.002733  0.026884 -0.000508
     8 x      -0.185709 -0.264704 -0.187206  0.188400 -0.342854  0.225200
     8 y       0.076060  0.117119  0.131452 -0.124544  0.182903 -0.133698
     8 z      -0.253168 -0.108486  0.302935 -0.372930  0.237546 -0.219652
     9 x       0.036400  0.209164 -0.272213 -0.286919 -0.404170 -0.476534
     9 y      -0.081631  0.106860  0.040434  0.050950 -0.023057 -0.017780
     9 z       0.191168 -0.274571 -0.159993 -0.182510  0.010835 -0.011410
    10 x       0.028338 -0.004548  0.071606 -0.042829 -0.023552  0.010988
    10 y       0.129223  0.056252  0.087832 -0.050892 -0.004282  0.022304
    10 z      -0.303345 -0.154482 -0.236963  0.195486 -0.006558 -0.084042
    11 x      -0.026596 -0.027998  0.025850 -0.007590 -0.020688 -0.009745
    11 y      -0.253044 -0.184728 -0.255818  0.234837 -0.006406 -0.111637
    11 z       0.103764  0.044825  0.081453 -0.061015 -0.006429  0.029889
    12 x       0.131671  0.055612  0.319413 -0.105481 -0.248601  0.160531
    12 y       0.061406  0.108461  0.103012 -0.122217 -0.116996  0.186818
    12 z      -0.049178  0.295480 -0.140510 -0.324702 -0.025362  0.450450


  Frequency     682.3415  700.7540  724.3715  802.0212  816.0959  818.1884
  IR Intensity    0.0691    0.0514    0.0162    0.0018    0.0006    0.0026
     in X         0.0211    0.0268    0.0146    0.0001    0.0000    0.0000
     in Y         0.0112    0.0118    0.0003    0.0015    0.0001    0.0020
     in Z         0.0367    0.0129    0.0013    0.0003    0.0004    0.0006
  Raman Intsty    0.0159    0.1295    0.0029    0.0001    0.0214    0.0082

     1 x       0.029686  0.015799 -0.000210 -0.008239 -0.086051  0.018642
     1 y       0.170488 -0.417908 -0.260154 -0.000271 -0.457101  0.157070
     1 z       0.204642 -0.385118 -0.167149  0.000139  0.532866 -0.183095
     2 x       0.059768  0.255519 -0.598996 -0.172363  0.077455  0.043897
     2 y       0.009281 -0.075566  0.196994 -0.692015  0.001108  0.064094
     2 z       0.038355 -0.089876  0.182303  0.165194 -0.033992 -0.008641
     3 x       0.383050  0.240042  0.161477  0.018125 -0.091037 -0.135157
     3 y       0.196448  0.078286  0.105802  0.081306  0.198960  0.667921
     3 z       0.392197  0.138764  0.139094 -0.015508 -0.121612 -0.184496
     4 x      -0.033482 -0.129024  0.246983  0.302974 -0.028622 -0.033783
     4 y      -0.034612 -0.128955  0.231293  0.336122 -0.026484 -0.036869
     4 z       0.014643  0.066661 -0.127137 -0.163020  0.013031  0.018166
     5 x      -0.186006 -0.091607 -0.043799  0.019946  0.084852  0.214786
     5 y       0.247070  0.116756  0.048728 -0.032303 -0.123288 -0.329936
     5 z      -0.176281 -0.084938 -0.041833  0.019751  0.076781  0.205480
     6 x      -0.002075 -0.050224  0.117603 -0.107044 -0.005816  0.008165
     6 y       0.007834  0.179417 -0.371582  0.455154  0.010343 -0.038254
     6 z      -0.002259  0.003409 -0.008405 -0.002607  0.001904  0.002286
     7 x      -0.069153 -0.030982 -0.032228 -0.007798 -0.014069 -0.057448
     7 y      -0.376898 -0.143880 -0.138846 -0.055057 -0.124701 -0.430428
     7 z      -0.018997 -0.007385 -0.008199 -0.002744  0.002811  0.002132
     8 x       0.063410 -0.178856  0.022332  0.014668 -0.001272 -0.000260
     8 y      -0.036644  0.111087 -0.011547  0.007520  0.011868 -0.006011
     8 z      -0.049018  0.171064 -0.117616 -0.020690  0.004550  0.005386
     9 x      -0.237748 -0.225016  0.158716 -0.032098 -0.010313 -0.021547
     9 y      -0.016384 -0.003204 -0.037327  0.011946  0.001161 -0.016883
     9 z      -0.001422 -0.030962  0.089683 -0.007636 -0.008360  0.001908
    10 x       0.031038 -0.050470 -0.013488  0.000622  0.075622 -0.024668
    10 y       0.059771 -0.082186 -0.015733  0.000887  0.154860 -0.052617
    10 z      -0.196282  0.296094  0.081133 -0.001343 -0.429684  0.146083
    11 x      -0.003484  0.006882  0.002416 -0.001108  0.009728 -0.004239
    11 y      -0.148711  0.356210  0.210146  0.003238  0.387000 -0.135434
    11 z       0.043581 -0.091850 -0.049499 -0.001277 -0.136040  0.048235
    12 x      -0.125555  0.139942  0.063079  0.003451  0.008618  0.005527
    12 y      -0.149740  0.089509  0.034056  0.000559  0.015532 -0.013035
    12 z      -0.370885  0.078573 -0.001935  0.001029  0.025447  0.018655




--------------------------------------------------------------------------------
  Vibrational properties (for cluster):  Temperature  =       0.000 K
--------------------------------------------------------------------------------
  Zero point energy            =        0.682626 eV
--------------------------------------------------------------------------------

  Phonon density of states : 

--------------------------------------------------------------------------------
 Frequency (cm-1) Density of States                                             
--------------------------------------------------------------------------------
    0.00000 |****************************************                      0.062
   12.78419 |********************                                          0.031
   25.56839 |********************                                          0.031
   38.35258 |********************                                          0.031
   51.13678 |                                                              0.000
   63.92097 |                                                              0.000
   76.70517 |                                                              0.000
   89.48936 |                                                              0.000
  102.27355 |                                                              0.000
  115.05775 |********************                                          0.031
  127.84194 |                                                              0.000
  140.62614 |************************************************************  0.094
  153.41033 |                                                              0.000
  166.19453 |****************************************                      0.062
  178.97872 |********************                                          0.031
  191.76291 |********************                                          0.031
  204.54711 |                                                              0.000
  217.33130 |****************************************                      0.062
  230.11550 |****************************************                      0.062
  242.89969 |********************                                          0.031
  255.68389 |********************                                          0.031
  268.46808 |                                                              0.000
  281.25227 |                                                              0.000
  294.03647 |                                                              0.000
  306.82066 |********************                                          0.031
  319.60486 |                                                              0.000
  332.38905 |                                                              0.000
  345.17325 |                                                              0.000
  357.95744 |                                                              0.000
  370.74163 |                                                              0.000
  383.52583 |                                                              0.000
  396.31002 |                                                              0.000
  409.09422 |                                                              0.000
  421.87841 |                                                              0.000
  434.66261 |                                                              0.000
  447.44680 |********************                                          0.031
  460.23099 |                                                              0.000
  473.01519 |                                                              0.000
  485.79938 |********************                                          0.031
  498.58358 |                                                              0.000
  511.36777 |********************                                          0.031
  524.15197 |                                                              0.000
  536.93616 |                                                              0.000
  549.72035 |                                                              0.000
  562.50455 |                                                              0.000
  575.28874 |                                                              0.000
  588.07294 |                                                              0.000
  600.85713 |********************                                          0.031
  613.64133 |********************                                          0.031
  626.42552 |                                                              0.000
  639.20971 |********************                                          0.031
  651.99391 |                                                              0.000
  664.77810 |                                                              0.000
  677.56230 |********************                                          0.031
  690.34649 |********************                                          0.031
  703.13069 |                                                              0.000
  715.91488 |********************                                          0.031
  728.69907 |                                                              0.000
  741.48327 |                                                              0.000
  754.26746 |                                                              0.000
  767.05166 |                                                              0.000
  779.83585 |                                                              0.000
  792.62005 |********************                                          0.031
  805.40424 |****************************************                      0.062
--------------------------------------------------------------------------------



  Time to end of optimisation =       0.0452 seconds


  Peak dynamic memory used =       0.65 MB 


  Timing analysis for GULP :

--------------------------------------------------------------------------------
  Task / Subroutine                                          Time (Seconds)
--------------------------------------------------------------------------------
  Calculation of real space energy and derivatives                0.0033
  Calculation of phonons                                          0.0016
  Calculation and manipulation of Hessian matrix                  0.0021
--------------------------------------------------------------------------------
  Total CPU time                                                  0.0452
--------------------------------------------------------------------------------


  Job Finished at 14:38.53 25th May        2022                               

