------------------------------------------------------------
          Invoking FHI-aims ...

          When using FHI-aims, please cite the following reference:

            Volker Blum, Ralf Gehrke, Felix Hanke, Paula Havu,
            Ville Havu, Xinguo Ren, Karsten Reuter, and Matthias Scheffler,
            'Ab Initio Molecular Simulations with Numeric Atom-Centered Orbitals',
            Computer Physics Communications 180, 2175-2196 (2009)

          In addition, many other developments in FHI-aims are likely important for
          your particular application. A partial list of references is given at the end of
          this file. Thank you for giving credit to the authors of these developments.

          For any questions about FHI-aims, please visit our slack channel at

            https://fhi-aims.slack.com

          and our main development and support site at

            https://aims-git.rz-berlin.mpg.de .

          The latter site, in particular, has a wiki to collect information, as well
          as an issue tracker to log discussions, suggest improvements, and report issues
          or bugs. https://aims-git.rz-berlin.mpg.de is also the main development site
          of the project and all new and updated code versions can be obtained there.
          Please send an email to aims-coordinators@fhi-berlin.mpg.de and we will add
          you to these sites. They are for you and everyone is welcome there.

------------------------------------------------------------



  Date     :  20220517, Time     :  111442.873
  Time zero on CPU 1             :   0.455010000000000E-01  s.
  Internal wall clock time zero  :           422018082.873  s.

  FHI-aims created a unique identifier for this run for later identification
  aims_uuid : 4838880C-C375-43B5-A132-7411644299B0

  Build configuration of the current instance of FHI-aims
  -------------------------------------------------------
  FHI-aims version      : 210914
  Commit number         : GITDIR-NOTFOUND
  CMake host system     : Linux-3.10.0-693.17.1.el7.x86_64
  CMake version         : 3.21.1
  Fortran compiler      : /shared/ucl/apps/intel/2018.Update3/impi/2018.3.222/intel64/bin/mpiifort (Intel) version 18.0.3.20180410
  Fortran compiler flags: -O3 -ip -fp-model precise
  C compiler            : /shared/ucl/apps/intel/2018.Update3/compilers_and_libraries_2018.3.222/linux/bin/intel64/icc (Intel) version 18.0.3.20180410
  C compiler flags      : -O3 -ip -fp-model precise -std=gnu99
  ELPA2 kernel          : AVX2
  Using MPI
  Using ScaLAPACK
  Using LibXC
  Using i-PI
  Using RLSY
  Linking against: /shared/ucl/apps/intel/2019.Update5/compilers_and_libraries_2019.5.281/linux/mkl/lib/intel64/libmkl_intel_lp64.so
                   /shared/ucl/apps/intel/2019.Update5/compilers_and_libraries_2019.5.281/linux/mkl/lib/intel64/libmkl_sequential.so
                   /shared/ucl/apps/intel/2019.Update5/compilers_and_libraries_2019.5.281/linux/mkl/lib/intel64/libmkl_core.so
                   /shared/ucl/apps/intel/2019.Update5/compilers_and_libraries_2019.5.281/linux/mkl/lib/intel64/libmkl_blacs_intelmpi_lp64.so
                   /shared/ucl/apps/intel/2019.Update5/compilers_and_libraries_2019.5.281/linux/mkl/lib/intel64/libmkl_scalapack_lp64.so

  Using       24 parallel tasks.
  Task        0 on host node-k98a-011 reporting.
  Task        1 on host node-k98a-011 reporting.
  Task        2 on host node-k98a-011 reporting.
  Task        3 on host node-k98a-011 reporting.
  Task        4 on host node-k98a-011 reporting.
  Task        5 on host node-k98a-011 reporting.
  Task        6 on host node-k98a-011 reporting.
  Task        7 on host node-k98a-011 reporting.
  Task        8 on host node-k98a-011 reporting.
  Task        9 on host node-k98a-011 reporting.
  Task       10 on host node-k98a-011 reporting.
  Task       11 on host node-k98a-011 reporting.
  Task       12 on host node-k98a-011 reporting.
  Task       13 on host node-k98a-011 reporting.
  Task       14 on host node-k98a-011 reporting.
  Task       15 on host node-k98a-011 reporting.
  Task       16 on host node-k98a-011 reporting.
  Task       17 on host node-k98a-011 reporting.
  Task       18 on host node-k98a-011 reporting.
  Task       19 on host node-k98a-011 reporting.
  Task       20 on host node-k98a-011 reporting.
  Task       21 on host node-k98a-011 reporting.
  Task       22 on host node-k98a-011 reporting.
  Task       23 on host node-k98a-011 reporting.

  Performing system and environment tests:
  | Environment variable OMP_NUM_THREADS correctly set to 1.
  | Checking for ScaLAPACK...
  | Testing pdtran()...
  | All pdtran() tests passed.

  Obtaining array dimensions for all initial allocations:
  
  -----------------------------------------------------------------------
  Parsing control.in (first pass over file, find array dimensions only).
  The contents of control.in will be repeated verbatim below
  unless switched off by setting 'verbatim_writeout .false.' .
  in the first line of control.in .
  -----------------------------------------------------------------------
  
  #########################################################################################  Physical model
  #########################################################################################
  xc                 pbesol
  spin               none
  relativistic       atomic_zora scalar
  charge             0.0
  #  SCF convergence
  occupation_type    gaussian 0.01
  mixer              pulay
  n_max_pulay        10
  charge_mix_param   0.5
  sc_accuracy_rho    1E-5
  sc_accuracy_eev    1E-3
  sc_accuracy_etot   1E-6
  sc_accuracy_forces 1E-4
  sc_iter_limit      1500
  #  Relaxation
  #relax_geometry   bfgs 1.e-3
  
  ################################################################################
  #
  #  FHI-aims code project
  #  VB, Fritz-Haber Institut, 2009
  #
  #  Suggested "light" defaults for Al atom (to be pasted into control.in file)
  #  Be sure to double-check any results obtained with these settings for post-processing,
  #  e.g., with the "tight" defaults and larger basis sets.
  #
  ################################################################################
    species        Al
  #     global species definitions
      nucleus             13
      mass                26.9815386
  #
      l_hartree           4
  #
      cut_pot             3.5          1.5  1.0
      basis_dep_cutoff    1e-4
  #
      radial_base         41 5.0
      radial_multiplier   1
      angular_grids       specified
        division   0.6594  110
        division   0.8170  194
        division   0.9059  302
  #      division   1.0363  434
  #      division   1.1443  590
  #      division   1.2621  770
  #      division   2.8177  974
  #      outer_grid   974
        outer_grid   302
  ################################################################################
  #
  #  Definition of "minimal" basis
  #
  ################################################################################
  #     valence basis states
      valence      3  s   2.
      valence      3  p   1.
  #     ion occupancy
      ion_occ      3  s   1.
      ion_occ      2  p   6.
  ################################################################################
  #
  #  Suggested additional basis functions. For production calculations,
  #  uncomment them one after another (the most important basis functions are
  #  listed first).
  #
  #  Constructed for dimers: 2.0 A, 2.5 A, 3.0 A, 3.75 A, 4.5 A
  #
  ################################################################################
  #  "First tier" - improvements: -199.47 meV to -10.63 meV
       ionic 3 d auto
       ionic 3 p auto
  #     hydro 4 f 4.7
       ionic 3 s auto
  #  "Second tier" - improvements: -5.35 meV to -1.57 meV
  #     hydro 5 g 7
  #     hydro 3 d 6
  #     hydro 2 s 11.6
  #     hydro 2 p 0.9
  #  "Third tier" - improvements: -0.63 meV to -0.20 meV
  #     hydro 5 f 7.6
  #     hydro 4 p 7.2
  #     hydro 4 s 3.7
  #     hydro 4 d 7.6
  #  "Fourth tier" - improvements: -0.17 meV to -0.08 meV
  #     hydro 4 d 13.6
  #     hydro 5 g 11.2
  #     hydro 4 d 0.9
  #     hydro 1 s 0.4
  #     hydro 4 p 0.1
  #     hydro 5 f 9.8
  #  Further basis functions that fell out of the optimization - noise level...
  #     hydro 4 p 5
  
  ################################################################################
  #
  #  FHI-aims code project
  #  VB, Fritz-Haber Institut, 2009
  #
  #  Suggested "light" defaults for F atom (to be pasted into control.in file)
  #  Be sure to double-check any results obtained with these settings for post-processing,
  #  e.g., with the "tight" defaults and larger basis sets.
  #
  ################################################################################
    species        F
  #     global species definitions
      nucleus             9
      mass                18.9984032
  #
      l_hartree           4
  #
      cut_pot             3.5  1.5  1.0
      basis_dep_cutoff    1e-4
  #
      radial_base         37 5.0
      radial_multiplier   1
      angular_grids specified
        division   0.4014  110
        division   0.5291  194
        division   0.6019  302
  #      division   0.6814  434
  #      division   0.7989  590
  #      division   0.8965  770
  #      division   1.3427  974
  #      outer_grid   974
        outer_grid   302
  ################################################################################
  #
  #  Definition of "minimal" basis
  #
  ################################################################################
  #     valence basis states
      valence      2  s   2.
      valence      2  p   5.
  #     ion occupancy
      ion_occ      2  s   1.
      ion_occ      2  p   4.
  ################################################################################
  #
  #  Suggested additional basis functions. For production calculations,
  #  uncomment them one after another (the most important basis functions are
  #  listed first).
  #
  #  Constructed for dimers: 1.2 A, 1.418 A, 1.75 A, 2.25 A, 3.25 A
  #
  ################################################################################
  #  "First tier" - improvements: -149.44 meV to -45.88 meV
       hydro 2 p 1.7
       hydro 3 d 7.4
       hydro 3 s 6.8
  #  "Second tier" - improvements: -12.96 meV to -1.56 meV
  #     hydro 4 f 11.2
  #     ionic 2 p auto
  #     hydro 1 s 0.75
  #     hydro 4 d 8.8
  #     hydro 5 g 16.8
  #  "Third tier" - improvements: -0.58 meV to -0.05 meV
  #     hydro 3 p 6.2
  #     hydro 3 s 3.2
  #     hydro 4 f 9.6
  #     hydro 3 s 19.6
  #     hydro 4 d 8.6
  #     hydro 5 g 14.4
  # Further basis functions: -0.05 meV and below
  #     hydro 3 p 4.2
  
  -----------------------------------------------------------------------
  Completed first pass over input file control.in .
  -----------------------------------------------------------------------
  
  
  -----------------------------------------------------------------------
  Parsing geometry.in (first pass over file, find array dimensions only).
  The contents of geometry.in will be repeated verbatim below
  unless switched off by setting 'verbatim_writeout .false.' .
  in the first line of geometry.in .
  -----------------------------------------------------------------------
  
  atom 1.279370062 0.008170516 2.527628637 Al
  atom 1.357400400 1.149640600 0.156799000 Al
  atom -0.263118385 0.850664964 -2.249177873 Al
  atom -1.750095404 -0.440492544 -2.213457677 F
  atom 2.041278992 -0.294073154 0.684332713 F
  atom 0.069033784 1.872765254 -3.875909594 F
  atom -0.428551426 1.945912881 -0.831354695 F
  atom 2.586442153 2.421651309 -0.324623444 F
  atom 1.232487423 0.008666328 -1.709399577 F
  atom 0.458645671 1.551727023 1.520930702 F
  atom 2.477171530 0.566464219 3.561795409 F
  atom 0.094324759 -1.127218859 2.790849186 F
  
  -----------------------------------------------------------------------
  Completed first pass over input file geometry.in .
  -----------------------------------------------------------------------
  

  Basic array size parameters:
  | Number of species                 :        2
  | Number of atoms                   :       12
  | Max. basis fn. angular momentum   :        2
  | Max. atomic/ionic basis occupied n:        3
  | Max. number of basis fn. types    :        3
  | Max. radial fns per species/type  :        5
  | Max. logarithmic grid size        :     1340
  | Max. radial integration grid size :       41
  | Max. angular integration grid size:      302
  | Max. angular grid division number :        8
  | Radial grid for Hartree potential :     1340
  | Number of spin channels           :        1

------------------------------------------------------------
          Reading file control.in.
------------------------------------------------------------
  XC: Using PBEsol gradient-corrected functionals.
  Spin treatment: No spin polarisation.
  Scalar relativistic treatment of kinetic energy: on-site free-atom approximation to ZORA.
  Charge =   0.000000E+00: Neutral system requested explicitly.
  Occupation type: Gaussian broadening, width =   0.100000E-01 eV.
  Using pulay charge density mixing.
  Pulay mixing - number of memorized iterations:   10
  Charge density mixing - mixing parameter:     0.5000
  Convergence accuracy of self-consistent charge density:  0.1000E-04
  Convergence accuracy of sum of eigenvalues:  0.1000E-02
  Convergence accuracy of total energy:  0.1000E-05
  Convergence accuracy of forces:  0.1000E-03
  Maximum number of s.-c. iterations  :  1500
 
  Reading configuration options for species Al                  .
  | Found nuclear charge :  13.0000
  | Found atomic mass :    26.9815386000000      amu
  | Found l_max for Hartree potential  :   4
  | Found cutoff potl. onset [A], width [A], scale factor :    3.50000    1.50000    1.00000
  | Threshold for basis-dependent cutoff potential is   0.100000E-03
  | Found data for basic radial integration grid :    41 points, outermost radius =    5.000 A
  | Found multiplier for basic radial grid :   1
  | Found angular grid specification: user-specified.
  | Specified grid contains     4 separate shells.
  | Check grid settings after all constraints further below.
  | Found free-atom valence shell :  3 s   2.000
  | Found free-atom valence shell :  3 p   1.000
  | Found free-ion valence shell :  3 s   1.000
  | Found free-ion valence shell :  2 p   6.000
  | Found ionic basis function :  3 d , default cutoff radius.
  | Found ionic basis function :  3 p , default cutoff radius.
  | Found ionic basis function :  3 s , default cutoff radius.
  Species Al                  : Missing cutoff potential type.
  Defaulting to exp(1/x)/(1-x)^2 type cutoff potential.
  Species Al: No 'logarithmic' tag. Using default grid for free atom:
  | Default logarithmic grid data [bohr] : 0.1000E-03 0.1000E+03 0.1012E+01
  | Will include ionic basis functions of  2.0-fold positive Al                   ion.
  Species Al: On-site basis accuracy parameter (for Gram-Schmidt orthonormalisation) not specified.
  Using default value basis_acc =  0.1000000E-03.
  Species Al                  : Using default innermost maximum threshold i_radial=  2 for radial functions.
  Species Al                  : Default cutoff onset for free atom density etc. : 0.35000000E+01 AA.
  Species Al                  : Basic radial grid will be enhanced according to radial_multiplier =   1, to contain    41 grid points.
 
  Reading configuration options for species F                   .
  | Found nuclear charge :   9.0000
  | Found atomic mass :    18.9984032000000      amu
  | Found l_max for Hartree potential  :   4
  | Found cutoff potl. onset [A], width [A], scale factor :    3.50000    1.50000    1.00000
  | Threshold for basis-dependent cutoff potential is   0.100000E-03
  | Found data for basic radial integration grid :    37 points, outermost radius =    5.000 A
  | Found multiplier for basic radial grid :   1
  | Found angular grid specification: user-specified.
  | Specified grid contains     4 separate shells.
  | Check grid settings after all constraints further below.
  | Found free-atom valence shell :  2 s   2.000
  | Found free-atom valence shell :  2 p   5.000
  | Found free-ion valence shell :  2 s   1.000
  | Found free-ion valence shell :  2 p   4.000
  | Found hydrogenic basis function :  2 p   1.700
  | Found hydrogenic basis function :  3 d   7.400
  | Found hydrogenic basis function :  3 s   6.800
  Species F                   : Missing cutoff potential type.
  Defaulting to exp(1/x)/(1-x)^2 type cutoff potential.
  Species F : No 'logarithmic' tag. Using default grid for free atom:
  | Default logarithmic grid data [bohr] : 0.1000E-03 0.1000E+03 0.1012E+01
  Species F : On-site basis accuracy parameter (for Gram-Schmidt orthonormalisation) not specified.
  Using default value basis_acc =  0.1000000E-03.
  Species F                   : Using default innermost maximum threshold i_radial=  2 for radial functions.
  Species F                   : Default cutoff onset for free atom density etc. : 0.35000000E+01 AA.
  Species F                   : Basic radial grid will be enhanced according to radial_multiplier =   1, to contain    37 grid points.
 
  Finished reading input file 'control.in'.
 
------------------------------------------------------------


------------------------------------------------------------
          Reading geometry description geometry.in.
------------------------------------------------------------
  | The smallest distance between any two atoms is         1.66214514 AA.
  | The first atom of this pair is atom number                      1 .
  | The second atom of this pair is atom number                    12 .
  Input structure read successfully.
  The structure contains       12 atoms,  and a total of        120.000 electrons.

  Input geometry:
  | No unit cell requested.
  | Atomic structure:
  |       Atom                x [A]            y [A]            z [A]
  |    1: Species Al            1.27937006        0.00817052        2.52762864
  |    2: Species Al            1.35740040        1.14964060        0.15679900
  |    3: Species Al           -0.26311839        0.85066496       -2.24917787
  |    4: Species F            -1.75009540       -0.44049254       -2.21345768
  |    5: Species F             2.04127899       -0.29407315        0.68433271
  |    6: Species F             0.06903378        1.87276525       -3.87590959
  |    7: Species F            -0.42855143        1.94591288       -0.83135470
  |    8: Species F             2.58644215        2.42165131       -0.32462344
  |    9: Species F             1.23248742        0.00866633       -1.70939958
  |   10: Species F             0.45864567        1.55172702        1.52093070
  |   11: Species F             2.47717153        0.56646422        3.56179541
  |   12: Species F             0.09432476       -1.12721886        2.79084919

 
  Finished reading input file 'control.in'.
 

------------------------------------------------------------
          Reading geometry description geometry.in.
------------------------------------------------------------
 
  Consistency checks for stacksize environment parameter are next.
 
  | Maximum stacksize for task 0: unlimited
  | Maximum stacksize for task 1: unlimited
  | Maximum stacksize for task 2: unlimited
  | Maximum stacksize for task 3: unlimited
  | Maximum stacksize for task 4: unlimited
  | Maximum stacksize for task 5: unlimited
  | Maximum stacksize for task 6: unlimited
  | Maximum stacksize for task 7: unlimited
  | Maximum stacksize for task 8: unlimited
  | Maximum stacksize for task 9: unlimited
  | Maximum stacksize for task 10: unlimited
  | Maximum stacksize for task 11: unlimited
  | Maximum stacksize for task 12: unlimited
  | Maximum stacksize for task 13: unlimited
  | Maximum stacksize for task 14: unlimited
  | Maximum stacksize for task 15: unlimited
  | Maximum stacksize for task 16: unlimited
  | Maximum stacksize for task 17: unlimited
  | Maximum stacksize for task 18: unlimited
  | Maximum stacksize for task 19: unlimited
  | Maximum stacksize for task 20: unlimited
  | Maximum stacksize for task 21: unlimited
  | Maximum stacksize for task 22: unlimited
  | Maximum stacksize for task 23: unlimited
  | Current stacksize for task 0: unlimited
  | Current stacksize for task 1: unlimited
  | Current stacksize for task 2: unlimited
  | Current stacksize for task 3: unlimited
  | Current stacksize for task 4: unlimited
  | Current stacksize for task 5: unlimited
  | Current stacksize for task 6: unlimited
  | Current stacksize for task 7: unlimited
  | Current stacksize for task 8: unlimited
  | Current stacksize for task 9: unlimited
  | Current stacksize for task 10: unlimited
  | Current stacksize for task 11: unlimited
  | Current stacksize for task 12: unlimited
  | Current stacksize for task 13: unlimited
  | Current stacksize for task 14: unlimited
  | Current stacksize for task 15: unlimited
  | Current stacksize for task 16: unlimited
  | Current stacksize for task 17: unlimited
  | Current stacksize for task 18: unlimited
  | Current stacksize for task 19: unlimited
  | Current stacksize for task 20: unlimited
  | Current stacksize for task 21: unlimited
  | Current stacksize for task 22: unlimited
  | Current stacksize for task 23: unlimited
 
  Consistency checks for the contents of control.in are next.
 
  MPI_IN_PLACE appears to work with this MPI implementation.
  | Keeping use_mpi_in_place .true. (see manual).
  Target number of points in a grid batch is not set. Defaulting to  100
  Method for grid partitioning is not set. Defaulting to parallel hash+maxmin partitioning.
  Batch size limit is not set. Defaulting to    200
  By default, will store active basis functions for each batch.
  If in need of memory, prune_basis_once .false. can be used to disable this option.
  communication_type for Hartree potential was not specified.
  Defaulting to calc_hartree .
  Pulay mixer: Number of initial linear mixing iterations not set.
  Defaulting to    0 iterations.
  Work space size for distributed Hartree potential not set.
  Defaulting to   0.200000E+03 MB.
  Algorithm-dependent basis array size parameters:
  | n_max_pulay                         :       10
  Presetting      1001 iterations before the initial mixing cycle
  is restarted anyway using the sc_init_iter criterion / keyword.
  Presetting a factor      1.000 between actual scf density residual
  and density convergence criterion sc_accuracy_rho below which sc_init_iter
  takes no effect.
  Geometry relaxation not requested: no relaxation will be performed.
  Forces evaluation will include force correction term due to incomplete self-consistency (default).
  Handling of forces: Unphysical translation and rotation will be removed from forces.
  No accuracy limit for integral partition fn. given. Defaulting to  0.1000E-14.
  No threshold value for u(r) in integrations given. Defaulting to  0.1000E-05.
  No accuracy for occupation numbers given. Defaulting to  0.1000E-12.
  No threshold value for occupation numbers given. Defaulting to  0.0000E+00.
  No accuracy for fermi level given. Defaulting to  0.1000E-19.
  Maximum # of iterations to find E_F not set. Defaulting to  200.
  Preferred method for the eigenvalue solver ('KS_method') not specified in 'control.in'.
  Calling BLACS routine to test compilation state
  Since ScaLAPACK support is enabled, defaulting to ELPA (via ELSI).
  Will not use alltoall communication since running on < 1024 CPUs.
  Threshold for basis singularities not set.
  Default threshold for basis singularities:  0.1000E-04
  partition_type (choice of integration weights) for integrals was not specified.
  | Using a version of the partition function of Stratmann and coworkers ('stratmann_sparse').
  | At each grid point, the set of atoms used to build the partition table is smoothly restricted to
  | only those atoms whose free-atom density would be non-zero at that grid point.
  Partitioning for Hartree potential was not defined. Using partition_type for integrals.
  | Adjusted default value of keyword multip_moments_threshold to:       0.10000000E-11
  | This value may affect high angular momentum components of the Hartree potential in periodic systems.
  No q(lm)/r^(l+1) cutoff set for long-range Hartree potential.
  | Using default value of  0.100000E-09 .
  | Verify using the multipole_threshold keyword.
  Defaulting to new monopole extrapolation.
  Density update method: automatic selection selected.
  Charge integration errors on the 3D integration grid will be compensated
  by explicit normalization and distribution of residual charges.
  Use the "compensate_multipole_errors" flag to change this behaviour.
  Set 'collect_eigenvectors' to be '.true.' for use_density_matrix .false.
 
  Consistency checks for the contents of geometry.in are next.
 
  Number of empty states per atom not set in control.in - providing a guess from actual geometry.
  | Total number of empty states used during s.c.f. cycle:       36
  If you use a very high smearing, use empty_states (per atom!) in control.in to increase this value.

  Structure-dependent array size parameters: 
  | Maximum number of distinct radial functions  :       14
  | Maximum number of basis functions            :      180
  | Number of Kohn-Sham states (occupied + empty):       96
------------------------------------------------------------

------------------------------------------------------------
          Preparing all fixed parts of the calculation.
------------------------------------------------------------
  Determining machine precision:
    2.225073858507201E-308
  Setting up grids for atomic and cluster calculations.

  Creating wave function, potential, and density for free atoms.

  Species: Al

  List of occupied orbitals and eigenvalues:
    n    l              occ      energy [Ha]    energy [eV]
    1    0           2.0000       -55.621123     -1513.5278
    2    0           2.0000        -3.957030      -107.6763
    3    0           2.0000        -0.272233        -7.4078
    2    1           6.0000        -2.540949       -69.1427
    3    1           1.0000        -0.083300        -2.2667


  Species: F

  List of occupied orbitals and eigenvalues:
    n    l              occ      energy [Ha]    energy [eV]
    1    0           2.0000       -24.399611      -663.9472
    2    0           2.0000        -1.098702       -29.8972
    2    1           5.0000        -0.408210       -11.1080


  Adding cutoff potential to free-atom effective potential.
  Creating fixed part of basis set: Ionic, confined, hydrogenic.
 
  Al                   ion:

  List of free ionic orbitals and eigenvalues:
    n    l      energy [Ha]    energy [eV]
    1    0       -56.418846     -1535.2349
    2    0        -4.732717      -128.7838
    3    0        -0.872690       -23.7471
    2    1        -3.317230       -90.2664


  List of ionic basis orbitals and eigenvalues:
    n    l      energy [Ha]    energy [eV]    outer radius [A]
    3    2        -0.346815        -9.4373       4.594041
    3    1        -0.631870       -17.1940       4.538221
    3    0        -0.872657       -23.7462       4.538221

 
  F                    hydrogenic:
 
  List of hydrogenic basis orbitals: 
    n    l      effective z      eigenvalue [eV]  inner max. [A]     outer max. [A]     outer radius [A]   
    2    1         1.700000        -9.7616           1.243167           1.243167           4.598524
    3    2         7.400000       -82.7828           0.642437           0.642437           3.305741
    3    0         6.800000       -69.9026           0.057798           1.022307           3.781556
 
  Creating atomic-like basis functions for current effective potential.

  Species Al                  :

  List of atomic basis orbitals and eigenvalues:
    n    l      energy [Ha]    energy [eV]    outer radius [A]
    1    0       -55.621123     -1513.5278       0.850197
    2    0        -3.957030      -107.6763       3.144911
    3    0        -0.272233        -7.4078       4.594041
    2    1        -2.540949       -69.1427       3.731966
    3    1        -0.083300        -2.2667       4.594041


  Species F                   :

  List of atomic basis orbitals and eigenvalues:
    n    l      energy [Ha]    energy [eV]    outer radius [A]
    1    0       -24.399611      -663.9472       1.258458
    2    0        -1.098702       -29.8972       4.325857
    2    1        -0.408210       -11.1080       4.487453

  Assembling full basis from fixed parts.
  | Species Al :   atomic orbital   1 s accepted.
  | Species Al :   atomic orbital   2 s accepted.
  | Species Al :    ionic orbital   3 s accepted.
  | Species Al :   atomic orbital   3 s accepted.
  | Species Al :   atomic orbital   2 p accepted.
  | Species Al :    ionic orbital   3 p accepted.
  | Species Al :   atomic orbital   3 p accepted.
  | Species Al :    ionic orbital   3 d accepted.
  | Species F :   atomic orbital   1 s accepted.
  | Species F :    hydro orbital   3 s accepted.
  | Species F :   atomic orbital   2 s accepted.
  | Species F :   atomic orbital   2 p accepted.
  | Species F :    hydro orbital   2 p accepted.
  | Species F :    hydro orbital   3 d accepted.
 
  Basis size parameters after reduction:
  | Total number of radial functions:       14
  | Total number of basis functions :      180
 
  Per-task memory consumption for arrays in subroutine allocate_ext:
  |           4.807768MB.
  Testing on-site integration grid accuracy.
  |  Species  Function  <phi|h_atom|phi> (log., in eV)  <phi|h_atom|phi> (rad., in eV)
           1        1              -1513.5277717935              -1513.5271881332
           1        2               -107.6762691836               -107.6762662489
           1        3                 -6.9467474784                 -6.9471269649
           1        4                  5.5771951849                  5.4862107220 ***
           1        5                -69.1427313144                -69.1427312731
           1        6                 -1.5197375330                 -1.5230432022
           1        7                  6.8210948310                  6.5529872240 ***
           1        8                  4.3216540965                  4.2851170187 ***
           2        9               -663.9471986398               -663.9470363334
           2       10                 16.8514011578                 16.8512525338
           2       11                -28.4490593856                -28.4490661472
           2       12                -11.1080115307                -11.1080620173
           2       13                  7.1940182175                  7.1685154137
           2       14                 44.8544281765                 44.8543763625
 * Note: Onsite integrals marked "***" above are less accurate than
 * onsite_accuracy_threshold =    0.03000 eV. Usually, this is harmless.
 * When in doubt, tighten the "radial" and/or "radial_multiplier" flags to check.

  Preparing densities etc. for the partition functions (integrals / Hartree potential).

  Preparations completed.
  max(cpu_time)          :      0.184 s.
  Wall clock time (cpu1) :      0.184 s.
------------------------------------------------------------

------------------------------------------------------------
          Begin self-consistency loop: Initialization.

          Date     :  20220517, Time     :  111443.101
------------------------------------------------------------

  Initializing index lists of integration centers etc. from given atomic structure:
  | Number of centers in hartree potential         :        12
  | Number of centers in hartree multipole         :        12
  | Number of centers in electron density summation:        12
  | Number of centers in basis integrals           :        12
  | Number of centers in integrals                 :        12
  | Number of centers in hamiltonian               :        12
  * Using 24 tasks for Scalapack Eigenvalue solver.
  Detailed listing of tasks and assigned k-points:
  (for non-periodic systems, the "k-point" denotes an internal label only)
   Task     0 k-point     1 on node-k98a-011
   Task     1 k-point     1 on node-k98a-011
   Task     2 k-point     1 on node-k98a-011
   Task     3 k-point     1 on node-k98a-011
   Task     4 k-point     1 on node-k98a-011
   Task     5 k-point     1 on node-k98a-011
   Task     6 k-point     1 on node-k98a-011
   Task     7 k-point     1 on node-k98a-011
   Task     8 k-point     1 on node-k98a-011
   Task     9 k-point     1 on node-k98a-011
   Task    10 k-point     1 on node-k98a-011
   Task    11 k-point     1 on node-k98a-011
   Task    12 k-point     1 on node-k98a-011
   Task    13 k-point     1 on node-k98a-011
   Task    14 k-point     1 on node-k98a-011
   Task    15 k-point     1 on node-k98a-011
   Task    16 k-point     1 on node-k98a-011
   Task    17 k-point     1 on node-k98a-011
   Task    18 k-point     1 on node-k98a-011
   Task    19 k-point     1 on node-k98a-011
   Task    20 k-point     1 on node-k98a-011
   Task    21 k-point     1 on node-k98a-011
   Task    22 k-point     1 on node-k98a-011
   Task    23 k-point     1 on node-k98a-011
  Tasks:    24 split into      6 X      4 BLACS grid
  Calculating block size based on n_basis =          180  max_nprow =            6  max_npcol =            4
  ScaLAPACK block size set to:           16
  Allocating        0.012 MB for ovlp
  Allocating        0.012 MB for ham
  Allocating        0.012 MB for eigenvec
  Required Scalapack workspace - INTEGER:            1  REAL:             1
  Partitioning the integration grid into batches with parallel hashing+maxmin method.
  | Number of batches:     1042
  | Maximal batch size:     197
  | Minimal batch size:      18
  | Average batch size:      88.215
  | Standard deviation of batch sizes:      25.598

  Integration load balanced across    24 MPI tasks.
  Work distribution over tasks is as follows:
  Task     0 has       3801 integration points.
  Task     1 has       3832 integration points.
  Task     2 has       3790 integration points.
  Task     3 has       3945 integration points.
  Task     4 has       3793 integration points.
  Task     5 has       3851 integration points.
  Task     6 has       3848 integration points.
  Task     7 has       3838 integration points.
  Task     8 has       3781 integration points.
  Task     9 has       3839 integration points.
  Task    10 has       3851 integration points.
  Task    11 has       3792 integration points.
  Task    12 has       3814 integration points.
  Task    13 has       3854 integration points.
  Task    14 has       3792 integration points.
  Task    15 has       3940 integration points.
  Task    16 has       3842 integration points.
  Task    17 has       3786 integration points.
  Task    18 has       3773 integration points.
  Task    19 has       3881 integration points.
  Task    20 has       3866 integration points.
  Task    21 has       3834 integration points.
  Task    22 has       3789 integration points.
  Task    23 has       3788 integration points.
  Initializing partition tables, free-atom densities, potentials, etc. across the integration grid (initialize_grid_storage).
  | initialize_grid_storage: Actual outermost partition radius vs. multipole_radius_free
  | (-- VB: in principle, multipole_radius_free should be larger, hence this output)
  | Species        1: Confinement radius =              4.999999999999999 AA, multipole_radius_free =              5.004487022111096 AA.
  | Species        1: outer_partition_radius set to              5.004487022111096 AA .
  | Species        2: Confinement radius =              4.999999999999999 AA, multipole_radius_free =              5.009370088163274 AA.
  | Species        2: outer_partition_radius set to              5.009370088163274 AA .
  | The sparse table of interatomic distances needs          1.64 kbyte instead of         1.15 kbyte of memory.
  | Using the partition_type stratmann_smoother will reduce your memory usage.
  | Net number of integration points:    91920
  | of which are non-zero points    :    85857
  Renormalizing the initial density to the exact electron count on the 3D integration grid.
  | Initial density: Formal number of electrons (from input files) :     120.0000000000
  | Integrated number of electrons on 3D grid     :     119.9999095416
  | Charge integration error                      :      -0.0000904584
  | Normalization factor for density and gradient :       1.0000007538
  Renormalizing the free-atom superposition density to the exact electron count on the 3D integration grid.
  | Formal number of electrons (from input files) :     120.0000000000
  | Integrated number of electrons on 3D grid     :     119.9999095416
  | Charge integration error                      :      -0.0000904584
  | Normalization factor for density and gradient :       1.0000007538
  Obtaining max. number of non-zero basis functions in each batch (get_n_compute_maxes).
  | Maximal number of non-zero basis functions:      159 in task     0
  | Maximal number of non-zero basis functions:      158 in task     1
  | Maximal number of non-zero basis functions:      164 in task     2
  | Maximal number of non-zero basis functions:      163 in task     3
  | Maximal number of non-zero basis functions:      163 in task     4
  | Maximal number of non-zero basis functions:      159 in task     5
  | Maximal number of non-zero basis functions:      163 in task     6
  | Maximal number of non-zero basis functions:      166 in task     7
  | Maximal number of non-zero basis functions:      159 in task     8
  | Maximal number of non-zero basis functions:      164 in task     9
  | Maximal number of non-zero basis functions:      163 in task    10
  | Maximal number of non-zero basis functions:      165 in task    11
  | Maximal number of non-zero basis functions:      160 in task    12
  | Maximal number of non-zero basis functions:      158 in task    13
  | Maximal number of non-zero basis functions:      165 in task    14
  | Maximal number of non-zero basis functions:      160 in task    15
  | Maximal number of non-zero basis functions:      165 in task    16
  | Maximal number of non-zero basis functions:      163 in task    17
  | Maximal number of non-zero basis functions:      159 in task    18
  | Maximal number of non-zero basis functions:      161 in task    19
  | Maximal number of non-zero basis functions:      161 in task    20
  | Maximal number of non-zero basis functions:      159 in task    21
  | Maximal number of non-zero basis functions:      161 in task    22
  | Maximal number of non-zero basis functions:      160 in task    23
  Selecting the method for density update.
  Loop over occupied states selected for charge density update.
  Allocating        0.132 MB for KS_eigenvector
  Integrating Hamiltonian matrix: batch-based integration.
  Time summed over all CPUs for integration: real work        0.682 s, elapsed        0.721 s
  Integrating overlap matrix.
  Time summed over all CPUs for integration: real work        0.261 s, elapsed        0.278 s
  Deallocating overlap matrix.

  Updating Kohn-Sham eigenvalues and eigenvectors using ELSI and the ELPA eigensolver.
  Overlap matrix is not singular
  | Lowest and highest eigenvalues :  0.3227E-02,  0.4864E+01
  Finished singularity check of overlap matrix
  | Time :     0.004 s
  Starting ELPA eigensolver
  Finished Cholesky decomposition
  | Time :     0.002 s
  Finished transformation to standard eigenproblem
  | Time :     0.001 s
  Finished solving standard eigenproblem
  | Time :     0.003 s
  Finished back-transformation of eigenvectors
  | Time :     0.001 s

  Obtaining occupation numbers and chemical potential using ELSI.
  | Chemical potential (Fermi level):    -7.69374535 eV
  Writing Kohn-Sham eigenvalues.

  State    Occupation    Eigenvalue [Ha]    Eigenvalue [eV]
      1       2.00000         -55.488273        -1509.91273
      2       2.00000         -55.486983        -1509.87762
      3       2.00000         -55.483097        -1509.77189
      4       2.00000         -24.380908         -663.43825
      5       2.00000         -24.380907         -663.43825
      6       2.00000         -24.363257         -662.95795
      7       2.00000         -24.360419         -662.88072
      8       2.00000         -24.354948         -662.73185
      9       2.00000         -24.354948         -662.73185
     10       2.00000         -24.338628         -662.28777
     11       2.00000         -24.327603         -661.98776
     12       2.00000         -24.326068         -661.94598
     13       2.00000          -3.955410         -107.63217
     14       2.00000          -3.953535         -107.58117
     15       2.00000          -3.947900         -107.42782
     16       2.00000          -2.548985          -69.36141
     17       2.00000          -2.548337          -69.34379
     18       2.00000          -2.548187          -69.33970
     19       2.00000          -2.545598          -69.26925
     20       2.00000          -2.545421          -69.26443
     21       2.00000          -2.542894          -69.19567
     22       2.00000          -2.540331          -69.12591
     23       2.00000          -2.539856          -69.11300
     24       2.00000          -2.538999          -69.08968
     25       2.00000          -1.216571          -33.10457
     26       2.00000          -1.202588          -32.72407
     27       2.00000          -1.181026          -32.13736
     28       2.00000          -1.176384          -32.01103
     29       2.00000          -1.175232          -31.97969
     30       2.00000          -1.167243          -31.76230
     31       2.00000          -1.146329          -31.19321
     32       2.00000          -1.130403          -30.75983
     33       2.00000          -1.127823          -30.68964
     34       2.00000          -0.570735          -15.53048
     35       2.00000          -0.565020          -15.37497
     36       2.00000          -0.545313          -14.83873
     37       2.00000          -0.536062          -14.58698
     38       2.00000          -0.525136          -14.28969
     39       2.00000          -0.520651          -14.16763
     40       2.00000          -0.510169          -13.88240
     41       2.00000          -0.507587          -13.81215
     42       2.00000          -0.501714          -13.65232
     43       2.00000          -0.497954          -13.55002
     44       2.00000          -0.492111          -13.39103
     45       2.00000          -0.484043          -13.17147
     46       2.00000          -0.481216          -13.09455
     47       2.00000          -0.478517          -13.02112
     48       2.00000          -0.476647          -12.97024
     49       2.00000          -0.472229          -12.85001
     50       2.00000          -0.471112          -12.81962
     51       2.00000          -0.470376          -12.79958
     52       2.00000          -0.468328          -12.74387
     53       2.00000          -0.464766          -12.64691
     54       2.00000          -0.459465          -12.50267
     55       2.00000          -0.448022          -12.19129
     56       2.00000          -0.447889          -12.18767
     57       2.00000          -0.438775          -11.93968
     58       2.00000          -0.436789          -11.88565
     59       2.00000          -0.433840          -11.80538
     60       2.00000          -0.432609          -11.77188
     61       0.00000          -0.140547           -3.82447
     62       0.00000          -0.110754           -3.01376
     63       0.00000          -0.065230           -1.77499
     64       0.00000          -0.028874           -0.78571
     65       0.00000          -0.024080           -0.65524
     66       0.00000          -0.010204           -0.27767
     67       0.00000          -0.001466           -0.03988
     68       0.00000           0.032209            0.87644
     69       0.00000           0.052649            1.43264
     70       0.00000           0.067537            1.83777
     71       0.00000           0.082563            2.24665
     72       0.00000           0.106731            2.90429
     73       0.00000           0.141772            3.85782
     74       0.00000           0.161095            4.38362
     75       0.00000           0.172142            4.68421
     76       0.00000           0.172315            4.68892
     77       0.00000           0.176538            4.80384
     78       0.00000           0.179682            4.88939
     79       0.00000           0.191113            5.20045
     80       0.00000           0.203136            5.52761
     81       0.00000           0.204191            5.55632
     82       0.00000           0.219208            5.96497
     83       0.00000           0.227310            6.18541
     84       0.00000           0.229497            6.24494
     85       0.00000           0.254520            6.92585
     86       0.00000           0.255633            6.95613
     87       0.00000           0.269496            7.33335
     88       0.00000           0.272452            7.41381
     89       0.00000           0.278922            7.58986
     90       0.00000           0.297468            8.09451
     91       0.00000           0.303065            8.24683
     92       0.00000           0.312699            8.50898
     93       0.00000           0.344353            9.37031
     94       0.00000           0.346962            9.44133
     95       0.00000           0.370645           10.08576
     96       0.00000           0.371871           10.11913

  Highest occupied state (VBM) at    -11.77188065 eV
  | Occupation number:      2.00000000

  Lowest unoccupied state (CBM) at    -3.82446884 eV
  | Occupation number:      0.00000000

  Overall HOMO-LUMO gap:      7.94741181 eV.
  Calculating total energy contributions from superposition of free atom densities.

  Total energy components:
  | Sum of eigenvalues            :        -888.12432924 Ha      -24167.09260679 eV
  | XC energy correction          :        -144.37097583 Ha       -3928.53413406 eV
  | XC potential correction       :         187.98094084 Ha        5115.22166000 eV
  | Free-atom electrostatic energy:        -780.81513056 Ha      -21247.06074106 eV
  | Hartree energy correction     :           0.00000000 Ha           0.00000000 eV
  | Entropy correction            :           0.00000000 Ha           0.00000000 eV
  | ---------------------------
  | Total energy                  :       -1625.32949479 Ha      -44227.46582190 eV
  | Total energy, T -> 0          :       -1625.32949479 Ha      -44227.46582190 eV  <-- do not rely on this value for anything but (periodic) metals
  | Electronic free energy        :       -1625.32949479 Ha      -44227.46582190 eV

  Derived energy quantities:
  | Kinetic energy                :        1627.75549057 Ha       44293.48052583 eV
  | Electrostatic energy          :       -3108.71400952 Ha      -84592.41221368 eV
  | Energy correction for multipole
  | error in Hartree potential    :           0.00000000 Ha           0.00000000 eV
  | Sum of eigenvalues per atom                           :       -2013.92438390 eV
  | Total energy (T->0) per atom                          :       -3685.62215183 eV  <-- do not rely on this value for anything but (periodic) metals
  | Electronic free energy per atom                       :       -3685.62215183 eV
  Initialize hartree_potential_storage
  Max. number of atoms included in rho_multipole:           12

  End scf initialization - timings             :  max(cpu_time)    wall_clock(cpu1)
  | Time for scf. initialization                :        0.110 s           0.111 s
  | Boundary condition initialization           :        0.000 s           0.000 s
  | Integration                                 :        0.043 s           0.043 s
  | Solution of K.-S. eqns.                     :        0.012 s           0.012 s
  | Grid partitioning                           :        0.034 s           0.033 s
  | Preloading free-atom quantities on grid     :        0.014 s           0.015 s
  | Free-atom superposition energy              :        0.005 s           0.004 s
  | Total energy evaluation                     :        0.000 s           0.001 s

  Partial memory accounting:
  | Current value for overall tracked memory usage:
  |   Minimum:        0.273 MB (on task 23)
  |   Maximum:        0.292 MB (on task  0)
  |   Average:        0.287 MB
  | Peak value for overall tracked memory usage:
  |   Minimum:        1.316 MB (on task 21 after allocating wave)
  |   Maximum:        1.371 MB (on task 14 after allocating wave)
  |   Average:        1.343 MB
  | Largest tracked array allocation so far:
  |   Minimum:        0.237 MB (H_times_psi on task  1)
  |   Maximum:        0.448 MB (all_coords on task 14)
  |   Average:        0.264 MB
  Note:  These values currently only include a subset of arrays which are explicitly tracked.
  The "true" memory usage will be greater.
------------------------------------------------------------
  Evaluating new KS density.
  Integration grid: deviation in total charge (<rho> - N_e) =   5.684342E-14

  Time for density update prior                :  max(cpu_time)    wall_clock(cpu1)
  | self-consistency iterative process          :        0.027 s           0.028 s

------------------------------------------------------------
          Begin self-consistency iteration #    1

  Date     :  20220517, Time     :  111443.240
------------------------------------------------------------
  Pulay mixing of updated and previous charge densities.
  Renormalizing the density to the exact electron count on the 3D integration grid.
  | Formal number of electrons (from input files) :     120.0000000000
  | Integrated number of electrons on 3D grid     :     120.0000000000
  | Charge integration error                      :       0.0000000000
  | Normalization factor for density and gradient :       1.0000000000

  Evaluating partitioned Hartree potential by multipole expansion.
  | Original multipole sum: apparent total charge =  -0.231219E-13
  | Sum of charges compensated after spline to logarithmic grids =   0.101534E-03
  | Analytical far-field extrapolation by fixed multipoles:
  | Hartree multipole sum: apparent total charge =  -0.229251E-13
  Summing up the Hartree potential.
  Time summed over all CPUs for potential: real work        0.383 s, elapsed        0.408 s
  | RMS charge density error from multipole expansion :   0.113558E-01

  Integrating Hamiltonian matrix: batch-based integration.
  Time summed over all CPUs for integration: real work        0.637 s, elapsed        0.670 s

  Updating Kohn-Sham eigenvalues and eigenvectors using ELSI and the ELPA eigensolver.
  Starting ELPA eigensolver
  Finished transformation to standard eigenproblem
  | Time :     0.000 s
  Finished solving standard eigenproblem
  | Time :     0.003 s
  Finished back-transformation of eigenvectors
  | Time :     0.000 s

  Obtaining occupation numbers and chemical potential using ELSI.
  | Chemical potential (Fermi level):    -4.72474035 eV
  Writing Kohn-Sham eigenvalues.

  State    Occupation    Eigenvalue [Ha]    Eigenvalue [eV]
      1       2.00000         -55.655921        -1514.47468
      2       2.00000         -55.649622        -1514.30327
      3       2.00000         -55.621970        -1513.55080
      4       2.00000         -24.260054         -660.14966
      5       2.00000         -24.260045         -660.14942
      6       2.00000         -24.187397         -658.17257
      7       2.00000         -24.187396         -658.17254
      8       2.00000         -24.123179         -656.42509
      9       2.00000         -24.121916         -656.39074
     10       2.00000         -24.065890         -654.86619
     11       2.00000         -24.023118         -653.70230
     12       2.00000         -24.022251         -653.67871
     13       2.00000          -4.099587         -111.55545
     14       2.00000          -4.094547         -111.41830
     15       2.00000          -4.060820         -110.50053
     16       2.00000          -2.693181          -73.28520
     17       2.00000          -2.692308          -73.26143
     18       2.00000          -2.691083          -73.22810
     19       2.00000          -2.689010          -73.17170
     20       2.00000          -2.686543          -73.10456
     21       2.00000          -2.685983          -73.08933
     22       2.00000          -2.654363          -72.22890
     23       2.00000          -2.653930          -72.21711
     24       2.00000          -2.652142          -72.16847
     25       2.00000          -1.201636          -32.69819
     26       2.00000          -1.182964          -32.19008
     27       2.00000          -1.118430          -30.43404
     28       2.00000          -1.105425          -30.08014
     29       2.00000          -1.082545          -29.45756
     30       2.00000          -1.074922          -29.25012
     31       2.00000          -1.012029          -27.53871
     32       2.00000          -0.966868          -26.30983
     33       2.00000          -0.964060          -26.23340
     34       2.00000          -0.566678          -15.42010
     35       2.00000          -0.558308          -15.19233
     36       2.00000          -0.533021          -14.50424
     37       2.00000          -0.502665          -13.67820
     38       2.00000          -0.492974          -13.41450
     39       2.00000          -0.482800          -13.13765
     40       2.00000          -0.474173          -12.90292
     41       2.00000          -0.463267          -12.60615
     42       2.00000          -0.445198          -12.11445
     43       2.00000          -0.444034          -12.08279
     44       2.00000          -0.424369          -11.54768
     45       2.00000          -0.417256          -11.35411
     46       2.00000          -0.409219          -11.13542
     47       2.00000          -0.403200          -10.97164
     48       2.00000          -0.389377          -10.59548
     49       2.00000          -0.387057          -10.53235
     50       2.00000          -0.375953          -10.23020
     51       2.00000          -0.372860          -10.14605
     52       2.00000          -0.371827          -10.11791
     53       2.00000          -0.347770           -9.46329
     54       2.00000          -0.322551           -8.77705
     55       2.00000          -0.320513           -8.72160
     56       2.00000          -0.318136           -8.65693
     57       2.00000          -0.286789           -7.80393
     58       2.00000          -0.284050           -7.72939
     59       2.00000          -0.277223           -7.54362
     60       2.00000          -0.274306           -7.46426
     61       0.00000          -0.156488           -4.25825
     62       0.00000          -0.109564           -2.98138
     63       0.00000          -0.062725           -1.70684
     64       0.00000          -0.051076           -1.38986
     65       0.00000          -0.047430           -1.29064
     66       0.00000          -0.022818           -0.62090
     67       0.00000           0.005518            0.15015
     68       0.00000           0.022475            0.61157
     69       0.00000           0.045141            1.22834
     70       0.00000           0.066347            1.80539
     71       0.00000           0.068447            1.86255
     72       0.00000           0.081900            2.22860
     73       0.00000           0.122423            3.33130
     74       0.00000           0.151279            4.11650
     75       0.00000           0.171452            4.66546
     76       0.00000           0.174187            4.73988
     77       0.00000           0.178679            4.86211
     78       0.00000           0.180169            4.90264
     79       0.00000           0.188497            5.12927
     80       0.00000           0.208938            5.68550
     81       0.00000           0.209122            5.69049
     82       0.00000           0.213529            5.81043
     83       0.00000           0.221474            6.02661
     84       0.00000           0.221668            6.03188
     85       0.00000           0.229140            6.23523
     86       0.00000           0.245792            6.68833
     87       0.00000           0.254830            6.93427
     88       0.00000           0.261294            7.11016
     89       0.00000           0.271545            7.38913
     90       0.00000           0.292201            7.95120
     91       0.00000           0.296962            8.08076
     92       0.00000           0.312541            8.50468
     93       0.00000           0.337049            9.17157
     94       0.00000           0.360244            9.80275
     95       0.00000           0.361983            9.85006
     96       0.00000           0.373532           10.16431

  Highest occupied state (VBM) at     -7.46425922 eV
  | Occupation number:      2.00000000

  Lowest unoccupied state (CBM) at    -4.25824740 eV
  | Occupation number:      0.00000000

  Overall HOMO-LUMO gap:      3.20601182 eV.

  Total energy components:
  | Sum of eigenvalues            :        -882.37342966 Ha      -24010.60266695 eV
  | XC energy correction          :        -145.74624099 Ha       -3965.95700303 eV
  | XC potential correction       :         189.78891752 Ha        5164.41920860 eV
  | Free-atom electrostatic energy:        -780.81513056 Ha      -21247.06074106 eV
  | Hartree energy correction     :          -5.96131347 Ha        -162.21559291 eV
  | Entropy correction            :           0.00000000 Ha           0.00000000 eV
  | ---------------------------
  | Total energy                  :       -1625.10719715 Ha      -44221.41679535 eV
  | Total energy, T -> 0          :       -1625.10719715 Ha      -44221.41679535 eV  <-- do not rely on this value for anything but (periodic) metals
  | Electronic free energy        :       -1625.10719715 Ha      -44221.41679535 eV

  Derived energy quantities:
  | Kinetic energy                :        1634.50536781 Ha       44477.15403067 eV
  | Electrostatic energy          :       -3113.86632396 Ha      -84732.61382299 eV
  | Energy correction for multipole
  | error in Hartree potential    :           0.04574522 Ha           1.24479076 eV
  | Sum of eigenvalues per atom                           :       -2000.88355558 eV
  | Total energy (T->0) per atom                          :       -3685.11806628 eV  <-- do not rely on this value for anything but (periodic) metals
  | Electronic free energy per atom                       :       -3685.11806628 eV
  Evaluating new KS density.
  Integration grid: deviation in total charge (<rho> - N_e) =   0.000000E+00

  Self-consistency convergence accuracy:
  | Change of charge density      :  0.6096E+00
  | Change of sum of eigenvalues  :  0.1565E+03 eV
  | Change of total energy        :  0.6049E+01 eV


------------------------------------------------------------
  End self-consistency iteration #     1       :  max(cpu_time)    wall_clock(cpu1)
  | Time for this iteration                     :        0.079 s           0.079 s
  | Charge density update                       :        0.026 s           0.027 s
  | Density mixing                              :        0.001 s           0.000 s
  | Hartree multipole update                    :        0.001 s           0.002 s
  | Hartree multipole summation                 :        0.017 s           0.017 s
  | Integration                                 :        0.028 s           0.028 s
  | Solution of K.-S. eqns.                     :        0.004 s           0.005 s
  | Total energy evaluation                     :        0.000 s           0.000 s

  Partial memory accounting:
  | Current value for overall tracked memory usage:
  |   Minimum:        0.273 MB (on task 23)
  |   Maximum:        0.292 MB (on task  0)
  |   Average:        0.287 MB
  | Peak value for overall tracked memory usage:
  |   Minimum:        1.316 MB (on task 21 after allocating wave)
  |   Maximum:        1.371 MB (on task 14 after allocating wave)
  |   Average:        1.343 MB
  | Largest tracked array allocation so far:
  |   Minimum:        0.712 MB (gradient_basis_wave on task  1)
  |   Maximum:        0.748 MB (gradient_basis_wave on task  7)
  |   Average:        0.729 MB
  Note:  These values currently only include a subset of arrays which are explicitly tracked.
  The "true" memory usage will be greater.
------------------------------------------------------------

------------------------------------------------------------
          Begin self-consistency iteration #    2

  Date     :  20220517, Time     :  111443.324
------------------------------------------------------------
  Pulay mixing of updated and previous charge densities.
  Renormalizing the density to the exact electron count on the 3D integration grid.
  | Formal number of electrons (from input files) :     120.0000000000
  | Integrated number of electrons on 3D grid     :     120.0000000000
  | Charge integration error                      :       0.0000000000
  | Normalization factor for density and gradient :       1.0000000000

  Evaluating partitioned Hartree potential by multipole expansion.
  | Original multipole sum: apparent total charge =   0.351748E-14
  | Sum of charges compensated after spline to logarithmic grids =   0.622292E-04
  | Analytical far-field extrapolation by fixed multipoles:
  | Hartree multipole sum: apparent total charge =   0.354207E-14
  Summing up the Hartree potential.
  Time summed over all CPUs for potential: real work        0.381 s, elapsed        0.407 s
  | RMS charge density error from multipole expansion :   0.133419E-01

  Integrating Hamiltonian matrix: batch-based integration.
  Time summed over all CPUs for integration: real work        0.636 s, elapsed        0.670 s

  Updating Kohn-Sham eigenvalues and eigenvectors using ELSI and the ELPA eigensolver.
  Starting ELPA eigensolver
  Finished transformation to standard eigenproblem
  | Time :     0.000 s
  Finished solving standard eigenproblem
  | Time :     0.003 s
  Finished back-transformation of eigenvectors
  | Time :     0.000 s

  Obtaining occupation numbers and chemical potential using ELSI.
  | Chemical potential (Fermi level):    -7.91657641 eV
  Highest occupied state (VBM) at     -8.75393386 eV
  | Occupation number:      2.00000000

  Lowest unoccupied state (CBM) at    -4.49309283 eV
  | Occupation number:      0.00000000

  Overall HOMO-LUMO gap:      4.26084103 eV.

  Checking to see if s.c.f. parameters should be adjusted.

  Total energy components:
  | Sum of eigenvalues            :        -885.53044170 Ha      -24096.50933568 eV
  | XC energy correction          :        -145.24752997 Ha       -3952.38638582 eV
  | XC potential correction       :         189.13274866 Ha        5146.56394530 eV
  | Free-atom electrostatic energy:        -780.81513056 Ha      -21247.06074106 eV
  | Hartree energy correction     :          -2.58035168 Ha         -70.21494167 eV
  | Entropy correction            :           0.00000000 Ha           0.00000000 eV
  | ---------------------------
  | Total energy                  :       -1625.04070526 Ha      -44219.60745893 eV
  | Total energy, T -> 0          :       -1625.04070526 Ha      -44219.60745893 eV  <-- do not rely on this value for anything but (periodic) metals
  | Electronic free energy        :       -1625.04070526 Ha      -44219.60745893 eV

  Derived energy quantities:
  | Kinetic energy                :        1630.59890412 Ha       44370.85374533 eV
  | Electrostatic energy          :       -3110.39207940 Ha      -84638.07481844 eV
  | Energy correction for multipole
  | error in Hartree potential    :           0.05003877 Ha           1.36162411 eV
  | Sum of eigenvalues per atom                           :       -2008.04244464 eV
  | Total energy (T->0) per atom                          :       -3684.96728824 eV  <-- do not rely on this value for anything but (periodic) metals
  | Electronic free energy per atom                       :       -3684.96728824 eV
  Evaluating new KS density.
  Integration grid: deviation in total charge (<rho> - N_e) =   1.421085E-14

  Self-consistency convergence accuracy:
  | Change of charge density      :  0.4827E+00
  | Change of sum of eigenvalues  : -0.8591E+02 eV
  | Change of total energy        :  0.1809E+01 eV


------------------------------------------------------------
  End self-consistency iteration #     2       :  max(cpu_time)    wall_clock(cpu1)
  | Time for this iteration                     :        0.082 s           0.079 s
  | Charge density update                       :        0.026 s           0.026 s
  | Density mixing                              :        0.004 s           0.002 s
  | Hartree multipole update                    :        0.001 s           0.001 s
  | Hartree multipole summation                 :        0.017 s           0.017 s
  | Integration                                 :        0.028 s           0.028 s
  | Solution of K.-S. eqns.                     :        0.004 s           0.005 s
  | Total energy evaluation                     :        0.000 s           0.000 s

  Partial memory accounting:
  | Current value for overall tracked memory usage:
  |   Minimum:        0.274 MB (on task 23)
  |   Maximum:        0.293 MB (on task  0)
  |   Average:        0.288 MB
  | Peak value for overall tracked memory usage:
  |   Minimum:        1.316 MB (on task 21 after allocating wave)
  |   Maximum:        1.371 MB (on task 14 after allocating wave)
  |   Average:        1.343 MB
  | Largest tracked array allocation so far:
  |   Minimum:        0.712 MB (gradient_basis_wave on task  1)
  |   Maximum:        0.748 MB (gradient_basis_wave on task  7)
  |   Average:        0.729 MB
  Note:  These values currently only include a subset of arrays which are explicitly tracked.
  The "true" memory usage will be greater.
------------------------------------------------------------

------------------------------------------------------------
          Begin self-consistency iteration #    3

  Date     :  20220517, Time     :  111443.409
------------------------------------------------------------
  Pulay mixing of updated and previous charge densities.
  Renormalizing the density to the exact electron count on the 3D integration grid.
  | Formal number of electrons (from input files) :     120.0000000000
  | Integrated number of electrons on 3D grid     :     120.0000000000
  | Charge integration error                      :      -0.0000000000
  | Normalization factor for density and gradient :       1.0000000000

  Evaluating partitioned Hartree potential by multipole expansion.
  | Original multipole sum: apparent total charge =  -0.339941E-13
  | Sum of charges compensated after spline to logarithmic grids =   0.792267E-04
  | Analytical far-field extrapolation by fixed multipoles:
  | Hartree multipole sum: apparent total charge =  -0.331332E-13
  Summing up the Hartree potential.
  Time summed over all CPUs for potential: real work        0.381 s, elapsed        0.407 s
  | RMS charge density error from multipole expansion :   0.179699E-01

  Integrating Hamiltonian matrix: batch-based integration.
  Time summed over all CPUs for integration: real work        0.636 s, elapsed        0.670 s

  Updating Kohn-Sham eigenvalues and eigenvectors using ELSI and the ELPA eigensolver.
  Starting ELPA eigensolver
  Finished transformation to standard eigenproblem
  | Time :     0.000 s
  Finished solving standard eigenproblem
  | Time :     0.003 s
  Finished back-transformation of eigenvectors
  | Time :     0.000 s

  Obtaining occupation numbers and chemical potential using ELSI.
  | Chemical potential (Fermi level):    -7.91474252 eV
  Highest occupied state (VBM) at     -8.07936497 eV
  | Occupation number:      2.00000000

  Lowest unoccupied state (CBM) at    -4.76551482 eV
  | Occupation number:      0.00000000

  Overall HOMO-LUMO gap:      3.31385015 eV.

  Total energy components:
  | Sum of eigenvalues            :        -886.43096490 Ha      -24121.01381866 eV
  | XC energy correction          :        -145.22046488 Ha       -3951.64990718 eV
  | XC potential correction       :         189.09601952 Ha        5145.56449470 eV
  | Free-atom electrostatic energy:        -780.81513056 Ha      -21247.06074106 eV
  | Hartree energy correction     :          -1.66891248 Ha         -45.41341924 eV
  | Entropy correction            :          -0.00000000 Ha          -0.00000000 eV
  | ---------------------------
  | Total energy                  :       -1625.03945330 Ha      -44219.57339143 eV
  | Total energy, T -> 0          :       -1625.03945330 Ha      -44219.57339143 eV  <-- do not rely on this value for anything but (periodic) metals
  | Electronic free energy        :       -1625.03945330 Ha      -44219.57339143 eV

  Derived energy quantities:
  | Kinetic energy                :        1629.05508413 Ha       44328.84426587 eV
  | Electrostatic energy          :       -3108.87407255 Ha      -84596.76775012 eV
  | Energy correction for multipole
  | error in Hartree potential    :           0.06527630 Ha           1.77625854 eV
  | Sum of eigenvalues per atom                           :       -2010.08448489 eV
  | Total energy (T->0) per atom                          :       -3684.96444929 eV  <-- do not rely on this value for anything but (periodic) metals
  | Electronic free energy per atom                       :       -3684.96444929 eV
  Evaluating new KS density.
  Integration grid: deviation in total charge (<rho> - N_e) =   0.000000E+00

  Self-consistency convergence accuracy:
  | Change of charge density      :  0.1239E+00
  | Change of sum of eigenvalues  : -0.2450E+02 eV
  | Change of total energy        :  0.3407E-01 eV


------------------------------------------------------------
  End self-consistency iteration #     3       :  max(cpu_time)    wall_clock(cpu1)
  | Time for this iteration                     :        0.081 s           0.079 s
  | Charge density update                       :        0.026 s           0.026 s
  | Density mixing                              :        0.004 s           0.002 s
  | Hartree multipole update                    :        0.001 s           0.001 s
  | Hartree multipole summation                 :        0.017 s           0.017 s
  | Integration                                 :        0.028 s           0.029 s
  | Solution of K.-S. eqns.                     :        0.004 s           0.004 s
  | Total energy evaluation                     :        0.000 s           0.000 s

  Partial memory accounting:
  | Current value for overall tracked memory usage:
  |   Minimum:        0.274 MB (on task 23)
  |   Maximum:        0.293 MB (on task  0)
  |   Average:        0.288 MB
  | Peak value for overall tracked memory usage:
  |   Minimum:        1.316 MB (on task 21 after allocating wave)
  |   Maximum:        1.371 MB (on task 14 after allocating wave)
  |   Average:        1.343 MB
  | Largest tracked array allocation so far:
  |   Minimum:        0.712 MB (gradient_basis_wave on task  1)
  |   Maximum:        0.748 MB (gradient_basis_wave on task  7)
  |   Average:        0.729 MB
  Note:  These values currently only include a subset of arrays which are explicitly tracked.
  The "true" memory usage will be greater.
------------------------------------------------------------

------------------------------------------------------------
          Begin self-consistency iteration #    4

  Date     :  20220517, Time     :  111443.494
------------------------------------------------------------
  Pulay mixing of updated and previous charge densities.
  Renormalizing the density to the exact electron count on the 3D integration grid.
  | Formal number of electrons (from input files) :     120.0000000000
  | Integrated number of electrons on 3D grid     :     120.0000000000
  | Charge integration error                      :       0.0000000000
  | Normalization factor for density and gradient :       1.0000000000

  Evaluating partitioned Hartree potential by multipole expansion.
  | Original multipole sum: apparent total charge =   0.955130E-13
  | Sum of charges compensated after spline to logarithmic grids =   0.862768E-04
  | Analytical far-field extrapolation by fixed multipoles:
  | Hartree multipole sum: apparent total charge =   0.959558E-13
  Summing up the Hartree potential.
  Time summed over all CPUs for potential: real work        0.381 s, elapsed        0.407 s
  | RMS charge density error from multipole expansion :   0.204484E-01

  Integrating Hamiltonian matrix: batch-based integration.
  Time summed over all CPUs for integration: real work        0.636 s, elapsed        0.669 s

  Updating Kohn-Sham eigenvalues and eigenvectors using ELSI and the ELPA eigensolver.
  Starting ELPA eigensolver
  Finished transformation to standard eigenproblem
  | Time :     0.000 s
  Finished solving standard eigenproblem
  | Time :     0.003 s
  Finished back-transformation of eigenvectors
  | Time :     0.000 s

  Obtaining occupation numbers and chemical potential using ELSI.
  | Chemical potential (Fermi level):    -7.92951941 eV
  Highest occupied state (VBM) at     -8.22473203 eV
  | Occupation number:      2.00000000

  Lowest unoccupied state (CBM) at    -4.77210356 eV
  | Occupation number:      0.00000000

  Overall HOMO-LUMO gap:      3.45262846 eV.

  Total energy components:
  | Sum of eigenvalues            :        -886.64464211 Ha      -24126.82827137 eV
  | XC energy correction          :        -145.20147132 Ha       -3951.13306615 eV
  | XC potential correction       :         189.07025865 Ha        5144.86350556 eV
  | Free-atom electrostatic energy:        -780.81513056 Ha      -21247.06074106 eV
  | Hartree energy correction     :          -1.44613681 Ha         -39.35138472 eV
  | Entropy correction            :           0.00000000 Ha           0.00000000 eV
  | ---------------------------
  | Total energy                  :       -1625.03712216 Ha      -44219.50995774 eV
  | Total energy, T -> 0          :       -1625.03712216 Ha      -44219.50995774 eV  <-- do not rely on this value for anything but (periodic) metals
  | Electronic free energy        :       -1625.03712216 Ha      -44219.50995774 eV

  Derived energy quantities:
  | Kinetic energy                :        1628.26965211 Ha       44307.47157332 eV
  | Electrostatic energy          :       -3108.10530294 Ha      -84575.84846491 eV
  | Energy correction for multipole
  | error in Hartree potential    :           0.07308758 Ha           1.98881437 eV
  | Sum of eigenvalues per atom                           :       -2010.56902261 eV
  | Total energy (T->0) per atom                          :       -3684.95916314 eV  <-- do not rely on this value for anything but (periodic) metals
  | Electronic free energy per atom                       :       -3684.95916314 eV
  Evaluating new KS density.
  Integration grid: deviation in total charge (<rho> - N_e) =  -1.421085E-14

  Self-consistency convergence accuracy:
  | Change of charge density      :  0.9063E-01
  | Change of sum of eigenvalues  : -0.5814E+01 eV
  | Change of total energy        :  0.6343E-01 eV


------------------------------------------------------------
  End self-consistency iteration #     4       :  max(cpu_time)    wall_clock(cpu1)
  | Time for this iteration                     :        0.081 s           0.079 s
  | Charge density update                       :        0.026 s           0.026 s
  | Density mixing                              :        0.004 s           0.002 s
  | Hartree multipole update                    :        0.001 s           0.001 s
  | Hartree multipole summation                 :        0.017 s           0.017 s
  | Integration                                 :        0.028 s           0.028 s
  | Solution of K.-S. eqns.                     :        0.004 s           0.005 s
  | Total energy evaluation                     :        0.000 s           0.000 s

  Partial memory accounting:
  | Current value for overall tracked memory usage:
  |   Minimum:        0.274 MB (on task 23)
  |   Maximum:        0.293 MB (on task  0)
  |   Average:        0.288 MB
  | Peak value for overall tracked memory usage:
  |   Minimum:        1.316 MB (on task 21 after allocating wave)
  |   Maximum:        1.371 MB (on task 14 after allocating wave)
  |   Average:        1.343 MB
  | Largest tracked array allocation so far:
  |   Minimum:        0.712 MB (gradient_basis_wave on task  1)
  |   Maximum:        0.748 MB (gradient_basis_wave on task  7)
  |   Average:        0.729 MB
  Note:  These values currently only include a subset of arrays which are explicitly tracked.
  The "true" memory usage will be greater.
------------------------------------------------------------

------------------------------------------------------------
          Begin self-consistency iteration #    5

  Date     :  20220517, Time     :  111443.579
------------------------------------------------------------
  Pulay mixing of updated and previous charge densities.
  Renormalizing the density to the exact electron count on the 3D integration grid.
  | Formal number of electrons (from input files) :     120.0000000000
  | Integrated number of electrons on 3D grid     :     120.0000000000
  | Charge integration error                      :      -0.0000000000
  | Normalization factor for density and gradient :       1.0000000000

  Evaluating partitioned Hartree potential by multipole expansion.
  | Original multipole sum: apparent total charge =  -0.983418E-13
  | Sum of charges compensated after spline to logarithmic grids =   0.868220E-04
  | Analytical far-field extrapolation by fixed multipoles:
  | Hartree multipole sum: apparent total charge =  -0.952916E-13
  Summing up the Hartree potential.
  Time summed over all CPUs for potential: real work        0.381 s, elapsed        0.407 s
  | RMS charge density error from multipole expansion :   0.202860E-01

  Integrating Hamiltonian matrix: batch-based integration.
  Time summed over all CPUs for integration: real work        0.636 s, elapsed        0.673 s

  Updating Kohn-Sham eigenvalues and eigenvectors using ELSI and the ELPA eigensolver.
  Starting ELPA eigensolver
  Finished transformation to standard eigenproblem
  | Time :     0.001 s
  Finished solving standard eigenproblem
  | Time :     0.003 s
  Finished back-transformation of eigenvectors
  | Time :     0.000 s

  Obtaining occupation numbers and chemical potential using ELSI.
  | Chemical potential (Fermi level):    -7.91549739 eV
  Highest occupied state (VBM) at     -8.28631353 eV
  | Occupation number:      2.00000000

  Lowest unoccupied state (CBM) at    -4.71590844 eV
  | Occupation number:      0.00000000

  Overall HOMO-LUMO gap:      3.57040509 eV.

  Total energy components:
  | Sum of eigenvalues            :        -886.50329516 Ha      -24122.98202504 eV
  | XC energy correction          :        -145.19629136 Ha       -3950.99211212 eV
  | XC potential correction       :         189.06358716 Ha        5144.68196514 eV
  | Free-atom electrostatic energy:        -780.81513056 Ha      -21247.06074106 eV
  | Hartree energy correction     :          -1.58582766 Ha         -43.15256630 eV
  | Entropy correction            :           0.00000000 Ha           0.00000000 eV
[...]
   Total forces(   7)            :  0.156870E+01 -0.135977E+01  0.140356E-01
  atom #    8
   Hellmann-Feynman              :  0.202609E+01  0.217266E+01 -0.959906E+00
   Ionic forces                  :  0.000000E+00  0.000000E+00  0.000000E+00
   Multipole                     :  0.465607E+00  0.445132E+00 -0.101475E+00
   Hartree pot. SCF incomplete   : -0.114927E-05  0.677261E-06 -0.363783E-05
   Pulay + GGA                   : -0.480780E+01 -0.506854E+01  0.208648E+01
   ----------------------------------------------------------------
   Total forces(   8)            : -0.231610E+01 -0.245075E+01  0.102510E+01
  atom #    9
   Hellmann-Feynman              :  0.172459E+01 -0.813184E+00  0.165405E+01
   Ionic forces                  :  0.000000E+00  0.000000E+00  0.000000E+00
   Multipole                     :  0.395120E+00 -0.255853E+00 -0.513018E-01
   Hartree pot. SCF incomplete   : -0.290063E-05  0.956121E-06 -0.894943E-05
   Pulay + GGA                   : -0.293584E+01  0.248933E+01 -0.328424E+00
   ----------------------------------------------------------------
   Total forces(   9)            : -0.816136E+00  0.142029E+01  0.127431E+01
  atom #   10
   Hellmann-Feynman              : -0.202963E+01  0.241880E+00  0.344136E+01
   Ionic forces                  :  0.000000E+00  0.000000E+00  0.000000E+00
   Multipole                     : -0.414203E+00  0.517663E+00  0.339381E+00
   Hartree pot. SCF incomplete   : -0.101806E-05  0.113104E-05 -0.160139E-05
   Pulay + GGA                   :  0.262719E+01 -0.207021E+01 -0.151830E+01
   ----------------------------------------------------------------
   Total forces(  10)            :  0.183356E+00 -0.131067E+01  0.226244E+01
  atom #   11
   Hellmann-Feynman              :  0.347502E+01  0.173201E+01  0.275578E+01
   Ionic forces                  :  0.000000E+00  0.000000E+00  0.000000E+00
   Multipole                     :  0.798791E+00  0.416520E+00  0.591784E+00
   Hartree pot. SCF incomplete   :  0.447846E-07  0.507194E-06 -0.104285E-05
   Pulay + GGA                   : -0.501189E+01 -0.242780E+01 -0.412559E+01
   ----------------------------------------------------------------
   Total forces(  11)            : -0.738077E+00 -0.279269E+00 -0.778032E+00
  atom #   12
   Hellmann-Feynman              : -0.373102E+01 -0.346163E+01  0.576008E+00
   Ionic forces                  :  0.000000E+00  0.000000E+00  0.000000E+00
   Multipole                     : -0.801971E+00 -0.723123E+00  0.777168E-01
   Hartree pot. SCF incomplete   : -0.844356E-07  0.550029E-06 -0.137837E-05
   Pulay + GGA                   :  0.497669E+01  0.465154E+01 -0.848331E+00
   ----------------------------------------------------------------
   Total forces(  12)            :  0.443695E+00  0.466783E+00 -0.194608E+00


  Self-consistency convergence accuracy:
  | Change of charge density      :  0.4911E-06
  | Change of sum of eigenvalues  : -0.6193E-04 eV
  | Change of total energy        : -0.6051E-08 eV
  | Change of forces              :  0.2778E-05 eV/A

  Writing Kohn-Sham eigenvalues.

  State    Occupation    Eigenvalue [Ha]    Eigenvalue [eV]
      1       2.00000         -55.644631        -1514.16744
      2       2.00000         -55.633920        -1513.87599
      3       2.00000         -55.589963        -1512.67986
      4       2.00000         -24.337511         -662.25738
      5       2.00000         -24.337509         -662.25732
      6       2.00000         -24.269654         -660.41090
      7       2.00000         -24.269653         -660.41085
      8       2.00000         -24.260555         -660.16329
      9       2.00000         -24.259602         -660.13736
     10       2.00000         -24.207508         -658.71980
     11       2.00000         -24.166520         -657.60447
     12       2.00000         -24.164244         -657.54252
     13       2.00000          -4.104850         -111.69864
     14       2.00000          -4.093543         -111.39096
     15       2.00000          -4.042078         -109.99055
     16       2.00000          -2.698368          -73.42634
     17       2.00000          -2.697242          -73.39568
     18       2.00000          -2.692948          -73.27885
     19       2.00000          -2.686867          -73.11338
     20       2.00000          -2.684706          -73.05455
     21       2.00000          -2.683298          -73.01625
     22       2.00000          -2.635275          -71.70948
     23       2.00000          -2.634252          -71.68164
     24       2.00000          -2.631504          -71.60687
     25       2.00000          -1.229719          -33.46236
     26       2.00000          -1.212221          -32.98622
     27       2.00000          -1.137661          -30.95732
     28       2.00000          -1.130426          -30.76046
     29       2.00000          -1.125684          -30.63141
     30       2.00000          -1.124181          -30.59053
     31       2.00000          -1.052711          -28.64572
     32       2.00000          -1.000028          -27.21216
     33       2.00000          -0.997717          -27.14926
     34       2.00000          -0.593520          -16.15049
     35       2.00000          -0.584579          -15.90720
     36       2.00000          -0.561092          -15.26809
     37       2.00000          -0.528366          -14.37756
     38       2.00000          -0.513274          -13.96690
     39       2.00000          -0.508022          -13.82398
     40       2.00000          -0.503275          -13.69481
     41       2.00000          -0.494313          -13.45094
     42       2.00000          -0.476504          -12.96634
     43       2.00000          -0.466245          -12.68718
     44       2.00000          -0.466089          -12.68294
     45       2.00000          -0.440422          -11.98450
     46       2.00000          -0.434253          -11.81661
     47       2.00000          -0.433342          -11.79183
     48       2.00000          -0.430827          -11.72341
     49       2.00000          -0.424394          -11.54836
     50       2.00000          -0.421539          -11.47065
     51       2.00000          -0.420293          -11.43675
     52       2.00000          -0.409189          -11.13461
     53       2.00000          -0.372719          -10.14220
     54       2.00000          -0.359510           -9.78275
     55       2.00000          -0.357696           -9.73341
     56       2.00000          -0.349672           -9.51507
     57       2.00000          -0.314255           -8.55132
     58       2.00000          -0.311939           -8.48829
     59       2.00000          -0.307072           -8.35585
     60       2.00000          -0.304517           -8.28633
     61       0.00000          -0.172861           -4.70379
     62       0.00000          -0.121391           -3.30321
     63       0.00000          -0.069280           -1.88521
     64       0.00000          -0.065038           -1.76977
     65       0.00000          -0.057393           -1.56174
     66       0.00000          -0.032224           -0.87685
     67       0.00000           0.010115            0.27523
     68       0.00000           0.016506            0.44916
     69       0.00000           0.041512            1.12959
     70       0.00000           0.063453            1.72663
     71       0.00000           0.066643            1.81344
     72       0.00000           0.076124            2.07143
     73       0.00000           0.110831            3.01587
     74       0.00000           0.142000            3.86401
     75       0.00000           0.156570            4.26048
     76       0.00000           0.164737            4.48273
     77       0.00000           0.167439            4.55624
     78       0.00000           0.168645            4.58907
     79       0.00000           0.186656            5.07916
     80       0.00000           0.198667            5.40600
     81       0.00000           0.205435            5.59017
     82       0.00000           0.214671            5.84151
     83       0.00000           0.215978            5.87706
     84       0.00000           0.216175            5.88243
     85       0.00000           0.225661            6.14054
     86       0.00000           0.240158            6.53504
     87       0.00000           0.247427            6.73282
     88       0.00000           0.257786            7.01471
     89       0.00000           0.268574            7.30827
     90       0.00000           0.289046            7.86535
     91       0.00000           0.293846            7.99597
     92       0.00000           0.308059            8.38271
     93       0.00000           0.332684            9.05278
     94       0.00000           0.351754            9.57173
     95       0.00000           0.356328            9.69617
     96       0.00000           0.365695            9.95107

  Highest occupied state (VBM) at     -8.28632913 eV
  | Occupation number:      2.00000000

  Lowest unoccupied state (CBM) at    -4.70378646 eV
  | Occupation number:      0.00000000

  Overall HOMO-LUMO gap:      3.58254268 eV.
  | Chemical Potential                          :    -7.90969031 eV

  Self-consistency cycle converged.


------------------------------------------------------------
  End self-consistency iteration #    14       :  max(cpu_time)    wall_clock(cpu1)
  | Time for this iteration                     :        0.260 s           0.258 s
  | Charge density & force component update     :        0.138 s           0.139 s
  | Density mixing                              :        0.005 s           0.003 s
  | Hartree multipole update                    :        0.001 s           0.001 s
  | Hartree multipole summation                 :        0.051 s           0.051 s
  | Hartree pot. SCF incomplete forces          :        0.032 s           0.032 s
  | Integration                                 :        0.028 s           0.028 s
  | Solution of K.-S. eqns.                     :        0.004 s           0.004 s
  | Total energy evaluation                     :        0.000 s           0.000 s

  Partial memory accounting:
  | Current value for overall tracked memory usage:
  |   Minimum:        0.274 MB (on task 23)
  |   Maximum:        0.293 MB (on task  0)
  |   Average:        0.289 MB
  | Peak value for overall tracked memory usage:
  |   Minimum:        2.938 MB (on task  1 after allocating hessian_basis_wave)
  |   Maximum:        3.050 MB (on task  7 after allocating hessian_basis_wave)
  |   Average:        2.988 MB
  | Largest tracked array allocation so far:
  |   Minimum:        1.425 MB (hessian_basis_wave on task  1)
  |   Maximum:        1.497 MB (hessian_basis_wave on task  7)
  |   Average:        1.457 MB
  Note:  These values currently only include a subset of arrays which are explicitly tracked.
  The "true" memory usage will be greater.
------------------------------------------------------------
  Removing unitary transformations (pure translations, rotations) from forces on atoms.
  Atomic forces before filtering:
  | Net force on center of mass :   0.130930E-01 -0.963337E-04  0.950785E-02 eV/A
  | Net torque on center of mass:   0.126754E-01 -0.170786E-01 -0.594757E-02 eV
  Atomic forces after filtering:
  | Net force on center of mass :   0.000000E+00 -0.892031E-16 -0.156105E-14 eV/A
  | Net torque on center of mass:   0.188817E-15 -0.132172E-14 -0.169935E-14 eV

  Energy and forces in a compact form:
  | Total energy uncorrected      :         -0.442195052734834E+05 eV
  | Total energy corrected        :         -0.442195052734834E+05 eV  <-- do not rely on this value for anything but (periodic) metals
  | Electronic free energy        :         -0.442195052734834E+05 eV
  Total atomic forces (unitary forces cleaned) [eV/Ang]:
  |    1          0.159924844838123E+00         -0.477187945210220E-01          0.405785067746260E+00
  |    2          0.170701282389339E+01          0.431951424847399E+01         -0.630034400986594E+01
  |    3         -0.233170577426365E+01         -0.390245567880784E+00         -0.355403728079699E+01
  |    4          0.303902355787771E+01          0.259768984591902E+01          0.205968979366563E-01
  |    5         -0.207730184604453E+00         -0.855642935455027E+00          0.246950326063253E+01
  |    6         -0.686422376827440E+00         -0.211113850844591E+01          0.336057130472478E+01
  |    7          0.156737970485213E+01         -0.135994498102839E+01          0.132983378310202E-01
  |    8         -0.231733656414484E+01         -0.245071526816422E+01          0.102364569225674E+01
  |    9         -0.817558658030855E+00          0.142004646896572E+01          0.127353471544106E+01
  |   10          0.182549669155502E+00         -0.131042976563895E+01          0.226157642454185E+01
  |   11         -0.738409551974350E+00         -0.278620672131505E+00         -0.779163920769391E+00
  |   12          0.443272509228719E+00          0.467205929907085E+00         -0.194966489678576E+00

  ------------------------------------ 
  Start decomposition of the XC Energy 
  ------------------------------------ 
  X and C from original XC functional choice 
  Hartree-Fock Energy :          0.000000000 Ha              0.000000000 eV
  X Energy            :       -140.254333537 Ha          -3816.514597665 eV
  C Energy            :         -4.945299898 Ha           -134.568456987 eV
  Total XC Energy     :       -145.199633435 Ha          -3951.083054652 eV
  ------------------------------------ 
  LDA X and C from self-consistent density 
  X Energy LDA        :       -132.829966009 Ha          -3614.487278195 eV
  C Energy LDA        :         -8.826606607 Ha           -240.184186210 eV
  ------------------------------------ 
  End decomposition of the XC Energy 
  ------------------------------------ 

------------------------------------------------------------

------------------------------------------------------------------------------
  Final output of selected total energy values:

  The following output summarizes some interesting total energy values
  at the end of a run (AFTER all relaxation, molecular dynamics, etc.).

  | Total energy of the DFT / Hartree-Fock s.c.f. calculation      :         -44219.505273483 eV
  | Final zero-broadening corrected energy (caution - metals only) :         -44219.505273483 eV
  | For reference only, the value of 1 Hartree used in FHI-aims is :             27.211384500 eV

  Before relying on these values, please be sure to understand exactly which
  total energy value is referred to by a given number. Different objects may
  all carry the same name 'total energy'. Definitions:

  Total energy of the DFT / Hartree-Fock s.c.f. calculation:
  | Note that this energy does not include ANY quantities calculated after the
  | s.c.f. cycle, in particular not ANY RPA, MP2, etc. many-body perturbation terms.

  Final zero-broadening corrected energy:
  | For metallic systems only, a broadening of the occupation numbers at the Fermi
  | level can be extrapolated back to zero broadening by an electron-gas inspired
  | formula. For all systems that are not real metals, this value can be
  | meaningless and should be avoided.

------------------------------------------------------------------------------
  Methods described in the following list of references were used in this FHI-aims run.
  If you publish the results, please make sure to cite these reference if they apply.
  FHI-aims is an academic code, and for our developers (often, Ph.D. students
  and postdocs), scientific credit in the community is essential.
  Thank you for helping us!

  For any use of FHI-aims, please cite:

    Volker Blum, Ralf Gehrke, Felix Hanke, Paula Havu, Ville Havu,
    Xinguo Ren, Karsten Reuter, and Matthias Scheffler
    'Ab initio molecular simulations with numeric atom-centered orbitals'
    Computer Physics Communications 180, 2175-2196 (2009)
    http://dx.doi.org/10.1016/j.cpc.2009.06.022


  The ELSI infrastructure was used in your run to solve the Kohn-Sham electronic structure.
  Please check out http://elsi-interchange.org to learn more.
  If scalability is important for your project, please acknowledge ELSI by citing:

    V. W-z. Yu, F. Corsetti, A. Garcia, W. P. Huhn, M. Jacquelin, W. Jia,
    B. Lange, L. Lin, J. Lu, W. Mi, A. Seifitokaldani, A. Vazquez-Mayagoitia,
    C. Yang, H. Yang, and V. Blum
    'ELSI: A unified software interface for Kohn-Sham electronic structure solvers'
    Computer Physics Communications 222, 267-285 (2018).
    http://dx.doi.org/10.1016/j.cpc.2017.09.007


  For the real-space grid partitioning and parallelization used in this calculation, please cite:

    Ville Havu, Volker Blum, Paula Havu, and Matthias Scheffler,
    'Efficient O(N) integration for all-electron electronic structure calculation'
    'using numerically tabulated basis functions'
    Journal of Computational Physics 228, 8367-8379 (2009).
    http://dx.doi.org/10.1016/j.jcp.2009.08.008

  Of course, there are many other important community references, e.g., those cited in the
  above references. Our list is limited to references that describe implementations in the
  FHI-aims code. The reason is purely practical (length of this list) - please credit others as well.

------------------------------------------------------------
          Leaving FHI-aims.
          Date     :  20220517, Time     :  111444.807

          Computational steps:
          | Number of self-consistency cycles          :           14
          | Number of SCF (re)initializations          :            1

          Detailed time accounting                     :  max(cpu_time)    wall_clock(cpu1)
          | Total time                                  :        1.868 s           1.934 s
          | Preparation time                            :        0.184 s           0.184 s
          | Boundary condition initalization            :        0.000 s           0.000 s
          | Grid partitioning                           :        0.034 s           0.033 s
          | Preloading free-atom quantities on grid     :        0.014 s           0.015 s
          | Free-atom superposition energy              :        0.005 s           0.004 s
          | Total time for integrations                 :        0.439 s           0.437 s
          | Total time for solution of K.-S. equations  :        0.069 s           0.071 s
          | Total time for density & force components   :        0.619 s           0.621 s
          | Total time for mixing                       :        0.060 s           0.029 s
          | Total time for Hartree multipole update     :        0.019 s           0.019 s
          | Total time for Hartree multipole sum        :        0.308 s           0.306 s
          | Total time for total energy evaluation      :        0.002 s           0.004 s
          | Total time NSC force correction             :        0.064 s           0.064 s
          | Total time for scaled ZORA corrections      :        0.000 s           0.000 s

          Partial memory accounting:
          | Residual value for overall tracked memory usage across tasks:     0.000000 MB (should be 0.000000 MB)
          | Peak values for overall tracked memory usage:
          |   Minimum:        2.938 MB (on task  1 after allocating hessian_basis_wave)
          |   Maximum:        3.050 MB (on task  7 after allocating hessian_basis_wave)
          |   Average:        2.988 MB
          | Largest tracked array allocation:
          |   Minimum:        1.425 MB (hessian_basis_wave on task  1)
          |   Maximum:        1.497 MB (hessian_basis_wave on task  7)
          |   Average:        1.457 MB
          Note:  These values currently only include a subset of arrays which are explicitly tracked.
          The "true" memory usage will be greater.

          Have a nice day.
------------------------------------------------------------
