********************************************************************************
*                       GENERAL UTILITY LATTICE PROGRAM                        *
*                                 Julian Gale                                  *
*                       Curtin Institute for Computation                       *
*                           Department of Chemistry                            *
*                    Curtin University, Western Australia                      *
********************************************************************************
* Version = 5.1.1 * Last modified =  24th November 2018                        *
********************************************************************************
*  optimise     - perform optimisation run                                     *
*  conp         - constant pressure calculation                                *
*  shell        - only shells and radii to be optimised                        *
*  phonon       - calculate phonons for final geometry                         *
*  eigenvectors - output phonon eigenvectors                                   *
********************************************************************************

  Job Started  at 14:38.45 25th May        2022                               

  Number of CPUs =     1

  Host name      = login03                                 


  Total number of configurations input =      1

********************************************************************************
*  Input for Configuration =   1                                               *
********************************************************************************

  Formula = Al3F9                                                       

  Number of irreducible atoms/shells =      21


  Total number atoms/shells =      21

  Dimensionality = 0               :  Cluster


  Charge on cluster =  -0.000000


  Initial cluster dipoles : x =      0.340219 e.Angs
                            y =     -0.479974 e.Angs
                            z =      1.702586 e.Angs

  Temperature of configuration =  0.000     K 

  Symmetry number =      1

  Cartesian coordinates of cluster :

--------------------------------------------------------------------------------
   No.  Atomic       x           y          z         Charge      Occupancy
        Label      (Angs)      (Angs)     (Angs)        (e)         (Frac)  
--------------------------------------------------------------------------------
      1 Al    c      1.2794      0.0082      2.5276     3.00000    1.000000    
      2 Al    c      1.3574      1.1496      0.1568     3.00000    1.000000    
      3 Al    c     -0.2631      0.8507     -2.2492     3.00000    1.000000    
      4 F     c     -1.7501     -0.4405     -2.2135     0.59000    1.000000    
      5 F     c      2.0413     -0.2941      0.6843     0.59000    1.000000    
      6 F     c      0.0690      1.8728     -3.8759     0.59000    1.000000    
      7 F     c     -0.4286      1.9459     -0.8314     0.59000    1.000000    
      8 F     c      2.5864      2.4217     -0.3246     0.59000    1.000000    
      9 F     c      1.2325      0.0087     -1.7094     0.59000    1.000000    
     10 F     c      0.4586      1.5517      1.5209     0.59000    1.000000    
     11 F     c      2.4772      0.5665      3.5618     0.59000    1.000000    
     12 F     c      0.0943     -1.1272      2.7908     0.59000    1.000000    
     13 F     s     -1.7501 *   -0.4405 *   -2.2135 *  -1.59000    1.000000    
     14 F     s      2.0413 *   -0.2941 *    0.6843 *  -1.59000    1.000000    
     15 F     s      0.0690 *    1.8728 *   -3.8759 *  -1.59000    1.000000    
     16 F     s     -0.4286 *    1.9459 *   -0.8314 *  -1.59000    1.000000    
     17 F     s      2.5864 *    2.4217 *   -0.3246 *  -1.59000    1.000000    
     18 F     s      1.2325 *    0.0087 *   -1.7094 *  -1.59000    1.000000    
     19 F     s      0.4586 *    1.5517 *    1.5209 *  -1.59000    1.000000    
     20 F     s      2.4772 *    0.5665 *    3.5618 *  -1.59000    1.000000    
     21 F     s      0.0943 *   -1.1272 *    2.7908 *  -1.59000    1.000000    
--------------------------------------------------------------------------------


  Brillouin zone sampling points :

--------------------------------------------------------------------------------
  Point number          x          y          z            Weight
--------------------------------------------------------------------------------
        1           0.000000   0.000000   0.000000     1.00000000
--------------------------------------------------------------------------------


********************************************************************************
*  General input information                                                   *
********************************************************************************

  Species output for all configurations : 

--------------------------------------------------------------------------------
  Species    Type    Atomic    Atomic    Charge       Radii (Angs)     Library
                     Number     Mass       (e)     Cova   Ionic  VDW   Symbol
--------------------------------------------------------------------------------
    Al       Core       13      26.98   3.000000   1.350  0.000  2.050          
    F        Core        9      19.00   0.590000   0.710  0.000  1.300          
    F        Shell       9       0.00  -1.590000   0.710  0.000  1.300          
--------------------------------------------------------------------------------


  Accuracy factor for short range sums = 12.000

  Time limit = Infinity

  Maximum range for interatomic potentials =    100000.000000 Angstroms

  General interatomic potentials :

--------------------------------------------------------------------------------
Atom  Types   Potential      Parameter       Value         Units   Cutoffs(Ang)
  1     2                                                            Min /  Max 
--------------------------------------------------------------------------------
Al   c F    s Buckingham    Buckingham A     3760.0008    eV        0.000 10.000
                            Buckingham rho  0.22200000    Ang       
                            Buckingham C     0.0000000    eV*Ang^6  
--------------------------------------------------------------------------------
F    s F    s Buck 4 range  Buck4 A          1127.7000    eV        0.000 12.000
                            Buck4 rho       0.27530000    Ang       
                            Buck4 C          15.830000    eV*Ang^6  
                            Buck4 minimum    2.7900000    Ang       
--------------------------------------------------------------------------------
F    c F    s Spring (c-s)  Spring k 2       20.770000    eV*Ang^-2 0.000  0.800
                            Spring k 4       0.0000000    eV*Ang^-4 
--------------------------------------------------------------------------------

********************************************************************************
*  Output for configuration   1                                                *
********************************************************************************


  Components of energy : 

--------------------------------------------------------------------------------
  Interatomic potentials     =          13.23869863 eV    
  Monopole - monopole (real) =        -180.18707525 eV    
--------------------------------------------------------------------------------
  Total lattice energy       =        -166.94837662 eV    
--------------------------------------------------------------------------------
  Total lattice energy       =          -16107.9663 kJ/mol
--------------------------------------------------------------------------------


  Number of variables =       27

  Maximum number of calculations  =          2000
  Maximum Hessian update interval =            10
  Maximum step size               =   1.000000000
  Maximum parameter tolerance     =   0.000001000
  Maximum function  tolerance     =   0.000010000
  Maximum gradient  tolerance     =   0.000000010
  Maximum gradient  component     =   0.010000000

  Symmetry not applied to optimisation

  Newton-Raphson optimiser to be used

  BFGS hessian update to be used

  Lower half triangular hessian to be used

  Minimiser to switch to RFO
  When gradient norm is less than     0.010000

  Shell only optimisation

  Start of cluster optimisation :

  Cycle:      0 Energy:      -166.948377  Gnorm:      1.436135  CPU:    0.004
  ** Hessian calculated **
  Cycle:      1 Energy:      -182.888417  Gnorm:      0.629434  CPU:    0.006
  ** Hessian calculated **
  Cycle:      2 Energy:      -184.588836  Gnorm:      0.042924  CPU:    0.008
  Cycle:      3 Energy:      -184.600175  Gnorm:      0.007096  CPU:    0.009
  ** Hessian has required structure
  Cycle:      4 Energy:      -184.600479  Gnorm:      0.002408  CPU:    0.011
  ** Hessian has required structure
  Cycle:      5 Energy:      -184.600513  Gnorm:      0.000937  CPU:    0.012
  ** Hessian has required structure
  Cycle:      6 Energy:      -184.600518  Gnorm:      0.000378  CPU:    0.014
  ** Hessian has required structure
  Cycle:      7 Energy:      -184.600519  Gnorm:      0.000186  CPU:    0.015
  ** Hessian has required structure
  Cycle:      8 Energy:      -184.600520  Gnorm:      0.000129  CPU:    0.017
  ** Hessian has required structure
  Cycle:      9 Energy:      -184.600520  Gnorm:      0.000056  CPU:    0.018
  ** Hessian has required structure
  Cycle:     10 Energy:      -184.600520  Gnorm:      0.000031  CPU:    0.020
  ** Hessian has required structure
  Cycle:     11 Energy:      -184.600520  Gnorm:      0.000025  CPU:    0.021
  ** Hessian has required structure
  Cycle:     12 Energy:      -184.600520  Gnorm:      0.000000  CPU:    0.023
  ** Hessian has required structure
  Cycle:     13 Energy:      -184.600520  Gnorm:      0.000000  CPU:    0.024
  ** Hessian has required structure
  Cycle:     14 Energy:      -184.600520  Gnorm:      0.000000  CPU:    0.026
  ** Hessian has required structure
  Cycle:     15 Energy:      -184.600520  Gnorm:      0.000000  CPU:    0.028
  ** Hessian has required structure
  Cycle:     16 Energy:      -184.600520  Gnorm:      0.000000  CPU:    0.029
  ** Hessian has required structure
  Cycle:     17 Energy:      -184.600520  Gnorm:      0.000000  CPU:    0.031
  ** Hessian calculated **

  XYZ File written as 001/5/sp_mod_40/sp_mod_40_eig.xyz



  **** Optimisation achieved ****


  Final energy =    -184.60051986 eV
  Final Gnorm  =       0.00000029

  Components of energy : 

--------------------------------------------------------------------------------
  Interatomic potentials     =          40.80401547 eV    
  Monopole - monopole (real) =        -225.40453533 eV    
--------------------------------------------------------------------------------
  Total lattice energy       =        -184.60051986 eV    
--------------------------------------------------------------------------------
  Total lattice energy       =          -17811.1283 kJ/mol
--------------------------------------------------------------------------------

  Final cartesian coordinates of atoms :

--------------------------------------------------------------------------------
   No.  Atomic        x           y          z          Radius
        Label       (Angs)      (Angs)     (Angs)       (Angs) 
--------------------------------------------------------------------------------
     1  Al    c     1.279370    0.008170    2.527628    0.000000
     2  Al    c     1.357400    1.149641    0.156799    0.000000
     3  Al    c    -0.263119    0.850665   -2.249178    0.000000
     4  F     c    -1.750096   -0.440493   -2.213457    0.000000
     5  F     c     2.041279   -0.294073    0.684333    0.000000
     6  F     c     0.069033    1.872764   -3.875910    0.000000
     7  F     c    -0.428551    1.945913   -0.831355    0.000000
     8  F     c     2.586442    2.421651   -0.324623    0.000000
     9  F     c     1.232487    0.008666   -1.709399    0.000000
    10  F     c     0.458646    1.551727    1.520931    0.000000
    11  F     c     2.477171    0.566464    3.561796    0.000000
    12  F     c     0.094324   -1.127219    2.790848    0.000000
    13  F     s    -1.474811   -0.204151   -2.214134    0.000000
    14  F     s     1.902892   -0.153638    0.883173    0.000000
    15  F     s     0.009752    1.685741   -3.575421    0.000000
    16  F     s    -0.236045    1.746005   -0.862917    0.000000
    17  F     s     2.394271    2.215303   -0.232893    0.000000
    18  F     s     1.089843    0.199640   -1.563798    0.000000
    19  F     s     0.628847    1.332259    1.556648    0.000000
    20  F     s     2.342191    0.504498    3.443163    0.000000
    21  F     s     0.221278   -1.006623    2.764940    0.000000
--------------------------------------------------------------------------------


  Final Cartesian derivatives :

--------------------------------------------------------------------------------
   No.  Atomic          x             y             z           Radius
        Label       (eV/Angs)     (eV/Angs)    (eV/Angs)      (eV/Angs)
--------------------------------------------------------------------------------
      1 Al    c       0.000000      0.000000      0.000000      0.000000
      2 Al    c       0.000000      0.000000      0.000000      0.000000
      3 Al    c       0.000000      0.000000      0.000000      0.000000
      4 F     c       0.000000      0.000000      0.000000      0.000000
      5 F     c       0.000000      0.000000      0.000000      0.000000
      6 F     c       0.000000      0.000000      0.000000      0.000000
      7 F     c       0.000000      0.000000      0.000000      0.000000
      8 F     c       0.000000      0.000000      0.000000      0.000000
      9 F     c       0.000000      0.000000      0.000000      0.000000
     10 F     c       0.000000      0.000000      0.000000      0.000000
     11 F     c       0.000000      0.000000      0.000000      0.000000
     12 F     c       0.000000      0.000000      0.000000      0.000000
     13 F     s       0.000002      0.000002     -0.000001      0.000000
     14 F     s      -0.000002      0.000000      0.000000      0.000000
     15 F     s      -0.000001     -0.000002      0.000003      0.000000
     16 F     s       0.000001     -0.000001      0.000000      0.000000
     17 F     s      -0.000003     -0.000003      0.000001      0.000000
     18 F     s      -0.000001      0.000000      0.000001      0.000000
     19 F     s      -0.000000     -0.000002     -0.000001      0.000000
     20 F     s       0.000001     -0.000000      0.000002      0.000000
     21 F     s      -0.000001     -0.000002      0.000002      0.000000
--------------------------------------------------------------------------------
  Maximum abs         0.000003      0.000003      0.000003      0.000000
--------------------------------------------------------------------------------


  Born effective charge tensors : 

-------------------------------------------------------------------------------
  Atom             x           y             z
-------------------------------------------------------------------------------
    1 Al    x       0.7249     -0.6940     -0.2814
            y      -0.6693      1.2016     -0.2038
            z      -0.3361     -0.2506      1.6003
-------------------------------------------------------------------------------
    2 Al    x       1.2649     -0.2711      0.6184
            y      -0.2991      0.8321      0.3652
            z       0.6803      0.4183      1.6182
-------------------------------------------------------------------------------
    3 Al    x       0.8153     -0.0812     -0.0340
            y      -0.0820      0.8128      0.0990
            z      -0.0322      0.1006      0.6453
-------------------------------------------------------------------------------
    4 F     x      -0.3027      0.1527     -0.0548
            y       0.1498     -0.3209     -0.0056
            z      -0.0482     -0.0000     -0.5430
-------------------------------------------------------------------------------
    5 F     x      -0.2490     -0.0780      0.0821
            y      -0.0641     -0.0972     -0.1455
            z       0.0511     -0.0988     -0.3492
-------------------------------------------------------------------------------
    6 F     x      -0.4928      0.0151     -0.0871
            y       0.0234     -0.3703     -0.1634
            z      -0.1052     -0.1790     -0.2686
-------------------------------------------------------------------------------
    7 F     x      -0.5957      0.1117     -0.2175
            y       0.1631     -0.3382      0.1882
            z      -0.1593      0.1131     -0.3425
-------------------------------------------------------------------------------
    8 F     x      -0.2831      0.2605     -0.1567
            y       0.2560     -0.2396     -0.0992
            z      -0.1468     -0.0908     -0.5815
-------------------------------------------------------------------------------
    9 F     x      -0.2251     -0.0386      0.0615
            y      -0.0763     -0.3878     -0.2392
            z      -0.0271     -0.1902     -0.6635
-------------------------------------------------------------------------------
   10 F     x      -0.2505      0.0353     -0.1671
            y       0.0200     -0.3254      0.1016
            z      -0.1334      0.0573     -0.1195
-------------------------------------------------------------------------------
   11 F     x      -0.1971      0.2182      0.2940
            y       0.1846     -0.5143      0.1446
            z       0.3681      0.2082     -0.3699
-------------------------------------------------------------------------------
   12 F     x      -0.2092      0.3695     -0.0574
            y       0.3939     -0.2530     -0.0419
            z      -0.1114     -0.0881     -0.6261
-------------------------------------------------------------------------------




  Moment of inertia tensor (10^-46 x kgm^2): 

-------------------------------------------------------------------------------
                x           y           z           Principal axis system
-------------------------------------------------------------------------------
       x        242.70       -7.88      -56.04           79.900428
       y         -7.88      260.09       32.37          245.453114
       z        -56.04       32.37      104.08          281.515235
-------------------------------------------------------------------------------
  Centre of mass (Ang) =     0.765560     0.705689     0.016683
-------------------------------------------------------------------------------


  Vibrational Frequency Calculation : 

--------------------------------------------------------------------------------

  Frequencies (cm-1) and Eigenvectors : 

  Frequency    -159.4161 -149.6934 -118.9724 -108.0813  -68.4802  -42.7659
  IR Intensity    0.0025    0.0011    0.0153    0.0116    0.0664    0.0078
     in X         0.0010    0.0000    0.0058    0.0047    0.0251    0.0030
     in Y         0.0013    0.0001    0.0079    0.0005    0.0342    0.0040
     in Z         0.0003    0.0010    0.0016    0.0064    0.0070    0.0008
  Raman Intsty    0.0000    0.1194    0.0000    0.3607    0.0000    0.0000

     1 x       0.012334 -0.130048 -0.156973  0.268323  0.336635  0.203386
     1 y      -0.014383 -0.094285  0.183078  0.197490 -0.392610 -0.237206
     1 z      -0.006519 -0.037997  0.082979  0.071870 -0.177948 -0.107512
     2 x      -0.066306  0.122134  0.277367 -0.283198 -0.038101  0.022371
     2 y       0.077330  0.069947 -0.323493 -0.180468  0.044436 -0.026092
     2 z       0.035049  0.076728 -0.146622 -0.137563  0.020140 -0.011826
     3 x       0.022503  0.042615 -0.026823 -0.139534  0.014570 -0.160376
     3 y      -0.026246  0.034071  0.031282 -0.089978 -0.016993  0.187044
     3 z      -0.011896  0.005443  0.014178 -0.065443 -0.007702  0.084777
     4 x      -0.030139  0.035656  0.081332 -0.117830 -0.012572 -0.047174
     4 y       0.035150  0.022385 -0.094857 -0.068025  0.014662  0.055018
     4 z       0.015931  0.018065 -0.042993 -0.072817  0.006646  0.024937
     5 x      -0.318441 -0.267767  0.068651  0.171559  0.179937  0.314003
     5 y      -0.127939 -0.175653 -0.174427  0.109082  0.033146  0.080196
     5 z      -0.136293 -0.091083  0.268498  0.064466 -0.192396 -0.075481
     6 x      -0.049861  0.005741  0.132128 -0.058709 -0.010161 -0.019576
     6 y       0.058152  0.011308 -0.154099 -0.042375  0.011850  0.022831
     6 z       0.026357 -0.014086 -0.069844 -0.017566  0.005371  0.010348
     7 x       0.099514  0.050945 -0.138802 -0.161985  0.071041 -0.227450
     7 y      -0.112364  0.065549  0.200941 -0.147814 -0.028743  0.250172
     7 z       0.084213 -0.031866 -0.167209  0.008645  0.014479 -0.024247
     8 x       0.051950  0.107605  0.127279 -0.247429  0.031360 -0.148125
     8 y      -0.060590  0.043588 -0.148447 -0.132518 -0.036575  0.172756
     8 z      -0.027462  0.107392 -0.067283 -0.175693 -0.016578  0.078300
     9 x       0.041448  0.057507 -0.076962 -0.166408  0.002385 -0.156240
     9 y      -0.052040  0.057896  0.050698 -0.142654 -0.056893  0.197320
     9 z      -0.158728 -0.035338  0.281264  0.010980 -0.053293  0.227071
    10 x       0.244812 -0.256584  0.029963  0.163786  0.004166 -0.116726
    10 y       0.213818 -0.188693  0.059418  0.118150 -0.247861 -0.310278
    10 z       0.175217 -0.096992 -0.320625  0.068580  0.095078 -0.028802
    11 x       0.346913  0.109424 -0.040056  0.279523 -0.308213  0.339815
    11 y      -0.404601  0.306763  0.046722  0.273157  0.359464 -0.396320
    11 z      -0.183380 -0.469825  0.021174 -0.073884  0.162925 -0.179630
    12 x      -0.348696  0.116122 -0.295035  0.321493 -0.331048 -0.016437
    12 y       0.406679 -0.154742  0.344098  0.119935  0.386096  0.019171
    12 z       0.184322  0.561093  0.155963  0.343553  0.174996  0.008689


  Frequency      -0.0000    0.0000    0.0000   60.1039   70.5297   95.0953
  IR Intensity    0.0000    0.0000    0.0000    0.0006    0.0048    0.0584
     in X         0.0000    0.0000    0.0000    0.0002    0.0005    0.0001
     in Y         0.0000    0.0000    0.0000    0.0003    0.0001    0.0083
     in Z         0.0000    0.0000    0.0000    0.0001    0.0042    0.0500
  Raman Intsty    0.0000    0.0000    0.0000    0.0000    0.0693    0.0600

     1 x      -0.319054  0.068956  0.023204 -0.087912 -0.053848 -0.009391
     1 y       0.071220  0.317339  0.036231  0.102532 -0.076146 -0.088910
     1 z       0.014867 -0.040374  0.324404  0.046472  0.066136  0.178397
     2 x      -0.319054  0.068956  0.023204 -0.140569 -0.166637 -0.050476
     2 y       0.071220  0.317339  0.036231  0.163945 -0.151619 -0.116324
     2 z       0.014867 -0.040374  0.324404  0.074307  0.019284  0.161160
     3 x      -0.319054  0.068956  0.023204  0.211567  0.197783  0.079302
     3 y       0.071220  0.317339  0.036231 -0.246749  0.268852  0.050528
     3 z       0.014867 -0.040374  0.324404 -0.111837 -0.219019  0.038537
     4 x      -0.267744  0.057866  0.019473  0.266432  0.102825  0.028361
     4 y       0.059766  0.266305  0.030404 -0.310737  0.287101  0.078339
     4 z       0.012476 -0.033881  0.272234 -0.140839 -0.438922 -0.119191
     5 x      -0.267744  0.057866  0.019473  0.073434 -0.053975  0.003911
     5 y       0.059766  0.266305  0.030404  0.231891 -0.069845 -0.080948
     5 z       0.012476 -0.033881  0.272234  0.069691  0.069224  0.102917
     6 x      -0.267744  0.057866  0.019473  0.179666  0.370517  0.174531
     6 y       0.059766  0.266305  0.030404 -0.209544  0.346573  0.106235
     6 z       0.012476 -0.033881  0.272234 -0.094974 -0.063727  0.095780
     7 x      -0.267744  0.057866  0.019473 -0.121593 -0.064977 -0.066184
     7 y       0.059766  0.266305  0.030404 -0.206312 -0.062493 -0.095111
     7 z       0.012476 -0.033881  0.272234 -0.105070  0.015841  0.119543
     8 x      -0.267744  0.057866  0.019473 -0.285025 -0.117543 -0.085173
     8 y       0.059766  0.266305  0.030404  0.332420 -0.128043 -0.093577
     8 z       0.012476 -0.033881  0.272234  0.150667  0.060145  0.045334
     9 x      -0.267744  0.057866  0.019473  0.253858 -0.064622 -0.052205
     9 y       0.059766  0.266305  0.030404  0.052053 -0.062903 -0.111414
     9 z       0.012476 -0.033881  0.272234  0.035153  0.015655  0.112154
    10 x      -0.267744  0.057866  0.019473 -0.250621 -0.047074 -0.029364
    10 y       0.059766  0.266305  0.030404 -0.025240 -0.077895 -0.042141
    10 z       0.012476 -0.033881  0.272234  0.023972  0.065576  0.120506
    11 x      -0.267744  0.057866  0.019473  0.044603 -0.115530  0.254784
    11 y       0.059766  0.266305  0.030404 -0.052019 -0.191330  0.403545
    11 z       0.012476 -0.033881  0.272234 -0.023578  0.203582 -0.408361
    12 x      -0.267744  0.057866  0.019473 -0.140599  0.017431 -0.251818
    12 y       0.059766  0.266305  0.030404  0.163979 -0.090128  0.019425
    12 z       0.012476 -0.033881  0.272234  0.074322  0.231827 -0.519233


  Frequency     123.0324  140.5690  160.8291  189.8942  199.3621  202.4002
  IR Intensity    0.0126    0.0020    0.0082    0.0074    0.0232    0.0118
     in X         0.0048    0.0008    0.0025    0.0028    0.0022    0.0045
     in Y         0.0065    0.0010    0.0001    0.0038    0.0006    0.0061
     in Z         0.0013    0.0002    0.0056    0.0008    0.0204    0.0012
  Raman Intsty    0.0000    0.0000    0.0000    0.0000    0.0837    0.0000

     1 x      -0.080941 -0.121985 -0.123321 -0.024860  0.014693 -0.003428
     1 y       0.094402  0.142269 -0.073259  0.028993  0.119554  0.004002
     1 z       0.042787  0.064483 -0.071662  0.013140 -0.235979  0.001807
     2 x      -0.106489  0.098606  0.160894  0.170521  0.095367 -0.127931
     2 y       0.124197 -0.115002  0.125531 -0.198876  0.136816  0.149208
     2 z       0.056292 -0.052124  0.027415 -0.090140 -0.121463  0.067624
     3 x       0.078724 -0.011300  0.073655 -0.026805 -0.158879 -0.014661
     3 y      -0.091815  0.013179 -0.013006  0.031261 -0.191055  0.017091
     3 z      -0.041615  0.005973  0.168030  0.014170  0.120967  0.007751
     4 x      -0.239304  0.006904  0.054649 -0.340650 -0.234531 -0.149135
     4 y       0.279097 -0.008052 -0.004654  0.397295 -0.079673  0.173927
     4 z       0.126497 -0.003650  0.113651  0.180072 -0.267911  0.078826
     5 x       0.138788  0.331974  0.005858  0.052608  0.004766  0.034756
     5 y       0.238842  0.119308  0.030701 -0.187672  0.055894  0.193787
     5 z       0.097773  0.205698 -0.033779  0.028915 -0.186653  0.012582
     6 x       0.162542 -0.326422  0.228860  0.225948  0.304301  0.240152
     6 y      -0.189569  0.380702  0.084728 -0.263519  0.090684 -0.280077
     6 z      -0.085921  0.172551  0.246006 -0.119438  0.375611 -0.126936
     7 x       0.439984  0.100169 -0.060691 -0.001504 -0.131732 -0.333938
     7 y       0.169109 -0.281530 -0.061867 -0.227513 -0.206914 -0.170667
     7 z      -0.175495  0.214124  0.161569  0.181828  0.135739  0.140429
     8 x       0.060923  0.075163 -0.218279 -0.293323  0.278741  0.361126
     8 y      -0.071054 -0.087662  0.157584  0.342099  0.101949 -0.421166
     8 z      -0.032204 -0.039734 -0.760615  0.155053  0.302413 -0.190884
     9 x      -0.185767  0.138744 -0.004665  0.128584 -0.160407  0.175484
     9 y      -0.465601  0.002887 -0.127208  0.079299 -0.173495  0.355456
     9 z       0.041113 -0.340417  0.131955 -0.249004  0.150897 -0.056665
    10 x      -0.283847 -0.268259  0.015019  0.141511 -0.024203 -0.184706
    10 y      -0.069661 -0.193617  0.020016 -0.038725  0.089691 -0.018901
    10 z      -0.021092 -0.239378 -0.038621 -0.131528 -0.171338  0.066675
    11 x       0.088668  0.072074 -0.104872 -0.034544 -0.068402  0.030650
    11 y      -0.103412 -0.084059 -0.058488  0.040287 -0.038239 -0.035749
    11 z      -0.046870 -0.038098 -0.069349  0.018260 -0.045028 -0.016203
    12 x      -0.052448 -0.089023 -0.048423 -0.020265  0.089641 -0.000384
    12 y       0.061170  0.103827 -0.087603  0.023634  0.082272  0.000453
    12 z       0.027725  0.047059  0.101677  0.010712 -0.011939  0.000204


  Frequency     209.7783  244.0066  268.4052  303.3343  309.1797  358.8845
  IR Intensity    0.1077    0.0244    0.0317    0.0271    0.0613    0.0309
     in X         0.0258    0.0112    0.0094    0.0084    0.0232    0.0086
     in Y         0.0001    0.0018    0.0149    0.0003    0.0316    0.0001
     in Z         0.0818    0.0114    0.0074    0.0185    0.0065    0.0221
  Raman Intsty    1.6133    0.0716    0.0880    3.3472    0.0000    0.4138

     1 x      -0.003097 -0.311245  0.050001  0.014093  0.039190  0.004129
     1 y       0.080996 -0.195396  0.094825 -0.065079 -0.045707  0.033360
     1 z      -0.184561 -0.157691 -0.114625  0.170247 -0.020715 -0.065793
     2 x      -0.341611 -0.049276  0.067358  0.227121  0.012818 -0.014150
     2 y      -0.180635 -0.022651  0.064202  0.133537 -0.014947 -0.055804
     2 z      -0.247703 -0.043242 -0.014225  0.135030 -0.006774  0.096351
     3 x       0.068765  0.029793  0.211557 -0.100780  0.267281  0.172254
     3 y       0.056959  0.044013  0.209440  0.017377 -0.311727  0.026095
     3 z       0.004416 -0.040746 -0.061879 -0.228980 -0.141290  0.268287
     4 x       0.206339  0.050615  0.278652 -0.006498 -0.269149  0.129777
     4 y      -0.097760  0.021141  0.156221 -0.151156  0.313904  0.172246
     4 z       0.606032  0.049109  0.182464  0.321196  0.142277 -0.134523
     5 x      -0.055291  0.413404 -0.061132  0.013300 -0.022819  0.130835
     5 y      -0.013883  0.247697 -0.041102  0.029593 -0.039448 -0.094116
     5 z      -0.140615  0.093025 -0.135173  0.116295  0.007736 -0.128877
     6 x       0.317590 -0.056842 -0.277066  0.199688 -0.233729 -0.127971
     6 y       0.202380 -0.008919 -0.081256  0.220943  0.272598 -0.190158
     6 z       0.154287 -0.087851 -0.344862 -0.109719  0.123552  0.177461
     7 x       0.020655 -0.001788 -0.187588 -0.413235 -0.223461 -0.412985
     7 y       0.075669 -0.053378 -0.317729 -0.046367 -0.113732  0.379054
     7 z      -0.003304  0.040505  0.302933 -0.266232 -0.413143  0.003544
     8 x      -0.129924  0.056599  0.101110  0.184963  0.001637 -0.053348
     8 y      -0.188553 -0.030435  0.065430  0.148384 -0.001907 -0.076619
     8 z       0.170225  0.174220  0.046915  0.022520 -0.000864  0.068126
     9 x       0.070549 -0.031378 -0.204894 -0.247744  0.320118  0.236300
     9 y       0.017478 -0.018867 -0.297545 -0.239380  0.000995 -0.378198
     9 z      -0.029678  0.056147  0.312081 -0.353719  0.362042 -0.339675
    10 x      -0.081986  0.356316 -0.105273  0.075951  0.037291 -0.103080
    10 y       0.017249  0.314276  0.010379 -0.043477  0.022570  0.178696
    10 z      -0.126504  0.123202 -0.111839  0.083177 -0.015385 -0.005227
    11 x      -0.057495 -0.213519 -0.013508  0.070042  0.004108 -0.031099
    11 y      -0.019915 -0.026306 -0.020236  0.025806 -0.004790 -0.024015
    11 z      -0.064828 -0.345886  0.019093  0.075567 -0.002171 -0.005847
    12 x       0.038387 -0.179300  0.077751 -0.043813  0.005527  0.038248
    12 y       0.058194 -0.237824  0.086759 -0.046630 -0.006447  0.028760
    12 z      -0.055776  0.185523 -0.044332  0.019996 -0.002922  0.008902


  Frequency     394.4837  437.0534  500.3283  516.4370  625.6003  657.6455
  IR Intensity    0.0232    0.0608    0.0225    0.0000    0.0484    0.0189
     in X         0.0044    0.0230    0.0006    0.0000    0.0151    0.0072
     in Y         0.0000    0.0313    0.0062    0.0000    0.0006    0.0098
     in Z         0.0187    0.0064    0.0157    0.0000    0.0327    0.0020
  Raman Intsty    1.1218    0.0000    0.8275    1.5522    0.2819    0.0000

     1 x      -0.016066 -0.356912  0.003096 -0.000545  0.001867  0.005634
     1 y      -0.039882  0.416261  0.174470 -0.012783  0.015602 -0.006571
     1 z       0.057603  0.188668 -0.379078  0.027174 -0.030890 -0.002978
     2 x      -0.124664 -0.011592  0.055480 -0.006021 -0.319966 -0.069586
     2 y       0.074023  0.013519 -0.000670 -0.000738 -0.122132  0.081158
     2 z      -0.399150  0.006128  0.106433 -0.009763 -0.335832  0.036784
     3 x       0.062857  0.022343 -0.002938  0.011891 -0.052851  0.420828
     3 y       0.011430 -0.026059  0.000399  0.009540 -0.013870 -0.490806
     3 z       0.093690 -0.011811 -0.006439  0.001447 -0.069380 -0.222454
     4 x       0.080538  0.000910 -0.048504 -0.413998  0.047132 -0.032778
     4 y       0.091955 -0.001061 -0.041886 -0.351730  0.039459  0.038229
     4 z      -0.050525 -0.000481  0.000656 -0.007153  0.002104  0.017327
     5 x      -0.343058  0.230514 -0.022998  0.001148  0.147064  0.053812
     5 y       0.367726 -0.101073 -0.177922  0.011276 -0.331875 -0.115523
     5 z       0.284054 -0.511049  0.417299 -0.043278  0.111441  0.066502
     6 x      -0.060197  0.000771  0.011033  0.082831 -0.006871 -0.031602
     6 y      -0.089132 -0.000900  0.034751  0.274836 -0.029031  0.036857
     6 z       0.082777 -0.000408 -0.055800 -0.449682  0.051054  0.016705
     7 x      -0.122396 -0.029360 -0.021111 -0.044884  0.006880 -0.067460
     7 y       0.109840  0.031721  0.030483  0.277725  0.042779  0.308332
     7 z       0.093061 -0.033618 -0.004304  0.356371  0.057701  0.369842
     8 x       0.111596  0.033863 -0.012541 -0.000001  0.422205 -0.004527
     8 y       0.084267 -0.039494 -0.000055  0.001113  0.432219  0.005280
     8 z       0.025191 -0.017900 -0.023603 -0.002458 -0.154908  0.002393
     9 x       0.104674 -0.007451  0.020098  0.377272  0.062580 -0.404243
     9 y      -0.154990  0.011212 -0.017577 -0.214629 -0.022183  0.241809
     9 z      -0.026971  0.053077 -0.026087  0.133214  0.028257 -0.120494
    10 x       0.355585  0.238138  0.004339 -0.007091 -0.212996  0.062409
    10 y      -0.447091 -0.445508 -0.209805  0.020886  0.088057 -0.020023
    10 z      -0.085256  0.263314  0.402848 -0.038923  0.301772 -0.127938
    11 x       0.022861 -0.025297 -0.303439  0.024816  0.118621 -0.000570
    11 y       0.027765  0.029504 -0.132599  0.011345  0.059313  0.000665
    11 z      -0.018011  0.013373 -0.281475  0.021916  0.093537  0.000302
    12 x      -0.056805 -0.029590  0.306824 -0.026439 -0.142576 -0.000306
    12 y      -0.044643  0.034510  0.307028 -0.026078 -0.135265  0.000357
    12 z      -0.008965  0.015641 -0.096967  0.007520  0.028718  0.000162


  Frequency     718.8066  721.1305  724.2135  762.8378  873.6049  888.2827
  IR Intensity    0.0137    0.0419    0.0343    0.0094    0.0016    0.0001
     in X         0.0076    0.0159    0.0014    0.0014    0.0010    0.0001
     in Y         0.0061    0.0216    0.0101    0.0001    0.0006    0.0001
     in Z         0.0001    0.0044    0.0229    0.0079    0.0000    0.0000
  Raman Intsty    0.0273    0.0000    0.0571    0.3759    0.1155    0.0037

     1 x      -0.001447  0.006598  0.014382  0.006848  0.117762  0.577345
     1 y       0.019967 -0.007701 -0.235057  0.017754 -0.061735  0.447484
     1 z      -0.046790 -0.003472  0.545818 -0.026218  0.358983  0.104901
     2 x       0.061649  0.404443 -0.184025 -0.124228  0.210399 -0.019625
     2 y       0.049140 -0.471708 -0.186490 -0.085114  0.441726 -0.078491
     2 z       0.008222 -0.213794  0.063386 -0.047219 -0.576569  0.136050
     3 x      -0.512374  0.100268 -0.072753  0.298842  0.053564 -0.013915
     3 y      -0.502547 -0.116954 -0.057276 -0.074618  0.013463 -0.000521
     3 z       0.139501 -0.053005 -0.011248  0.729966  0.071624 -0.025174
     4 x       0.397173 -0.016188  0.051859 -0.083073 -0.017850  0.003578
     4 y       0.348055  0.018889  0.044032 -0.049123 -0.013273  0.002159
     4 z      -0.016570  0.008560  0.000953 -0.048773 -0.004483  0.002006
     5 x       0.003691 -0.197350 -0.001314 -0.006768  0.109599 -0.046103
     5 y      -0.010543  0.428803  0.070078  0.006688 -0.221495  0.030834
     5 z       0.013721 -0.187781 -0.144009 -0.002576  0.040120 -0.016065
     6 x       0.093297 -0.015323  0.009802  0.039353 -0.000640 -0.000457
     6 y       0.215089  0.017874  0.017328  0.186165  0.006478 -0.003144
     6 z      -0.298061  0.008097 -0.019689 -0.336294 -0.015502  0.006072
     7 x       0.004184 -0.014597  0.010855  0.002940 -0.010414  0.000229
     7 y       0.070574  0.066363  0.022662 -0.154592 -0.030691  0.007654
     7 z       0.081755  0.084269  0.017491 -0.249115 -0.005926  0.000863
     8 x      -0.054856 -0.015106  0.205689  0.076963 -0.211180  0.032110
     8 y      -0.054605  0.017632  0.211617  0.076882 -0.225527  0.034704
     8 z       0.016703  0.007986 -0.077785 -0.024030  0.098086 -0.015825
     9 x       0.096123 -0.088854  0.029666 -0.235670 -0.032018  0.007165
     9 y      -0.036652  0.054293  0.000725  0.123696 -0.005495 -0.000435
     9 z       0.033156 -0.029581  0.007551 -0.122983  0.005493 -0.002803
    10 x      -0.002923 -0.255886  0.003944  0.003239 -0.153101  0.009641
    10 y      -0.002827  0.099803  0.063957 -0.004982  0.084887 -0.034179
    10 z       0.017213  0.427359 -0.146806 -0.007866  0.178987 -0.045532
    11 x       0.030387 -0.003091 -0.336740  0.005688 -0.142406 -0.305626
    11 y       0.014587  0.003589 -0.158512  0.003057 -0.065845 -0.143737
    11 z       0.025299  0.001620 -0.287300  0.004014 -0.124122 -0.261038
    12 x      -0.028251 -0.002900  0.315087 -0.018908  0.003134 -0.348554
    12 y      -0.027173  0.003401  0.298697 -0.018605  0.002106 -0.332941
    12 z       0.006510  0.001536 -0.062955  0.005279  0.001281  0.075195




--------------------------------------------------------------------------------
  Vibrational properties (for cluster):  Temperature  =       0.000 K
--------------------------------------------------------------------------------
  Zero point energy            =        0.666781 eV
--------------------------------------------------------------------------------

  Phonon density of states : 

--------------------------------------------------------------------------------
 Frequency (cm-1) Density of States                                             
--------------------------------------------------------------------------------
    0.00000 |************************************************************  0.069
   13.87942 |                                                              0.000
   27.75884 |                                                              0.000
   41.63825 |                                                              0.000
   55.51767 |******************************                                0.034
   69.39709 |******************************                                0.034
   83.27651 |******************************                                0.034
   97.15592 |                                                              0.000
  111.03534 |******************************                                0.034
  124.91476 |                                                              0.000
  138.79418 |******************************                                0.034
  152.67360 |******************************                                0.034
  166.55301 |                                                              0.000
  180.43243 |******************************                                0.034
  194.31185 |************************************************************  0.069
  208.19127 |******************************                                0.034
  222.07068 |                                                              0.000
  235.95010 |******************************                                0.034
  249.82952 |                                                              0.000
  263.70894 |******************************                                0.034
  277.58836 |                                                              0.000
  291.46777 |******************************                                0.034
  305.34719 |******************************                                0.034
  319.22661 |                                                              0.000
  333.10603 |                                                              0.000
  346.98544 |******************************                                0.034
  360.86486 |                                                              0.000
  374.74428 |                                                              0.000
  388.62370 |******************************                                0.034
  402.50312 |                                                              0.000
  416.38253 |                                                              0.000
  430.26195 |******************************                                0.034
  444.14137 |                                                              0.000
  458.02079 |                                                              0.000
  471.90021 |                                                              0.000
  485.77962 |                                                              0.000
  499.65904 |******************************                                0.034
  513.53846 |******************************                                0.034
  527.41788 |                                                              0.000
  541.29729 |                                                              0.000
  555.17671 |                                                              0.000
  569.05613 |                                                              0.000
  582.93555 |                                                              0.000
  596.81497 |                                                              0.000
  610.69438 |                                                              0.000
  624.57380 |******************************                                0.034
  638.45322 |                                                              0.000
  652.33264 |******************************                                0.034
  666.21205 |                                                              0.000
  680.09147 |                                                              0.000
  693.97089 |                                                              0.000
  707.85031 |************************************************************  0.069
  721.72973 |******************************                                0.034
  735.60914 |                                                              0.000
  749.48856 |******************************                                0.034
  763.36798 |                                                              0.000
  777.24740 |                                                              0.000
  791.12681 |                                                              0.000
  805.00623 |                                                              0.000
  818.88565 |                                                              0.000
  832.76507 |                                                              0.000
  846.64449 |                                                              0.000
  860.52390 |******************************                                0.034
  874.40332 |******************************                                0.034
--------------------------------------------------------------------------------



  Time to end of optimisation =       0.0409 seconds


  Peak dynamic memory used =       0.65 MB 


  Timing analysis for GULP :

--------------------------------------------------------------------------------
  Task / Subroutine                                          Time (Seconds)
--------------------------------------------------------------------------------
  Calculation of real space energy and derivatives                0.0028
  Calculation of phonons                                          0.0016
  Calculation and manipulation of Hessian matrix                  0.0018
--------------------------------------------------------------------------------
  Total CPU time                                                  0.0409
--------------------------------------------------------------------------------


  Job Finished at 14:38.45 25th May        2022                               

