------------------------------------------------------------
          Invoking FHI-aims ...

          When using FHI-aims, please cite the following reference:

            Volker Blum, Ralf Gehrke, Felix Hanke, Paula Havu,
            Ville Havu, Xinguo Ren, Karsten Reuter, and Matthias Scheffler,
            'Ab Initio Molecular Simulations with Numeric Atom-Centered Orbitals',
            Computer Physics Communications 180, 2175-2196 (2009)

          In addition, many other developments in FHI-aims are likely important for
          your particular application. A partial list of references is given at the end of
          this file. Thank you for giving credit to the authors of these developments.

          For any questions about FHI-aims, please visit our slack channel at

            https://fhi-aims.slack.com

          and our main development and support site at

            https://aims-git.rz-berlin.mpg.de .

          The latter site, in particular, has a wiki to collect information, as well
          as an issue tracker to log discussions, suggest improvements, and report issues
          or bugs. https://aims-git.rz-berlin.mpg.de is also the main development site
          of the project and all new and updated code versions can be obtained there.
          Please send an email to aims-coordinators@fhi-berlin.mpg.de and we will add
          you to these sites. They are for you and everyone is welcome there.

------------------------------------------------------------



  Date     :  20220517, Time     :  121705.817
  Time zero on CPU 1             :   0.402070000000000E-01  s.
  Internal wall clock time zero  :           422021825.817  s.

  FHI-aims created a unique identifier for this run for later identification
  aims_uuid : A161B4A3-D35E-49A1-A96B-6C5FBA8B70B4

  Build configuration of the current instance of FHI-aims
  -------------------------------------------------------
  FHI-aims version      : 210914
  Commit number         : GITDIR-NOTFOUND
  CMake host system     : Linux-3.10.0-693.17.1.el7.x86_64
  CMake version         : 3.21.1
  Fortran compiler      : /shared/ucl/apps/intel/2018.Update3/impi/2018.3.222/intel64/bin/mpiifort (Intel) version 18.0.3.20180410
  Fortran compiler flags: -O3 -ip -fp-model precise
  C compiler            : /shared/ucl/apps/intel/2018.Update3/compilers_and_libraries_2018.3.222/linux/bin/intel64/icc (Intel) version 18.0.3.20180410
  C compiler flags      : -O3 -ip -fp-model precise -std=gnu99
  ELPA2 kernel          : AVX2
  Using MPI
  Using ScaLAPACK
  Using LibXC
  Using i-PI
  Using RLSY
  Linking against: /shared/ucl/apps/intel/2019.Update5/compilers_and_libraries_2019.5.281/linux/mkl/lib/intel64/libmkl_intel_lp64.so
                   /shared/ucl/apps/intel/2019.Update5/compilers_and_libraries_2019.5.281/linux/mkl/lib/intel64/libmkl_sequential.so
                   /shared/ucl/apps/intel/2019.Update5/compilers_and_libraries_2019.5.281/linux/mkl/lib/intel64/libmkl_core.so
                   /shared/ucl/apps/intel/2019.Update5/compilers_and_libraries_2019.5.281/linux/mkl/lib/intel64/libmkl_blacs_intelmpi_lp64.so
                   /shared/ucl/apps/intel/2019.Update5/compilers_and_libraries_2019.5.281/linux/mkl/lib/intel64/libmkl_scalapack_lp64.so

  Using       24 parallel tasks.
  Task        0 on host node-k98a-018 reporting.
  Task        1 on host node-k98a-018 reporting.
  Task        2 on host node-k98a-018 reporting.
  Task        3 on host node-k98a-018 reporting.
  Task        4 on host node-k98a-018 reporting.
  Task        5 on host node-k98a-018 reporting.
  Task        6 on host node-k98a-018 reporting.
  Task        7 on host node-k98a-018 reporting.
  Task        8 on host node-k98a-018 reporting.
  Task        9 on host node-k98a-018 reporting.
  Task       10 on host node-k98a-018 reporting.
  Task       11 on host node-k98a-018 reporting.
  Task       12 on host node-k98a-018 reporting.
  Task       13 on host node-k98a-018 reporting.
  Task       14 on host node-k98a-018 reporting.
  Task       15 on host node-k98a-018 reporting.
  Task       16 on host node-k98a-018 reporting.
  Task       17 on host node-k98a-018 reporting.
  Task       18 on host node-k98a-018 reporting.
  Task       19 on host node-k98a-018 reporting.
  Task       20 on host node-k98a-018 reporting.
  Task       21 on host node-k98a-018 reporting.
  Task       22 on host node-k98a-018 reporting.
  Task       23 on host node-k98a-018 reporting.

  Performing system and environment tests:
  | Environment variable OMP_NUM_THREADS correctly set to 1.
  | Checking for ScaLAPACK...
  | Testing pdtran()...
  | All pdtran() tests passed.

  Obtaining array dimensions for all initial allocations:
  
  -----------------------------------------------------------------------
  Parsing control.in (first pass over file, find array dimensions only).
  The contents of control.in will be repeated verbatim below
  unless switched off by setting 'verbatim_writeout .false.' .
  in the first line of control.in .
  -----------------------------------------------------------------------
  
  #########################################################################################  Physical model
  #########################################################################################
  xc                 pbesol
  spin               none
  relativistic       atomic_zora scalar
  charge             0.0
  #  SCF convergence
  occupation_type    gaussian 0.01
  mixer              pulay
  n_max_pulay        10
  charge_mix_param   0.5
  sc_accuracy_rho    1E-5
  sc_accuracy_eev    1E-3
  sc_accuracy_etot   1E-6
  sc_accuracy_forces 1E-4
  sc_iter_limit      1500
  #  Relaxation
  #relax_geometry   bfgs 1.e-3
  
  ################################################################################
  #
  #  FHI-aims code project
  #  VB, Fritz-Haber Institut, 2009
  #
  #  Suggested "light" defaults for Al atom (to be pasted into control.in file)
  #  Be sure to double-check any results obtained with these settings for post-processing,
  #  e.g., with the "tight" defaults and larger basis sets.
  #
  ################################################################################
    species        Al
  #     global species definitions
      nucleus             13
      mass                26.9815386
  #
      l_hartree           4
  #
      cut_pot             3.5          1.5  1.0
      basis_dep_cutoff    1e-4
  #
      radial_base         41 5.0
      radial_multiplier   1
      angular_grids       specified
        division   0.6594  110
        division   0.8170  194
        division   0.9059  302
  #      division   1.0363  434
  #      division   1.1443  590
  #      division   1.2621  770
  #      division   2.8177  974
  #      outer_grid   974
        outer_grid   302
  ################################################################################
  #
  #  Definition of "minimal" basis
  #
  ################################################################################
  #     valence basis states
      valence      3  s   2.
      valence      3  p   1.
  #     ion occupancy
      ion_occ      3  s   1.
      ion_occ      2  p   6.
  ################################################################################
  #
  #  Suggested additional basis functions. For production calculations,
  #  uncomment them one after another (the most important basis functions are
  #  listed first).
  #
  #  Constructed for dimers: 2.0 A, 2.5 A, 3.0 A, 3.75 A, 4.5 A
  #
  ################################################################################
  #  "First tier" - improvements: -199.47 meV to -10.63 meV
       ionic 3 d auto
       ionic 3 p auto
  #     hydro 4 f 4.7
       ionic 3 s auto
  #  "Second tier" - improvements: -5.35 meV to -1.57 meV
  #     hydro 5 g 7
  #     hydro 3 d 6
  #     hydro 2 s 11.6
  #     hydro 2 p 0.9
  #  "Third tier" - improvements: -0.63 meV to -0.20 meV
  #     hydro 5 f 7.6
  #     hydro 4 p 7.2
  #     hydro 4 s 3.7
  #     hydro 4 d 7.6
  #  "Fourth tier" - improvements: -0.17 meV to -0.08 meV
  #     hydro 4 d 13.6
  #     hydro 5 g 11.2
  #     hydro 4 d 0.9
  #     hydro 1 s 0.4
  #     hydro 4 p 0.1
  #     hydro 5 f 9.8
  #  Further basis functions that fell out of the optimization - noise level...
  #     hydro 4 p 5
  
  ################################################################################
  #
  #  FHI-aims code project
  #  VB, Fritz-Haber Institut, 2009
  #
  #  Suggested "light" defaults for F atom (to be pasted into control.in file)
  #  Be sure to double-check any results obtained with these settings for post-processing,
  #  e.g., with the "tight" defaults and larger basis sets.
  #
  ################################################################################
    species        F
  #     global species definitions
      nucleus             9
      mass                18.9984032
  #
      l_hartree           4
  #
      cut_pot             3.5  1.5  1.0
      basis_dep_cutoff    1e-4
  #
      radial_base         37 5.0
      radial_multiplier   1
      angular_grids specified
        division   0.4014  110
        division   0.5291  194
        division   0.6019  302
  #      division   0.6814  434
  #      division   0.7989  590
  #      division   0.8965  770
  #      division   1.3427  974
  #      outer_grid   974
        outer_grid   302
  ################################################################################
  #
  #  Definition of "minimal" basis
  #
  ################################################################################
  #     valence basis states
      valence      2  s   2.
      valence      2  p   5.
  #     ion occupancy
      ion_occ      2  s   1.
      ion_occ      2  p   4.
  ################################################################################
  #
  #  Suggested additional basis functions. For production calculations,
  #  uncomment them one after another (the most important basis functions are
  #  listed first).
  #
  #  Constructed for dimers: 1.2 A, 1.418 A, 1.75 A, 2.25 A, 3.25 A
  #
  ################################################################################
  #  "First tier" - improvements: -149.44 meV to -45.88 meV
       hydro 2 p 1.7
       hydro 3 d 7.4
       hydro 3 s 6.8
  #  "Second tier" - improvements: -12.96 meV to -1.56 meV
  #     hydro 4 f 11.2
  #     ionic 2 p auto
  #     hydro 1 s 0.75
  #     hydro 4 d 8.8
  #     hydro 5 g 16.8
  #  "Third tier" - improvements: -0.58 meV to -0.05 meV
  #     hydro 3 p 6.2
  #     hydro 3 s 3.2
  #     hydro 4 f 9.6
  #     hydro 3 s 19.6
  #     hydro 4 d 8.6
  #     hydro 5 g 14.4
  # Further basis functions: -0.05 meV and below
  #     hydro 3 p 4.2
  
  -----------------------------------------------------------------------
  Completed first pass over input file control.in .
  -----------------------------------------------------------------------
  
  
  -----------------------------------------------------------------------
  Parsing geometry.in (first pass over file, find array dimensions only).
  The contents of geometry.in will be repeated verbatim below
  unless switched off by setting 'verbatim_writeout .false.' .
  in the first line of geometry.in .
  -----------------------------------------------------------------------
  
  atom -1.693793189 2.554219885 -1.224930806 Al
  atom -0.535398370 0.004800804 -2.353743956 Al
  atom -2.208385986 -0.335593712 -0.517960249 Al
  atom -0.699798880 3.605908111 -0.124077373 F
  atom -3.001119170 3.227879466 -2.291412519 F
  atom -1.325722888 -1.677801437 -1.674210154 F
  atom -2.589784480 1.450192110 0.018918185 F
  atom -3.234124130 -1.312201746 0.608195364 F
  atom 0.630091490 -0.525968860 -3.632042000 F
  atom -0.376000493 1.900619722 -2.410286322 F
  atom -2.468466557 0.434906951 -2.323873428 F
  atom -0.326362363 0.239337380 -0.407992788 F
  
  -----------------------------------------------------------------------
  Completed first pass over input file geometry.in .
  -----------------------------------------------------------------------
  

  Basic array size parameters:
  | Number of species                 :        2
  | Number of atoms                   :       12
  | Max. basis fn. angular momentum   :        2
  | Max. atomic/ionic basis occupied n:        3
  | Max. number of basis fn. types    :        3
  | Max. radial fns per species/type  :        5
  | Max. logarithmic grid size        :     1340
  | Max. radial integration grid size :       41
  | Max. angular integration grid size:      302
  | Max. angular grid division number :        8
  | Radial grid for Hartree potential :     1340
  | Number of spin channels           :        1

------------------------------------------------------------
          Reading file control.in.
------------------------------------------------------------
  XC: Using PBEsol gradient-corrected functionals.
  Spin treatment: No spin polarisation.
  Scalar relativistic treatment of kinetic energy: on-site free-atom approximation to ZORA.
  Charge =   0.000000E+00: Neutral system requested explicitly.
  Occupation type: Gaussian broadening, width =   0.100000E-01 eV.
  Using pulay charge density mixing.
  Pulay mixing - number of memorized iterations:   10
  Charge density mixing - mixing parameter:     0.5000
  Convergence accuracy of self-consistent charge density:  0.1000E-04
  Convergence accuracy of sum of eigenvalues:  0.1000E-02
  Convergence accuracy of total energy:  0.1000E-05
  Convergence accuracy of forces:  0.1000E-03
  Maximum number of s.-c. iterations  :  1500
 
  Reading configuration options for species Al                  .
  | Found nuclear charge :  13.0000
  | Found atomic mass :    26.9815386000000      amu
  | Found l_max for Hartree potential  :   4
  | Found cutoff potl. onset [A], width [A], scale factor :    3.50000    1.50000    1.00000
  | Threshold for basis-dependent cutoff potential is   0.100000E-03
  | Found data for basic radial integration grid :    41 points, outermost radius =    5.000 A
  | Found multiplier for basic radial grid :   1
  | Found angular grid specification: user-specified.
  | Specified grid contains     4 separate shells.
  | Check grid settings after all constraints further below.
  | Found free-atom valence shell :  3 s   2.000
  | Found free-atom valence shell :  3 p   1.000
  | Found free-ion valence shell :  3 s   1.000
  | Found free-ion valence shell :  2 p   6.000
  | Found ionic basis function :  3 d , default cutoff radius.
  | Found ionic basis function :  3 p , default cutoff radius.
  | Found ionic basis function :  3 s , default cutoff radius.
  Species Al                  : Missing cutoff potential type.
  Defaulting to exp(1/x)/(1-x)^2 type cutoff potential.
  Species Al: No 'logarithmic' tag. Using default grid for free atom:
  | Default logarithmic grid data [bohr] : 0.1000E-03 0.1000E+03 0.1012E+01
  | Will include ionic basis functions of  2.0-fold positive Al                   ion.
  Species Al: On-site basis accuracy parameter (for Gram-Schmidt orthonormalisation) not specified.
  Using default value basis_acc =  0.1000000E-03.
  Species Al                  : Using default innermost maximum threshold i_radial=  2 for radial functions.
  Species Al                  : Default cutoff onset for free atom density etc. : 0.35000000E+01 AA.
  Species Al                  : Basic radial grid will be enhanced according to radial_multiplier =   1, to contain    41 grid points.
 
  Reading configuration options for species F                   .
  | Found nuclear charge :   9.0000
  | Found atomic mass :    18.9984032000000      amu
  | Found l_max for Hartree potential  :   4
  | Found cutoff potl. onset [A], width [A], scale factor :    3.50000    1.50000    1.00000
  | Threshold for basis-dependent cutoff potential is   0.100000E-03
  | Found data for basic radial integration grid :    37 points, outermost radius =    5.000 A
  | Found multiplier for basic radial grid :   1
  | Found angular grid specification: user-specified.
  | Specified grid contains     4 separate shells.
  | Check grid settings after all constraints further below.
  | Found free-atom valence shell :  2 s   2.000
  | Found free-atom valence shell :  2 p   5.000
  | Found free-ion valence shell :  2 s   1.000
  | Found free-ion valence shell :  2 p   4.000
  | Found hydrogenic basis function :  2 p   1.700
  | Found hydrogenic basis function :  3 d   7.400
  | Found hydrogenic basis function :  3 s   6.800
  Species F                   : Missing cutoff potential type.
  Defaulting to exp(1/x)/(1-x)^2 type cutoff potential.
  Species F : No 'logarithmic' tag. Using default grid for free atom:
  | Default logarithmic grid data [bohr] : 0.1000E-03 0.1000E+03 0.1012E+01
  Species F : On-site basis accuracy parameter (for Gram-Schmidt orthonormalisation) not specified.
  Using default value basis_acc =  0.1000000E-03.
  Species F                   : Using default innermost maximum threshold i_radial=  2 for radial functions.
  Species F                   : Default cutoff onset for free atom density etc. : 0.35000000E+01 AA.
  Species F                   : Basic radial grid will be enhanced according to radial_multiplier =   1, to contain    37 grid points.
 
  Finished reading input file 'control.in'.
 
------------------------------------------------------------


------------------------------------------------------------
          Reading geometry description geometry.in.
------------------------------------------------------------
  | The smallest distance between any two atoms is         1.80945529 AA.
  | The first atom of this pair is atom number                      3 .
  | The second atom of this pair is atom number                     8 .
  Input structure read successfully.
  The structure contains       12 atoms,  and a total of        120.000 electrons.

  Input geometry:
  | No unit cell requested.
  | Atomic structure:
  |       Atom                x [A]            y [A]            z [A]
  |    1: Species Al           -1.69379319        2.55421989       -1.22493081
  |    2: Species Al           -0.53539837        0.00480080       -2.35374396
  |    3: Species Al           -2.20838599       -0.33559371       -0.51796025
  |    4: Species F            -0.69979888        3.60590811       -0.12407737
  |    5: Species F            -3.00111917        3.22787947       -2.29141252
  |    6: Species F            -1.32572289       -1.67780144       -1.67421015
  |    7: Species F            -2.58978448        1.45019211        0.01891819
  |    8: Species F            -3.23412413       -1.31220175        0.60819536
  |    9: Species F             0.63009149       -0.52596886       -3.63204200
  |   10: Species F            -0.37600049        1.90061972       -2.41028632
  |   11: Species F            -2.46846656        0.43490695       -2.32387343
  |   12: Species F            -0.32636236        0.23933738       -0.40799279

 
  Finished reading input file 'control.in'.
 

------------------------------------------------------------
          Reading geometry description geometry.in.
------------------------------------------------------------
 
  Consistency checks for stacksize environment parameter are next.
 
  | Maximum stacksize for task 0: unlimited
  | Maximum stacksize for task 1: unlimited
  | Maximum stacksize for task 2: unlimited
  | Maximum stacksize for task 3: unlimited
  | Maximum stacksize for task 4: unlimited
  | Maximum stacksize for task 5: unlimited
  | Maximum stacksize for task 6: unlimited
  | Maximum stacksize for task 7: unlimited
  | Maximum stacksize for task 8: unlimited
  | Maximum stacksize for task 9: unlimited
  | Maximum stacksize for task 10: unlimited
  | Maximum stacksize for task 11: unlimited
  | Maximum stacksize for task 12: unlimited
  | Maximum stacksize for task 13: unlimited
  | Maximum stacksize for task 14: unlimited
  | Maximum stacksize for task 15: unlimited
  | Maximum stacksize for task 16: unlimited
  | Maximum stacksize for task 17: unlimited
  | Maximum stacksize for task 18: unlimited
  | Maximum stacksize for task 19: unlimited
  | Maximum stacksize for task 20: unlimited
  | Maximum stacksize for task 21: unlimited
  | Maximum stacksize for task 22: unlimited
  | Maximum stacksize for task 23: unlimited
  | Current stacksize for task 0: unlimited
  | Current stacksize for task 1: unlimited
  | Current stacksize for task 2: unlimited
  | Current stacksize for task 3: unlimited
  | Current stacksize for task 4: unlimited
  | Current stacksize for task 5: unlimited
  | Current stacksize for task 6: unlimited
  | Current stacksize for task 7: unlimited
  | Current stacksize for task 8: unlimited
  | Current stacksize for task 9: unlimited
  | Current stacksize for task 10: unlimited
  | Current stacksize for task 11: unlimited
  | Current stacksize for task 12: unlimited
  | Current stacksize for task 13: unlimited
  | Current stacksize for task 14: unlimited
  | Current stacksize for task 15: unlimited
  | Current stacksize for task 16: unlimited
  | Current stacksize for task 17: unlimited
  | Current stacksize for task 18: unlimited
  | Current stacksize for task 19: unlimited
  | Current stacksize for task 20: unlimited
  | Current stacksize for task 21: unlimited
  | Current stacksize for task 22: unlimited
  | Current stacksize for task 23: unlimited
 
  Consistency checks for the contents of control.in are next.
 
  MPI_IN_PLACE appears to work with this MPI implementation.
  | Keeping use_mpi_in_place .true. (see manual).
  Target number of points in a grid batch is not set. Defaulting to  100
  Method for grid partitioning is not set. Defaulting to parallel hash+maxmin partitioning.
  Batch size limit is not set. Defaulting to    200
  By default, will store active basis functions for each batch.
  If in need of memory, prune_basis_once .false. can be used to disable this option.
  communication_type for Hartree potential was not specified.
  Defaulting to calc_hartree .
  Pulay mixer: Number of initial linear mixing iterations not set.
  Defaulting to    0 iterations.
  Work space size for distributed Hartree potential not set.
  Defaulting to   0.200000E+03 MB.
  Algorithm-dependent basis array size parameters:
  | n_max_pulay                         :       10
  Presetting      1001 iterations before the initial mixing cycle
  is restarted anyway using the sc_init_iter criterion / keyword.
  Presetting a factor      1.000 between actual scf density residual
  and density convergence criterion sc_accuracy_rho below which sc_init_iter
  takes no effect.
  Geometry relaxation not requested: no relaxation will be performed.
  Forces evaluation will include force correction term due to incomplete self-consistency (default).
  Handling of forces: Unphysical translation and rotation will be removed from forces.
  No accuracy limit for integral partition fn. given. Defaulting to  0.1000E-14.
  No threshold value for u(r) in integrations given. Defaulting to  0.1000E-05.
  No accuracy for occupation numbers given. Defaulting to  0.1000E-12.
  No threshold value for occupation numbers given. Defaulting to  0.0000E+00.
  No accuracy for fermi level given. Defaulting to  0.1000E-19.
  Maximum # of iterations to find E_F not set. Defaulting to  200.
  Preferred method for the eigenvalue solver ('KS_method') not specified in 'control.in'.
  Calling BLACS routine to test compilation state
  Since ScaLAPACK support is enabled, defaulting to ELPA (via ELSI).
  Will not use alltoall communication since running on < 1024 CPUs.
  Threshold for basis singularities not set.
  Default threshold for basis singularities:  0.1000E-04
  partition_type (choice of integration weights) for integrals was not specified.
  | Using a version of the partition function of Stratmann and coworkers ('stratmann_sparse').
  | At each grid point, the set of atoms used to build the partition table is smoothly restricted to
  | only those atoms whose free-atom density would be non-zero at that grid point.
  Partitioning for Hartree potential was not defined. Using partition_type for integrals.
  | Adjusted default value of keyword multip_moments_threshold to:       0.10000000E-11
  | This value may affect high angular momentum components of the Hartree potential in periodic systems.
  No q(lm)/r^(l+1) cutoff set for long-range Hartree potential.
  | Using default value of  0.100000E-09 .
  | Verify using the multipole_threshold keyword.
  Defaulting to new monopole extrapolation.
  Density update method: automatic selection selected.
  Charge integration errors on the 3D integration grid will be compensated
  by explicit normalization and distribution of residual charges.
  Use the "compensate_multipole_errors" flag to change this behaviour.
  Set 'collect_eigenvectors' to be '.true.' for use_density_matrix .false.
 
  Consistency checks for the contents of geometry.in are next.
 
  Number of empty states per atom not set in control.in - providing a guess from actual geometry.
  | Total number of empty states used during s.c.f. cycle:       36
  If you use a very high smearing, use empty_states (per atom!) in control.in to increase this value.

  Structure-dependent array size parameters: 
  | Maximum number of distinct radial functions  :       14
  | Maximum number of basis functions            :      180
  | Number of Kohn-Sham states (occupied + empty):       96
------------------------------------------------------------

------------------------------------------------------------
          Preparing all fixed parts of the calculation.
------------------------------------------------------------
  Determining machine precision:
    2.225073858507201E-308
  Setting up grids for atomic and cluster calculations.

  Creating wave function, potential, and density for free atoms.

  Species: Al

  List of occupied orbitals and eigenvalues:
    n    l              occ      energy [Ha]    energy [eV]
    1    0           2.0000       -55.621123     -1513.5278
    2    0           2.0000        -3.957030      -107.6763
    3    0           2.0000        -0.272233        -7.4078
    2    1           6.0000        -2.540949       -69.1427
    3    1           1.0000        -0.083300        -2.2667


  Species: F

  List of occupied orbitals and eigenvalues:
    n    l              occ      energy [Ha]    energy [eV]
    1    0           2.0000       -24.399611      -663.9472
    2    0           2.0000        -1.098702       -29.8972
    2    1           5.0000        -0.408210       -11.1080


  Adding cutoff potential to free-atom effective potential.
  Creating fixed part of basis set: Ionic, confined, hydrogenic.
 
  Al                   ion:

  List of free ionic orbitals and eigenvalues:
    n    l      energy [Ha]    energy [eV]
    1    0       -56.418846     -1535.2349
    2    0        -4.732717      -128.7838
    3    0        -0.872690       -23.7471
    2    1        -3.317230       -90.2664


  List of ionic basis orbitals and eigenvalues:
    n    l      energy [Ha]    energy [eV]    outer radius [A]
    3    2        -0.346815        -9.4373       4.594041
    3    1        -0.631870       -17.1940       4.538221
    3    0        -0.872657       -23.7462       4.538221

 
  F                    hydrogenic:
 
  List of hydrogenic basis orbitals: 
    n    l      effective z      eigenvalue [eV]  inner max. [A]     outer max. [A]     outer radius [A]   
    2    1         1.700000        -9.7616           1.243167           1.243167           4.598524
    3    2         7.400000       -82.7828           0.642437           0.642437           3.305741
    3    0         6.800000       -69.9026           0.057798           1.022307           3.781556
 
  Creating atomic-like basis functions for current effective potential.

  Species Al                  :

  List of atomic basis orbitals and eigenvalues:
    n    l      energy [Ha]    energy [eV]    outer radius [A]
    1    0       -55.621123     -1513.5278       0.850197
    2    0        -3.957030      -107.6763       3.144911
    3    0        -0.272233        -7.4078       4.594041
    2    1        -2.540949       -69.1427       3.731966
    3    1        -0.083300        -2.2667       4.594041


  Species F                   :

  List of atomic basis orbitals and eigenvalues:
    n    l      energy [Ha]    energy [eV]    outer radius [A]
    1    0       -24.399611      -663.9472       1.258458
    2    0        -1.098702       -29.8972       4.325857
    2    1        -0.408210       -11.1080       4.487453

  Assembling full basis from fixed parts.
  | Species Al :   atomic orbital   1 s accepted.
  | Species Al :   atomic orbital   2 s accepted.
  | Species Al :    ionic orbital   3 s accepted.
  | Species Al :   atomic orbital   3 s accepted.
  | Species Al :   atomic orbital   2 p accepted.
  | Species Al :    ionic orbital   3 p accepted.
  | Species Al :   atomic orbital   3 p accepted.
  | Species Al :    ionic orbital   3 d accepted.
  | Species F :   atomic orbital   1 s accepted.
  | Species F :    hydro orbital   3 s accepted.
  | Species F :   atomic orbital   2 s accepted.
  | Species F :   atomic orbital   2 p accepted.
  | Species F :    hydro orbital   2 p accepted.
  | Species F :    hydro orbital   3 d accepted.
 
  Basis size parameters after reduction:
  | Total number of radial functions:       14
  | Total number of basis functions :      180
 
  Per-task memory consumption for arrays in subroutine allocate_ext:
  |           4.807768MB.
  Testing on-site integration grid accuracy.
  |  Species  Function  <phi|h_atom|phi> (log., in eV)  <phi|h_atom|phi> (rad., in eV)
           1        1              -1513.5277717935              -1513.5271881332
           1        2               -107.6762691836               -107.6762662489
           1        3                 -6.9467474784                 -6.9471269649
           1        4                  5.5771951849                  5.4862107220 ***
           1        5                -69.1427313144                -69.1427312731
           1        6                 -1.5197375330                 -1.5230432022
           1        7                  6.8210948310                  6.5529872240 ***
           1        8                  4.3216540965                  4.2851170187 ***
           2        9               -663.9471986398               -663.9470363334
           2       10                 16.8514011578                 16.8512525338
           2       11                -28.4490593856                -28.4490661472
           2       12                -11.1080115307                -11.1080620173
           2       13                  7.1940182175                  7.1685154137
           2       14                 44.8544281765                 44.8543763625
 * Note: Onsite integrals marked "***" above are less accurate than
 * onsite_accuracy_threshold =    0.03000 eV. Usually, this is harmless.
 * When in doubt, tighten the "radial" and/or "radial_multiplier" flags to check.

  Preparing densities etc. for the partition functions (integrals / Hartree potential).

  Preparations completed.
  max(cpu_time)          :      0.184 s.
  Wall clock time (cpu1) :      0.184 s.
------------------------------------------------------------

------------------------------------------------------------
          Begin self-consistency loop: Initialization.

          Date     :  20220517, Time     :  121706.046
------------------------------------------------------------

  Initializing index lists of integration centers etc. from given atomic structure:
  | Number of centers in hartree potential         :        12
  | Number of centers in hartree multipole         :        12
  | Number of centers in electron density summation:        12
  | Number of centers in basis integrals           :        12
  | Number of centers in integrals                 :        12
  | Number of centers in hamiltonian               :        12
  * Using 24 tasks for Scalapack Eigenvalue solver.
  Detailed listing of tasks and assigned k-points:
  (for non-periodic systems, the "k-point" denotes an internal label only)
   Task     0 k-point     1 on node-k98a-018
   Task     1 k-point     1 on node-k98a-018
   Task     2 k-point     1 on node-k98a-018
   Task     3 k-point     1 on node-k98a-018
   Task     4 k-point     1 on node-k98a-018
   Task     5 k-point     1 on node-k98a-018
   Task     6 k-point     1 on node-k98a-018
   Task     7 k-point     1 on node-k98a-018
   Task     8 k-point     1 on node-k98a-018
   Task     9 k-point     1 on node-k98a-018
   Task    10 k-point     1 on node-k98a-018
   Task    11 k-point     1 on node-k98a-018
   Task    12 k-point     1 on node-k98a-018
   Task    13 k-point     1 on node-k98a-018
   Task    14 k-point     1 on node-k98a-018
   Task    15 k-point     1 on node-k98a-018
   Task    16 k-point     1 on node-k98a-018
   Task    17 k-point     1 on node-k98a-018
   Task    18 k-point     1 on node-k98a-018
   Task    19 k-point     1 on node-k98a-018
   Task    20 k-point     1 on node-k98a-018
   Task    21 k-point     1 on node-k98a-018
   Task    22 k-point     1 on node-k98a-018
   Task    23 k-point     1 on node-k98a-018
  Tasks:    24 split into      6 X      4 BLACS grid
  Calculating block size based on n_basis =          180  max_nprow =            6  max_npcol =            4
  ScaLAPACK block size set to:           16
  Allocating        0.012 MB for ovlp
  Allocating        0.012 MB for ham
  Allocating        0.012 MB for eigenvec
  Required Scalapack workspace - INTEGER:            1  REAL:             1
  Partitioning the integration grid into batches with parallel hashing+maxmin method.
  | Number of batches:     1068
  | Maximal batch size:     196
  | Minimal batch size:      43
  | Average batch size:      86.067
  | Standard deviation of batch sizes:      20.817

  Integration load balanced across    24 MPI tasks.
  Work distribution over tasks is as follows:
  Task     0 has       3864 integration points.
  Task     1 has       3808 integration points.
  Task     2 has       3799 integration points.
  Task     3 has       3801 integration points.
  Task     4 has       3773 integration points.
  Task     5 has       3860 integration points.
  Task     6 has       3801 integration points.
  Task     7 has       3857 integration points.
  Task     8 has       3894 integration points.
  Task     9 has       3861 integration points.
  Task    10 has       3769 integration points.
  Task    11 has       3772 integration points.
  Task    12 has       3774 integration points.
  Task    13 has       3891 integration points.
  Task    14 has       3856 integration points.
  Task    15 has       3887 integration points.
  Task    16 has       3785 integration points.
  Task    17 has       3853 integration points.
  Task    18 has       3869 integration points.
  Task    19 has       3863 integration points.
  Task    20 has       3866 integration points.
  Task    21 has       3843 integration points.
  Task    22 has       3795 integration points.
  Task    23 has       3779 integration points.
  Initializing partition tables, free-atom densities, potentials, etc. across the integration grid (initialize_grid_storage).
  | initialize_grid_storage: Actual outermost partition radius vs. multipole_radius_free
  | (-- VB: in principle, multipole_radius_free should be larger, hence this output)
  | Species        1: Confinement radius =              4.999999999999999 AA, multipole_radius_free =              5.004487022111096 AA.
  | Species        1: outer_partition_radius set to              5.004487022111096 AA .
  | Species        2: Confinement radius =              4.999999999999999 AA, multipole_radius_free =              5.009370088163274 AA.
  | Species        2: outer_partition_radius set to              5.009370088163274 AA .
  | The sparse table of interatomic distances needs          1.64 kbyte instead of         1.15 kbyte of memory.
  | Using the partition_type stratmann_smoother will reduce your memory usage.
  | Net number of integration points:    91920
  | of which are non-zero points    :    84971
  Renormalizing the initial density to the exact electron count on the 3D integration grid.
  | Initial density: Formal number of electrons (from input files) :     120.0000000000
  | Integrated number of electrons on 3D grid     :     119.9999786593
  | Charge integration error                      :      -0.0000213407
  | Normalization factor for density and gradient :       1.0000001778
  Renormalizing the free-atom superposition density to the exact electron count on the 3D integration grid.
  | Formal number of electrons (from input files) :     120.0000000000
  | Integrated number of electrons on 3D grid     :     119.9999786593
  | Charge integration error                      :      -0.0000213407
  | Normalization factor for density and gradient :       1.0000001778
  Obtaining max. number of non-zero basis functions in each batch (get_n_compute_maxes).
  | Maximal number of non-zero basis functions:      166 in task     0
  | Maximal number of non-zero basis functions:      164 in task     1
  | Maximal number of non-zero basis functions:      166 in task     2
  | Maximal number of non-zero basis functions:      164 in task     3
  | Maximal number of non-zero basis functions:      163 in task     4
  | Maximal number of non-zero basis functions:      164 in task     5
  | Maximal number of non-zero basis functions:      172 in task     6
  | Maximal number of non-zero basis functions:      166 in task     7
  | Maximal number of non-zero basis functions:      170 in task     8
  | Maximal number of non-zero basis functions:      166 in task     9
  | Maximal number of non-zero basis functions:      169 in task    10
  | Maximal number of non-zero basis functions:      171 in task    11
  | Maximal number of non-zero basis functions:      171 in task    12
  | Maximal number of non-zero basis functions:      165 in task    13
  | Maximal number of non-zero basis functions:      170 in task    14
  | Maximal number of non-zero basis functions:      166 in task    15
  | Maximal number of non-zero basis functions:      170 in task    16
  | Maximal number of non-zero basis functions:      172 in task    17
  | Maximal number of non-zero basis functions:      172 in task    18
  | Maximal number of non-zero basis functions:      165 in task    19
  | Maximal number of non-zero basis functions:      171 in task    20
  | Maximal number of non-zero basis functions:      167 in task    21
  | Maximal number of non-zero basis functions:      166 in task    22
  | Maximal number of non-zero basis functions:      170 in task    23
  Selecting the method for density update.
  Loop over occupied states selected for charge density update.
  Allocating        0.132 MB for KS_eigenvector
  Integrating Hamiltonian matrix: batch-based integration.
  Time summed over all CPUs for integration: real work        0.763 s, elapsed        0.799 s
  Integrating overlap matrix.
  Time summed over all CPUs for integration: real work        0.294 s, elapsed        0.315 s
  Deallocating overlap matrix.

  Updating Kohn-Sham eigenvalues and eigenvectors using ELSI and the ELPA eigensolver.
  Overlap matrix is not singular
  | Lowest and highest eigenvalues :  0.2201E-02,  0.5793E+01
  Finished singularity check of overlap matrix
  | Time :     0.004 s
  Starting ELPA eigensolver
  Finished Cholesky decomposition
  | Time :     0.002 s
  Finished transformation to standard eigenproblem
  | Time :     0.001 s
  Finished solving standard eigenproblem
  | Time :     0.003 s
  Finished back-transformation of eigenvectors
  | Time :     0.001 s

  Obtaining occupation numbers and chemical potential using ELSI.
  | Chemical potential (Fermi level):    -7.51207277 eV
  Writing Kohn-Sham eigenvalues.

  State    Occupation    Eigenvalue [Ha]    Eigenvalue [eV]
      1       2.00000         -55.486977        -1509.87746
      2       2.00000         -55.486977        -1509.87746
      3       2.00000         -55.483732        -1509.78916
      4       2.00000         -24.362965         -662.95001
      5       2.00000         -24.362965         -662.95001
      6       2.00000         -24.353397         -662.68965
      7       2.00000         -24.351910         -662.64918
      8       2.00000         -24.349251         -662.57684
      9       2.00000         -24.341344         -662.36166
     10       2.00000         -24.341343         -662.36166
     11       2.00000         -24.340507         -662.33890
     12       2.00000         -24.340320         -662.33381
     13       2.00000          -3.952746         -107.55970
     14       2.00000          -3.952619         -107.55624
     15       2.00000          -3.948926         -107.45574
     16       2.00000          -2.546971          -69.30660
     17       2.00000          -2.545860          -69.27639
     18       2.00000          -2.544335          -69.23489
     19       2.00000          -2.544157          -69.23003
     20       2.00000          -2.542992          -69.19834
     21       2.00000          -2.542860          -69.19475
     22       2.00000          -2.541257          -69.15112
     23       2.00000          -2.540573          -69.13250
     24       2.00000          -2.540568          -69.13236
     25       2.00000          -1.193678          -32.48163
     26       2.00000          -1.183197          -32.19643
     27       2.00000          -1.175433          -31.98516
     28       2.00000          -1.169214          -31.81593
     29       2.00000          -1.158577          -31.52650
     30       2.00000          -1.150132          -31.29667
     31       2.00000          -1.149981          -31.29258
     32       2.00000          -1.149519          -31.28000
     33       2.00000          -1.147576          -31.22713
     34       2.00000          -0.568200          -15.46152
     35       2.00000          -0.551262          -15.00061
     36       2.00000          -0.548268          -14.91913
     37       2.00000          -0.528679          -14.38608
     38       2.00000          -0.519343          -14.13205
     39       2.00000          -0.510599          -13.89411
     40       2.00000          -0.507607          -13.81269
     41       2.00000          -0.504083          -13.71679
     42       2.00000          -0.497754          -13.54458
     43       2.00000          -0.497098          -13.52673
     44       2.00000          -0.487538          -13.26659
     45       2.00000          -0.481807          -13.11063
     46       2.00000          -0.479893          -13.05855
     47       2.00000          -0.473956          -12.89701
     48       2.00000          -0.472045          -12.84500
     49       2.00000          -0.468823          -12.75734
     50       2.00000          -0.465480          -12.66636
     51       2.00000          -0.459802          -12.51184
     52       2.00000          -0.453104          -12.32959
     53       2.00000          -0.452298          -12.30764
     54       2.00000          -0.452069          -12.30143
     55       2.00000          -0.451849          -12.29544
     56       2.00000          -0.450843          -12.26808
     57       2.00000          -0.448350          -12.20022
     58       2.00000          -0.447490          -12.17681
     59       2.00000          -0.447010          -12.16375
     60       2.00000          -0.442037          -12.02845
     61       0.00000          -0.139867           -3.80597
     62       0.00000          -0.080635           -2.19418
     63       0.00000          -0.077695           -2.11418
     64       0.00000          -0.029094           -0.79169
     65       0.00000          -0.016491           -0.44873
     66       0.00000           0.006204            0.16882
     67       0.00000           0.023050            0.62721
     68       0.00000           0.029489            0.80243
     69       0.00000           0.051451            1.40006
     70       0.00000           0.060719            1.65224
     71       0.00000           0.092557            2.51860
     72       0.00000           0.125662            3.41943
     73       0.00000           0.139994            3.80944
     74       0.00000           0.166294            4.52510
     75       0.00000           0.173126            4.71100
     76       0.00000           0.174824            4.75721
     77       0.00000           0.185767            5.05498
     78       0.00000           0.190875            5.19397
     79       0.00000           0.211707            5.76085
     80       0.00000           0.224408            6.10646
     81       0.00000           0.226181            6.15469
     82       0.00000           0.232884            6.33709
     83       0.00000           0.238398            6.48713
     84       0.00000           0.245504            6.68051
     85       0.00000           0.258053            7.02199
     86       0.00000           0.262489            7.14269
     87       0.00000           0.266944            7.26392
     88       0.00000           0.270150            7.35115
     89       0.00000           0.271813            7.39640
     90       0.00000           0.305517            8.31355
     91       0.00000           0.311168            8.46730
     92       0.00000           0.334462            9.10118
     93       0.00000           0.352180            9.58330
     94       0.00000           0.359569            9.78438
     95       0.00000           0.375363           10.21416
     96       0.00000           0.378611           10.30254

  Highest occupied state (VBM) at    -12.02844705 eV
  | Occupation number:      2.00000000

  Lowest unoccupied state (CBM) at    -3.80597267 eV
  | Occupation number:      0.00000000

  Overall HOMO-LUMO gap:      8.22247437 eV.
  Calculating total energy contributions from superposition of free atom densities.

  Total energy components:
  | Sum of eigenvalues            :        -887.78029848 Ha      -24157.73105335 eV
  | XC energy correction          :        -144.42109134 Ha       -3929.89784623 eV
  | XC potential correction       :         188.04902250 Ha        5117.07425621 eV
  | Free-atom electrostatic energy:        -781.19268481 Ha      -21257.33451491 eV
  | Hartree energy correction     :           0.00000000 Ha           0.00000000 eV
  | Entropy correction            :           0.00000000 Ha           0.00000000 eV
  | ---------------------------
  | Total energy                  :       -1625.34505212 Ha      -44227.88915828 eV
  | Total energy, T -> 0          :       -1625.34505212 Ha      -44227.88915828 eV  <-- do not rely on this value for anything but (periodic) metals
  | Electronic free energy        :       -1625.34505212 Ha      -44227.88915828 eV

  Derived energy quantities:
  | Kinetic energy                :        1627.81062327 Ha       44294.98076301 eV
  | Electrostatic energy          :       -3108.73458405 Ha      -84592.97207505 eV
  | Energy correction for multipole
  | error in Hartree potential    :           0.00000000 Ha           0.00000000 eV
  | Sum of eigenvalues per atom                           :       -2013.14425445 eV
  | Total energy (T->0) per atom                          :       -3685.65742986 eV  <-- do not rely on this value for anything but (periodic) metals
  | Electronic free energy per atom                       :       -3685.65742986 eV
  Initialize hartree_potential_storage
  Max. number of atoms included in rho_multipole:           12

  End scf initialization - timings             :  max(cpu_time)    wall_clock(cpu1)
  | Time for scf. initialization                :        0.122 s           0.122 s
  | Boundary condition initialization           :        0.000 s           0.000 s
  | Integration                                 :        0.048 s           0.048 s
  | Solution of K.-S. eqns.                     :        0.012 s           0.012 s
  | Grid partitioning                           :        0.038 s           0.038 s
  | Preloading free-atom quantities on grid     :        0.016 s           0.015 s
  | Free-atom superposition energy              :        0.005 s           0.005 s
  | Total energy evaluation                     :        0.000 s           0.001 s

  Partial memory accounting:
  | Current value for overall tracked memory usage:
  |   Minimum:        0.273 MB (on task 23)
  |   Maximum:        0.292 MB (on task  0)
  |   Average:        0.287 MB
  | Peak value for overall tracked memory usage:
  |   Minimum:        1.352 MB (on task  3 after allocating wave)
  |   Maximum:        1.417 MB (on task  6 after allocating wave)
  |   Average:        1.383 MB
  | Largest tracked array allocation so far:
  |   Minimum:        0.244 MB (H_times_psi on task  4)
  |   Maximum:        0.523 MB (all_coords on task 10)
  |   Average:        0.284 MB
  Note:  These values currently only include a subset of arrays which are explicitly tracked.
  The "true" memory usage will be greater.
------------------------------------------------------------
  Evaluating new KS density.
  Integration grid: deviation in total charge (<rho> - N_e) =   2.842171E-14

  Time for density update prior                :  max(cpu_time)    wall_clock(cpu1)
  | self-consistency iterative process          :        0.030 s           0.030 s

------------------------------------------------------------
          Begin self-consistency iteration #    1

  Date     :  20220517, Time     :  121706.198
------------------------------------------------------------
  Pulay mixing of updated and previous charge densities.
  Renormalizing the density to the exact electron count on the 3D integration grid.
  | Formal number of electrons (from input files) :     120.0000000000
  | Integrated number of electrons on 3D grid     :     120.0000000000
  | Charge integration error                      :       0.0000000000
  | Normalization factor for density and gradient :       1.0000000000

  Evaluating partitioned Hartree potential by multipole expansion.
  | Original multipole sum: apparent total charge =   0.164436E-13
  | Sum of charges compensated after spline to logarithmic grids =   0.747755E-04
  | Analytical far-field extrapolation by fixed multipoles:
  | Hartree multipole sum: apparent total charge =   0.163452E-13
  Summing up the Hartree potential.
  Time summed over all CPUs for potential: real work        0.382 s, elapsed        0.399 s
  | RMS charge density error from multipole expansion :   0.110509E-01

  Integrating Hamiltonian matrix: batch-based integration.
  Time summed over all CPUs for integration: real work        0.716 s, elapsed        0.749 s

  Updating Kohn-Sham eigenvalues and eigenvectors using ELSI and the ELPA eigensolver.
  Starting ELPA eigensolver
  Finished transformation to standard eigenproblem
  | Time :     0.001 s
  Finished solving standard eigenproblem
  | Time :     0.003 s
  Finished back-transformation of eigenvectors
  | Time :     0.000 s

  Obtaining occupation numbers and chemical potential using ELSI.
  | Chemical potential (Fermi level):    -7.54402679 eV
  Writing Kohn-Sham eigenvalues.

  State    Occupation    Eigenvalue [Ha]    Eigenvalue [eV]
      1       2.00000         -55.669536        -1514.84515
      2       2.00000         -55.669530        -1514.84498
      3       2.00000         -55.629204        -1513.74765
      4       2.00000         -24.246872         -659.79096
      5       2.00000         -24.230752         -659.35230
      6       2.00000         -24.222818         -659.13641
      7       2.00000         -24.222817         -659.13640
      8       2.00000         -24.185130         -658.11086
      9       2.00000         -24.076084         -655.14359
     10       2.00000         -24.076081         -655.14351
     11       2.00000         -24.056526         -654.61139
     12       2.00000         -24.054060         -654.54429
     13       2.00000          -4.107600         -111.77347
     14       2.00000          -4.107476         -111.77012
     15       2.00000          -4.068466         -110.70860
     16       2.00000          -2.701429          -73.50963
     17       2.00000          -2.700362          -73.48060
     18       2.00000          -2.700361          -73.48056
     19       2.00000          -2.700247          -73.47745
     20       2.00000          -2.699538          -73.45815
     21       2.00000          -2.699424          -73.45507
     22       2.00000          -2.662489          -72.45000
     23       2.00000          -2.661332          -72.41852
     24       2.00000          -2.659429          -72.36675
     25       2.00000          -1.171346          -31.87394
     26       2.00000          -1.147731          -31.23135
     27       2.00000          -1.144434          -31.14163
     28       2.00000          -1.139299          -31.00191
     29       2.00000          -1.107424          -30.13455
     30       2.00000          -1.022471          -27.82284
     31       2.00000          -1.022182          -27.81499
     32       2.00000          -1.005757          -27.36804
     33       2.00000          -1.000978          -27.23800
     34       2.00000          -0.569868          -15.50690
     35       2.00000          -0.536933          -14.61070
     36       2.00000          -0.530218          -14.42796
     37       2.00000          -0.505207          -13.74737
     38       2.00000          -0.499469          -13.59123
     39       2.00000          -0.488164          -13.28361
     40       2.00000          -0.481360          -13.09847
     41       2.00000          -0.468530          -12.74935
     42       2.00000          -0.459357          -12.49974
     43       2.00000          -0.438529          -11.93297
     44       2.00000          -0.436313          -11.87267
     45       2.00000          -0.427689          -11.63802
     46       2.00000          -0.427653          -11.63704
     47       2.00000          -0.414985          -11.29232
     48       2.00000          -0.393164          -10.69854
     49       2.00000          -0.390286          -10.62023
     50       2.00000          -0.380032          -10.34119
     51       2.00000          -0.376955          -10.25747
     52       2.00000          -0.351883           -9.57523
     53       2.00000          -0.333948           -9.08720
     54       2.00000          -0.333624           -9.07838
     55       2.00000          -0.330205           -8.98532
     56       2.00000          -0.327396           -8.90890
     57       2.00000          -0.319545           -8.69526
     58       2.00000          -0.315484           -8.58476
     59       2.00000          -0.308170           -8.38573
     60       2.00000          -0.304856           -8.29555
     61       0.00000          -0.155092           -4.22026
     62       0.00000          -0.090838           -2.47183
     63       0.00000          -0.081877           -2.22797
     64       0.00000          -0.053589           -1.45823
     65       0.00000          -0.039689           -1.08000
     66       0.00000          -0.016782           -0.45666
     67       0.00000           0.014798            0.40267
     68       0.00000           0.026409            0.71862
     69       0.00000           0.037091            1.00929
     70       0.00000           0.055378            1.50692
     71       0.00000           0.094136            2.56156
     72       0.00000           0.104739            2.85010
     73       0.00000           0.143499            3.90481
     74       0.00000           0.150962            4.10788
     75       0.00000           0.157347            4.28163
     76       0.00000           0.166510            4.53096
     77       0.00000           0.174600            4.75110
     78       0.00000           0.199944            5.44075
     79       0.00000           0.211105            5.74446
     80       0.00000           0.211310            5.75004
     81       0.00000           0.217926            5.93006
     82       0.00000           0.221191            6.01891
     83       0.00000           0.223065            6.06992
     84       0.00000           0.226640            6.16718
     85       0.00000           0.243625            6.62937
     86       0.00000           0.252370            6.86734
     87       0.00000           0.253025            6.88516
     88       0.00000           0.261123            7.10553
     89       0.00000           0.270700            7.36613
     90       0.00000           0.288067            7.83869
     91       0.00000           0.316899            8.62325
     92       0.00000           0.329777            8.97368
     93       0.00000           0.362297            9.85860
     94       0.00000           0.364940            9.93051
     95       0.00000           0.373255           10.15677
     96       0.00000           0.379588           10.32911

  Highest occupied state (VBM) at     -8.29555022 eV
  | Occupation number:      2.00000000

  Lowest unoccupied state (CBM) at    -4.22025883 eV
  | Occupation number:      0.00000000

  Overall HOMO-LUMO gap:      4.07529139 eV.

  Total energy components:
  | Sum of eigenvalues            :        -883.43801620 Ha      -24039.57154073 eV
  | XC energy correction          :        -145.68228203 Ha       -3964.21659107 eV
  | XC potential correction       :         189.70655370 Ha        5162.17797499 eV
  | Free-atom electrostatic energy:        -781.19268481 Ha      -21257.33451491 eV
  | Hartree energy correction     :          -4.53470540 Ha        -123.39561220 eV
  | Entropy correction            :           0.00000000 Ha           0.00000000 eV
  | ---------------------------
  | Total energy                  :       -1625.14113473 Ha      -44222.34028392 eV
  | Total energy, T -> 0          :       -1625.14113473 Ha      -44222.34028392 eV  <-- do not rely on this value for anything but (periodic) metals
  | Electronic free energy        :       -1625.14113473 Ha      -44222.34028392 eV

  Derived energy quantities:
  | Kinetic energy                :        1633.78611253 Ha       44457.58209884 eV
  | Electrostatic energy          :       -3113.24496523 Ha      -84715.70579169 eV
  | Energy correction for multipole
  | error in Hartree potential    :           0.03067150 Ha           0.83461391 eV
  | Sum of eigenvalues per atom                           :       -2003.29762839 eV
  | Total energy (T->0) per atom                          :       -3685.19502366 eV  <-- do not rely on this value for anything but (periodic) metals
  | Electronic free energy per atom                       :       -3685.19502366 eV
  Evaluating new KS density.
  Integration grid: deviation in total charge (<rho> - N_e) =   2.842171E-14

  Self-consistency convergence accuracy:
  | Change of charge density      :  0.5839E+00
  | Change of sum of eigenvalues  :  0.1182E+03 eV
  | Change of total energy        :  0.5549E+01 eV


------------------------------------------------------------
  End self-consistency iteration #     1       :  max(cpu_time)    wall_clock(cpu1)
  | Time for this iteration                     :        0.085 s           0.085 s
  | Charge density update                       :        0.029 s           0.029 s
  | Density mixing                              :        0.000 s           0.001 s
  | Hartree multipole update                    :        0.001 s           0.001 s
  | Hartree multipole summation                 :        0.017 s           0.017 s
  | Integration                                 :        0.032 s           0.032 s
  | Solution of K.-S. eqns.                     :        0.004 s           0.005 s
  | Total energy evaluation                     :        0.000 s           0.000 s

  Partial memory accounting:
  | Current value for overall tracked memory usage:
  |   Minimum:        0.273 MB (on task 23)
  |   Maximum:        0.292 MB (on task  0)
  |   Average:        0.287 MB
  | Peak value for overall tracked memory usage:
  |   Minimum:        1.352 MB (on task  3 after allocating wave)
  |   Maximum:        1.417 MB (on task  6 after allocating wave)
  |   Average:        1.383 MB
  | Largest tracked array allocation so far:
  |   Minimum:        0.731 MB (gradient_basis_wave on task  4)
  |   Maximum:        0.772 MB (gradient_basis_wave on task  6)
  |   Average:        0.753 MB
  Note:  These values currently only include a subset of arrays which are explicitly tracked.
  The "true" memory usage will be greater.
------------------------------------------------------------

------------------------------------------------------------
          Begin self-consistency iteration #    2

  Date     :  20220517, Time     :  121706.288
------------------------------------------------------------
  Pulay mixing of updated and previous charge densities.
  Renormalizing the density to the exact electron count on the 3D integration grid.
  | Formal number of electrons (from input files) :     120.0000000000
  | Integrated number of electrons on 3D grid     :     120.0000000000
  | Charge integration error                      :      -0.0000000000
  | Normalization factor for density and gradient :       1.0000000000

  Evaluating partitioned Hartree potential by multipole expansion.
  | Original multipole sum: apparent total charge =  -0.846285E-13
  | Sum of charges compensated after spline to logarithmic grids =   0.354108E-04
  | Analytical far-field extrapolation by fixed multipoles:
  | Hartree multipole sum: apparent total charge =  -0.833125E-13
  Summing up the Hartree potential.
  Time summed over all CPUs for potential: real work        0.380 s, elapsed        0.397 s
  | RMS charge density error from multipole expansion :   0.127913E-01

  Integrating Hamiltonian matrix: batch-based integration.
  Time summed over all CPUs for integration: real work        0.719 s, elapsed        0.759 s

  Updating Kohn-Sham eigenvalues and eigenvectors using ELSI and the ELPA eigensolver.
  Starting ELPA eigensolver
  Finished transformation to standard eigenproblem
  | Time :     0.000 s
  Finished solving standard eigenproblem
  | Time :     0.003 s
  Finished back-transformation of eigenvectors
  | Time :     0.001 s

  Obtaining occupation numbers and chemical potential using ELSI.
  | Chemical potential (Fermi level):    -7.74173132 eV
  Highest occupied state (VBM) at     -9.35902007 eV
  | Occupation number:      2.00000000

  Lowest unoccupied state (CBM) at    -4.40786460 eV
  | Occupation number:      0.00000000

  Overall HOMO-LUMO gap:      4.95115546 eV.

  Checking to see if s.c.f. parameters should be adjusted.

  Total energy components:
  | Sum of eigenvalues            :        -886.19938953 Ha      -24114.71233219 eV
  | XC energy correction          :        -145.22270044 Ha       -3951.71073972 eV
  | XC potential correction       :         189.10192863 Ha        5145.72528953 eV
  | Free-atom electrostatic energy:        -781.19268481 Ha      -21257.33451491 eV
  | Hartree energy correction     :          -1.57130358 Ha         -42.75734601 eV
  | Entropy correction            :           0.00000000 Ha           0.00000000 eV
  | ---------------------------
  | Total energy                  :       -1625.08414974 Ha      -44220.78964330 eV
  | Total energy, T -> 0          :       -1625.08414974 Ha      -44220.78964330 eV  <-- do not rely on this value for anything but (periodic) metals
  | Electronic free energy        :       -1625.08414974 Ha      -44220.78964330 eV

  Derived energy quantities:
  | Kinetic energy                :        1630.09576369 Ha       44357.16259764 eV
  | Electrostatic energy          :       -3109.95721299 Ha      -84626.24150123 eV
  | Energy correction for multipole
  | error in Hartree potential    :           0.03454423 Ha           0.93999638 eV
  | Sum of eigenvalues per atom                           :       -2009.55936102 eV
  | Total energy (T->0) per atom                          :       -3685.06580361 eV  <-- do not rely on this value for anything but (periodic) metals
  | Electronic free energy per atom                       :       -3685.06580361 eV
  Evaluating new KS density.
  Integration grid: deviation in total charge (<rho> - N_e) =  -2.842171E-14

  Self-consistency convergence accuracy:
  | Change of charge density      :  0.4494E+00
  | Change of sum of eigenvalues  : -0.7514E+02 eV
  | Change of total energy        :  0.1551E+01 eV


------------------------------------------------------------
  End self-consistency iteration #     2       :  max(cpu_time)    wall_clock(cpu1)
  | Time for this iteration                     :        0.087 s           0.084 s
  | Charge density update                       :        0.029 s           0.029 s
  | Density mixing                              :        0.004 s           0.001 s
  | Hartree multipole update                    :        0.001 s           0.001 s
  | Hartree multipole summation                 :        0.017 s           0.017 s
  | Integration                                 :        0.032 s           0.032 s
  | Solution of K.-S. eqns.                     :        0.004 s           0.004 s
  | Total energy evaluation                     :        0.000 s           0.000 s

  Partial memory accounting:
  | Current value for overall tracked memory usage:
  |   Minimum:        0.274 MB (on task 23)
  |   Maximum:        0.293 MB (on task  0)
  |   Average:        0.288 MB
  | Peak value for overall tracked memory usage:
  |   Minimum:        1.352 MB (on task  3 after allocating wave)
  |   Maximum:        1.417 MB (on task  6 after allocating wave)
  |   Average:        1.383 MB
  | Largest tracked array allocation so far:
  |   Minimum:        0.731 MB (gradient_basis_wave on task  4)
  |   Maximum:        0.772 MB (gradient_basis_wave on task  6)
  |   Average:        0.753 MB
  Note:  These values currently only include a subset of arrays which are explicitly tracked.
  The "true" memory usage will be greater.
------------------------------------------------------------

------------------------------------------------------------
          Begin self-consistency iteration #    3

  Date     :  20220517, Time     :  121706.379
------------------------------------------------------------
  Pulay mixing of updated and previous charge densities.
  Renormalizing the density to the exact electron count on the 3D integration grid.
  | Formal number of electrons (from input files) :     120.0000000000
  | Integrated number of electrons on 3D grid     :     120.0000000000
  | Charge integration error                      :      -0.0000000000
  | Normalization factor for density and gradient :       1.0000000000

  Evaluating partitioned Hartree potential by multipole expansion.
  | Original multipole sum: apparent total charge =  -0.934099E-13
  | Sum of charges compensated after spline to logarithmic grids =   0.410205E-04
  | Analytical far-field extrapolation by fixed multipoles:
  | Hartree multipole sum: apparent total charge =  -0.948981E-13
  Summing up the Hartree potential.
  Time summed over all CPUs for potential: real work        0.380 s, elapsed        0.400 s
  | RMS charge density error from multipole expansion :   0.171825E-01

  Integrating Hamiltonian matrix: batch-based integration.
  Time summed over all CPUs for integration: real work        0.716 s, elapsed        0.748 s

  Updating Kohn-Sham eigenvalues and eigenvectors using ELSI and the ELPA eigensolver.
  Starting ELPA eigensolver
  Finished transformation to standard eigenproblem
  | Time :     0.001 s
  Finished solving standard eigenproblem
  | Time :     0.003 s
  Finished back-transformation of eigenvectors
  | Time :     0.000 s

  Obtaining occupation numbers and chemical potential using ELSI.
  | Chemical potential (Fermi level):    -7.74615298 eV
  Highest occupied state (VBM) at     -9.05577991 eV
  | Occupation number:      2.00000000

  Lowest unoccupied state (CBM) at    -4.60553211 eV
  | Occupation number:      0.00000000

  Overall HOMO-LUMO gap:      4.45024780 eV.

  Total energy components:
  | Sum of eigenvalues            :        -887.14253500 Ha      -24140.37662611 eV
  | XC energy correction          :        -145.18773808 Ha       -3950.75936561 eV
  | XC potential correction       :         189.05479579 Ha        5144.44273972 eV
  | Free-atom electrostatic energy:        -781.19268481 Ha      -21257.33451491 eV
  | Hartree energy correction     :          -0.61530447 Ha         -16.74328647 eV
  | Entropy correction            :           0.00000000 Ha           0.00000000 eV
  | ---------------------------
  | Total energy                  :       -1625.08346657 Ha      -44220.77105338 eV
  | Total energy, T -> 0          :       -1625.08346657 Ha      -44220.77105338 eV  <-- do not rely on this value for anything but (periodic) metals
  | Electronic free energy        :       -1625.08346657 Ha      -44220.77105338 eV

  Derived energy quantities:
  | Kinetic energy                :        1628.47077924 Ha       44312.94452086 eV
  | Electrostatic energy          :       -3108.36650773 Ha      -84582.95620863 eV
  | Energy correction for multipole
  | error in Hartree potential    :           0.04656692 Ha           1.26715047 eV
  | Sum of eigenvalues per atom                           :       -2011.69805218 eV
  | Total energy (T->0) per atom                          :       -3685.06425445 eV  <-- do not rely on this value for anything but (periodic) metals
  | Electronic free energy per atom                       :       -3685.06425445 eV
  Evaluating new KS density.
  Integration grid: deviation in total charge (<rho> - N_e) =   7.105427E-14

  Self-consistency convergence accuracy:
  | Change of charge density      :  0.1208E+00
  | Change of sum of eigenvalues  : -0.2566E+02 eV
  | Change of total energy        :  0.1859E-01 eV


------------------------------------------------------------
  End self-consistency iteration #     3       :  max(cpu_time)    wall_clock(cpu1)
  | Time for this iteration                     :        0.087 s           0.084 s
  | Charge density update                       :        0.029 s           0.028 s
  | Density mixing                              :        0.004 s           0.001 s
  | Hartree multipole update                    :        0.001 s           0.002 s
  | Hartree multipole summation                 :        0.017 s           0.017 s
  | Integration                                 :        0.032 s           0.031 s
  | Solution of K.-S. eqns.                     :        0.004 s           0.005 s
  | Total energy evaluation                     :        0.000 s           0.000 s

  Partial memory accounting:
  | Current value for overall tracked memory usage:
  |   Minimum:        0.274 MB (on task 23)
  |   Maximum:        0.293 MB (on task  0)
  |   Average:        0.288 MB
  | Peak value for overall tracked memory usage:
  |   Minimum:        1.352 MB (on task  3 after allocating wave)
  |   Maximum:        1.417 MB (on task  6 after allocating wave)
  |   Average:        1.383 MB
  | Largest tracked array allocation so far:
  |   Minimum:        0.731 MB (gradient_basis_wave on task  4)
  |   Maximum:        0.772 MB (gradient_basis_wave on task  6)
  |   Average:        0.753 MB
  Note:  These values currently only include a subset of arrays which are explicitly tracked.
  The "true" memory usage will be greater.
------------------------------------------------------------

------------------------------------------------------------
          Begin self-consistency iteration #    4

  Date     :  20220517, Time     :  121706.467
------------------------------------------------------------
  Pulay mixing of updated and previous charge densities.
  Renormalizing the density to the exact electron count on the 3D integration grid.
  | Formal number of electrons (from input files) :     120.0000000000
  | Integrated number of electrons on 3D grid     :     120.0000000000
  | Charge integration error                      :       0.0000000000
  | Normalization factor for density and gradient :       1.0000000000

  Evaluating partitioned Hartree potential by multipole expansion.
  | Original multipole sum: apparent total charge =   0.159270E-13
  | Sum of charges compensated after spline to logarithmic grids =   0.432068E-04
  | Analytical far-field extrapolation by fixed multipoles:
  | Hartree multipole sum: apparent total charge =   0.166773E-13
  Summing up the Hartree potential.
  Time summed over all CPUs for potential: real work        0.380 s, elapsed        0.398 s
  | RMS charge density error from multipole expansion :   0.192721E-01

  Integrating Hamiltonian matrix: batch-based integration.
  Time summed over all CPUs for integration: real work        0.717 s, elapsed        0.748 s

  Updating Kohn-Sham eigenvalues and eigenvectors using ELSI and the ELPA eigensolver.
  Starting ELPA eigensolver
  Finished transformation to standard eigenproblem
  | Time :     0.000 s
  Finished solving standard eigenproblem
  | Time :     0.003 s
  Finished back-transformation of eigenvectors
  | Time :     0.001 s

  Obtaining occupation numbers and chemical potential using ELSI.
  | Chemical potential (Fermi level):    -7.72653329 eV
  Highest occupied state (VBM) at     -9.08166909 eV
  | Occupation number:      2.00000000

  Lowest unoccupied state (CBM) at    -4.57077773 eV
  | Occupation number:      0.00000000

  Overall HOMO-LUMO gap:      4.51089135 eV.

  Total energy components:
  | Sum of eigenvalues            :        -887.26531232 Ha      -24143.71756705 eV
  | XC energy correction          :        -145.17289141 Ha       -3950.35536724 eV
  | XC potential correction       :         189.03461516 Ha        5143.89359685 eV
  | Free-atom electrostatic energy:        -781.19268481 Ha      -21257.33451491 eV
  | Hartree energy correction     :          -0.48516324 Ha         -13.20196352 eV
  | Entropy correction            :           0.00000000 Ha           0.00000000 eV
  | ---------------------------
  | Total energy                  :       -1625.08143663 Ha      -44220.71581587 eV
  | Total energy, T -> 0          :       -1625.08143663 Ha      -44220.71581587 eV  <-- do not rely on this value for anything but (periodic) metals
  | Electronic free energy        :       -1625.08143663 Ha      -44220.71581587 eV

  Derived energy quantities:
  | Kinetic energy                :        1627.80498658 Ha       44294.82738091 eV
  | Electrostatic energy          :       -3107.71353180 Ha      -84565.18782953 eV
  | Energy correction for multipole
  | error in Hartree potential    :           0.05168049 Ha           1.40629766 eV
  | Sum of eigenvalues per atom                           :       -2011.97646392 eV
  | Total energy (T->0) per atom                          :       -3685.05965132 eV  <-- do not rely on this value for anything but (periodic) metals
  | Electronic free energy per atom                       :       -3685.05965132 eV
  Evaluating new KS density.
  Integration grid: deviation in total charge (<rho> - N_e) =   1.421085E-14

  Self-consistency convergence accuracy:
  | Change of charge density      :  0.8095E-01
  | Change of sum of eigenvalues  : -0.3341E+01 eV
  | Change of total energy        :  0.5524E-01 eV


------------------------------------------------------------
  End self-consistency iteration #     4       :  max(cpu_time)    wall_clock(cpu1)
  | Time for this iteration                     :        0.087 s           0.087 s
  | Charge density update                       :        0.029 s           0.029 s
  | Density mixing                              :        0.004 s           0.004 s
  | Hartree multipole update                    :        0.001 s           0.001 s
  | Hartree multipole summation                 :        0.017 s           0.017 s
  | Integration                                 :        0.032 s           0.032 s
  | Solution of K.-S. eqns.                     :        0.004 s           0.004 s
  | Total energy evaluation                     :        0.000 s           0.000 s

  Partial memory accounting:
  | Current value for overall tracked memory usage:
  |   Minimum:        0.274 MB (on task 23)
  |   Maximum:        0.293 MB (on task  0)
  |   Average:        0.288 MB
  | Peak value for overall tracked memory usage:
  |   Minimum:        1.352 MB (on task  3 after allocating wave)
  |   Maximum:        1.417 MB (on task  6 after allocating wave)
  |   Average:        1.383 MB
  | Largest tracked array allocation so far:
  |   Minimum:        0.731 MB (gradient_basis_wave on task  4)
  |   Maximum:        0.772 MB (gradient_basis_wave on task  6)
  |   Average:        0.753 MB
  Note:  These values currently only include a subset of arrays which are explicitly tracked.
  The "true" memory usage will be greater.
------------------------------------------------------------

------------------------------------------------------------
          Begin self-consistency iteration #    5

  Date     :  20220517, Time     :  121706.560
------------------------------------------------------------
  Pulay mixing of updated and previous charge densities.
  Renormalizing the density to the exact electron count on the 3D integration grid.
  | Formal number of electrons (from input files) :     120.0000000000
  | Integrated number of electrons on 3D grid     :     120.0000000000
  | Charge integration error                      :      -0.0000000000
  | Normalization factor for density and gradient :       1.0000000000

  Evaluating partitioned Hartree potential by multipole expansion.
  | Original multipole sum: apparent total charge =  -0.839767E-13
  | Sum of charges compensated after spline to logarithmic grids =   0.440768E-04
  | Analytical far-field extrapolation by fixed multipoles:
  | Hartree multipole sum: apparent total charge =  -0.888347E-13
  Summing up the Hartree potential.
  Time summed over all CPUs for potential: real work        0.380 s, elapsed        0.398 s
  | RMS charge density error from multipole expansion :   0.191115E-01

  Integrating Hamiltonian matrix: batch-based integration.
  Time summed over all CPUs for integration: real work        0.716 s, elapsed        0.748 s

  Updating Kohn-Sham eigenvalues and eigenvectors using ELSI and the ELPA eigensolver.
  Starting ELPA eigensolver
  Finished transformation to standard eigenproblem
  | Time :     0.000 s
  Finished solving standard eigenproblem
  | Time :     0.003 s
  Finished back-transformation of eigenvectors
  | Time :     0.000 s

  Obtaining occupation numbers and chemical potential using ELSI.
  | Chemical potential (Fermi level):    -7.71958698 eV
  Highest occupied state (VBM) at     -9.14770718 eV
  | Occupation number:      2.00000000

  Lowest unoccupied state (CBM) at    -4.51817844 eV
  | Occupation number:      0.00000000

  Overall HOMO-LUMO gap:      4.62952874 eV.

  Total energy components:
  | Sum of eigenvalues            :        -887.08349122 Ha      -24138.76996324 eV
  | XC energy correction          :        -145.17086382 Ha       -3950.30019365 eV
  | XC potential correction       :         189.03210056 Ha        5143.82517110 eV
  | Free-atom electrostatic energy:        -781.19268481 Ha      -21257.33451491 eV
  | Hartree energy correction     :          -0.66638072 Ha         -18.13314197 eV
  | Entropy correction            :           0.00000000 Ha           0.00000000 eV
[...]
   Total forces(   7)            :  0.796874E+00 -0.767506E+00 -0.107230E+01
  atom #    8
   Hellmann-Feynman              : -0.199771E+01 -0.183606E+01  0.217247E+01
   Ionic forces                  :  0.000000E+00  0.000000E+00  0.000000E+00
   Multipole                     : -0.469132E+00 -0.477541E+00  0.551398E+00
   Hartree pot. SCF incomplete   : -0.735002E-06 -0.351915E-06  0.799572E-06
   Pulay + GGA                   :  0.438357E+01  0.411371E+01 -0.485006E+01
   ----------------------------------------------------------------
   Total forces(   8)            :  0.191673E+01  0.180011E+01 -0.212619E+01
  atom #    9
   Hellmann-Feynman              :  0.223844E+01 -0.973426E+00 -0.247184E+01
   Ionic forces                  :  0.000000E+00  0.000000E+00  0.000000E+00
   Multipole                     :  0.574828E+00 -0.265282E+00 -0.594008E+00
   Hartree pot. SCF incomplete   :  0.769332E-06 -0.464504E-07 -0.847335E-06
   Pulay + GGA                   : -0.500815E+01  0.220267E+01  0.545163E+01
   ----------------------------------------------------------------
   Total forces(   9)            : -0.219488E+01  0.963961E+00  0.238578E+01
  atom #   10
   Hellmann-Feynman              :  0.841925E+00  0.388651E+00 -0.608434E+00
   Ionic forces                  :  0.000000E+00  0.000000E+00  0.000000E+00
   Multipole                     :  0.719328E-01  0.176210E+00 -0.712764E-01
   Hartree pot. SCF incomplete   :  0.264773E-05  0.458823E-05 -0.213079E-05
   Pulay + GGA                   : -0.173638E+01 -0.166065E+01  0.138462E+01
   ----------------------------------------------------------------
   Total forces(  10)            : -0.822517E+00 -0.109578E+01  0.704911E+00
  atom #   11
   Hellmann-Feynman              :  0.688698E+00  0.103645E+01  0.818416E+00
   Ionic forces                  :  0.000000E+00  0.000000E+00  0.000000E+00
   Multipole                     : -0.397234E+00  0.194598E+00 -0.326258E+00
   Hartree pot. SCF incomplete   : -0.326259E-05  0.790636E-06 -0.282554E-05
   Pulay + GGA                   :  0.139882E+01 -0.190921E+01  0.921923E+00
   ----------------------------------------------------------------
   Total forces(  11)            :  0.169028E+01 -0.678159E+00  0.141408E+01
  atom #   12
   Hellmann-Feynman              : -0.342437E+00  0.121374E+01 -0.861274E-01
   Ionic forces                  :  0.000000E+00  0.000000E+00  0.000000E+00
   Multipole                     :  0.421600E+00  0.837231E-01  0.399210E+00
   Hartree pot. SCF incomplete   :  0.315554E-05  0.104226E-05  0.306728E-05
   Pulay + GGA                   : -0.178570E+01 -0.175884E+01 -0.195309E+01
   ----------------------------------------------------------------
   Total forces(  12)            : -0.170653E+01 -0.461375E+00 -0.164001E+01


  Self-consistency convergence accuracy:
  | Change of charge density      :  0.1260E-06
  | Change of sum of eigenvalues  : -0.2266E-05 eV
  | Change of total energy        :  0.3007E-08 eV
  | Change of forces              :  0.5254E-06 eV/A

  Writing Kohn-Sham eigenvalues.

  State    Occupation    Eigenvalue [Ha]    Eigenvalue [eV]
      1       2.00000         -55.654920        -1514.44743
      2       2.00000         -55.654909        -1514.44713
      3       2.00000         -55.604879        -1513.08574
      4       2.00000         -24.315700         -661.66386
      5       2.00000         -24.308244         -661.46098
      6       2.00000         -24.294656         -661.09122
      7       2.00000         -24.294654         -661.09117
      8       2.00000         -24.278895         -660.66235
      9       2.00000         -24.222212         -659.11991
     10       2.00000         -24.222207         -659.11980
     11       2.00000         -24.188453         -658.20129
     12       2.00000         -24.186615         -658.15129
     13       2.00000          -4.105915         -111.72762
     14       2.00000          -4.105792         -111.72429
     15       2.00000          -4.057580         -110.41238
     16       2.00000          -2.699445          -73.45564
     17       2.00000          -2.699331          -73.45253
     18       2.00000          -2.697418          -73.40049
     19       2.00000          -2.696715          -73.38136
     20       2.00000          -2.696207          -73.36754
     21       2.00000          -2.695732          -73.35459
     22       2.00000          -2.650997          -72.13729
     23       2.00000          -2.650279          -72.11775
     24       2.00000          -2.645878          -71.99800
     25       2.00000          -1.189225          -32.36045
     26       2.00000          -1.168129          -31.78641
     27       2.00000          -1.163599          -31.66315
     28       2.00000          -1.159520          -31.55214
     29       2.00000          -1.134763          -30.87847
     30       2.00000          -1.069053          -29.09043
     31       2.00000          -1.068792          -29.08330
     32       2.00000          -1.037407          -28.22927
     33       2.00000          -1.033214          -28.11519
     34       2.00000          -0.584496          -15.90496
     35       2.00000          -0.553675          -15.06625
     36       2.00000          -0.545006          -14.83037
     37       2.00000          -0.523169          -14.23616
     38       2.00000          -0.517868          -14.09190
     39       2.00000          -0.508073          -13.82537
     40       2.00000          -0.500385          -13.61617
     41       2.00000          -0.487421          -13.26339
     42       2.00000          -0.483652          -13.16085
     43       2.00000          -0.461721          -12.56406
     44       2.00000          -0.459069          -12.49190
     45       2.00000          -0.448045          -12.19193
     46       2.00000          -0.446886          -12.16039
     47       2.00000          -0.439767          -11.96667
     48       2.00000          -0.430025          -11.70157
     49       2.00000          -0.422897          -11.50762
     50       2.00000          -0.418995          -11.40142
     51       2.00000          -0.405035          -11.02157
     52       2.00000          -0.382912          -10.41957
     53       2.00000          -0.377035          -10.25965
     54       2.00000          -0.376544          -10.24628
     55       2.00000          -0.372404          -10.13364
     56       2.00000          -0.370040          -10.06930
     57       2.00000          -0.347390           -9.45296
     58       2.00000          -0.344194           -9.36599
     59       2.00000          -0.338138           -9.20121
     60       2.00000          -0.335344           -9.12516
     61       0.00000          -0.166057           -4.51864
     62       0.00000          -0.103168           -2.80735
     63       0.00000          -0.089569           -2.43728
     64       0.00000          -0.058377           -1.58852
     65       0.00000          -0.043124           -1.17346
     66       0.00000          -0.021673           -0.58974
     67       0.00000           0.014875            0.40477
     68       0.00000           0.024043            0.65424
     69       0.00000           0.031725            0.86329
     70       0.00000           0.054159            1.47375
     71       0.00000           0.090001            2.44905
     72       0.00000           0.100997            2.74827
     73       0.00000           0.136597            3.71700
     74       0.00000           0.146742            3.99306
     75       0.00000           0.156694            4.26387
     76       0.00000           0.158760            4.32008
     77       0.00000           0.172147            4.68436
     78       0.00000           0.196888            5.35760
     79       0.00000           0.208155            5.66419
     80       0.00000           0.208871            5.68366
     81       0.00000           0.215596            5.86666
     82       0.00000           0.217176            5.90965
     83       0.00000           0.218055            5.93359
     84       0.00000           0.221613            6.03040
     85       0.00000           0.238837            6.49908
     86       0.00000           0.246082            6.69623
     87       0.00000           0.247906            6.74588
     88       0.00000           0.253442            6.89652
     89       0.00000           0.265153            7.21517
     90       0.00000           0.287441            7.82168
     91       0.00000           0.304447            8.28442
     92       0.00000           0.328243            8.93194
     93       0.00000           0.358046            9.74294
     94       0.00000           0.360657            9.81398
     95       0.00000           0.366370            9.96943
     96       0.00000           0.373003           10.14993

  Highest occupied state (VBM) at     -9.12516500 eV
  | Occupation number:      2.00000000

  Lowest unoccupied state (CBM) at    -4.51864271 eV
  | Occupation number:      0.00000000

  Overall HOMO-LUMO gap:      4.60652229 eV.
  | Chemical Potential                          :    -7.71644275 eV

  Self-consistency cycle converged.


------------------------------------------------------------
  End self-consistency iteration #    14       :  max(cpu_time)    wall_clock(cpu1)
  | Time for this iteration                     :        0.275 s           0.272 s
  | Charge density & force component update     :        0.151 s           0.151 s
  | Density mixing                              :        0.005 s           0.002 s
  | Hartree multipole update                    :        0.002 s           0.002 s
  | Hartree multipole summation                 :        0.049 s           0.049 s
  | Hartree pot. SCF incomplete forces          :        0.032 s           0.031 s
  | Integration                                 :        0.031 s           0.031 s
  | Solution of K.-S. eqns.                     :        0.004 s           0.004 s
  | Total energy evaluation                     :        0.000 s           0.001 s

  Partial memory accounting:
  | Current value for overall tracked memory usage:
  |   Minimum:        0.274 MB (on task 23)
  |   Maximum:        0.293 MB (on task  0)
  |   Average:        0.289 MB
  | Peak value for overall tracked memory usage:
  |   Minimum:        2.999 MB (on task  4 after allocating hessian_basis_wave)
  |   Maximum:        3.134 MB (on task  6 after allocating hessian_basis_wave)
  |   Average:        3.066 MB
  | Largest tracked array allocation so far:
  |   Minimum:        1.462 MB (hessian_basis_wave on task  4)
  |   Maximum:        1.543 MB (hessian_basis_wave on task  6)
  |   Average:        1.505 MB
  Note:  These values currently only include a subset of arrays which are explicitly tracked.
  The "true" memory usage will be greater.
------------------------------------------------------------
  Removing unitary transformations (pure translations, rotations) from forces on atoms.
  Atomic forces before filtering:
  | Net force on center of mass :   0.263013E-02 -0.129369E-02 -0.104419E-02 eV/A
  | Net torque on center of mass:  -0.958863E-03 -0.309459E-02 -0.116835E-01 eV
  Atomic forces after filtering:
  | Net force on center of mass :   0.142725E-14  0.802828E-15  0.713624E-15 eV/A
  | Net torque on center of mass:  -0.160494E-14 -0.755268E-15 -0.132172E-14 eV

  Energy and forces in a compact form:
  | Total energy uncorrected      :         -0.442207124065507E+05 eV
  | Total energy corrected        :         -0.442207124065507E+05 eV  <-- do not rely on this value for anything but (periodic) metals
  | Electronic free energy        :         -0.442207124065507E+05 eV
  Total atomic forces (unitary forces cleaned) [eV/Ang]:
  |    1         -0.569152184979934E+00          0.339835809714928E+01          0.108856522094928E+00
  |    2          0.227636956587321E+01         -0.858367085010190E+00         -0.232109362611622E+01
  |    3         -0.186518059185499E+01         -0.170085140275201E+01          0.222072807194729E+01
  |    4         -0.164981226132774E+01         -0.185491137090586E+01         -0.184877598418247E+01
  |    5          0.220162023947714E+01         -0.114146853226723E+01          0.179488413030521E+01
  |    6         -0.731062904000525E-01          0.239521212966157E+01          0.378603114542507E+00
  |    7          0.796626935960761E+00         -0.767632759639698E+00         -0.107212196853081E+01
  |    8          0.191719704359849E+01          0.179984164365695E+01         -0.212589886035149E+01
  |    9         -0.219499437329147E+01          0.964525577409744E+00          0.238570157352616E+01
  |   10         -0.823096757892670E+00         -0.109542963034026E+01          0.704872003545026E+00
  |   11          0.169005712160424E+01         -0.678305825922651E+00          0.141426339319446E+01
  |   12         -0.170652844676698E+01         -0.460970841039644E+00         -0.164001836997459E+01

  ------------------------------------ 
  Start decomposition of the XC Energy 
  ------------------------------------ 
  X and C from original XC functional choice 
  Hartree-Fock Energy :          0.000000000 Ha              0.000000000 eV
  X Energy            :       -140.214557465 Ha          -3815.432235674 eV
  C Energy            :         -4.959586631 Ha           -134.957218774 eV
  Total XC Energy     :       -145.174144096 Ha          -3950.389454447 eV
  ------------------------------------ 
  LDA X and C from self-consistent density 
  X Energy LDA        :       -132.805976322 Ha          -3613.834485606 eV
  C Energy LDA        :         -8.828800174 Ha           -240.243876201 eV
  ------------------------------------ 
  End decomposition of the XC Energy 
  ------------------------------------ 

------------------------------------------------------------

------------------------------------------------------------------------------
  Final output of selected total energy values:

  The following output summarizes some interesting total energy values
  at the end of a run (AFTER all relaxation, molecular dynamics, etc.).

  | Total energy of the DFT / Hartree-Fock s.c.f. calculation      :         -44220.712406551 eV
  | Final zero-broadening corrected energy (caution - metals only) :         -44220.712406551 eV
  | For reference only, the value of 1 Hartree used in FHI-aims is :             27.211384500 eV

  Before relying on these values, please be sure to understand exactly which
  total energy value is referred to by a given number. Different objects may
  all carry the same name 'total energy'. Definitions:

  Total energy of the DFT / Hartree-Fock s.c.f. calculation:
  | Note that this energy does not include ANY quantities calculated after the
  | s.c.f. cycle, in particular not ANY RPA, MP2, etc. many-body perturbation terms.

  Final zero-broadening corrected energy:
  | For metallic systems only, a broadening of the occupation numbers at the Fermi
  | level can be extrapolated back to zero broadening by an electron-gas inspired
  | formula. For all systems that are not real metals, this value can be
  | meaningless and should be avoided.

------------------------------------------------------------------------------
  Methods described in the following list of references were used in this FHI-aims run.
  If you publish the results, please make sure to cite these reference if they apply.
  FHI-aims is an academic code, and for our developers (often, Ph.D. students
  and postdocs), scientific credit in the community is essential.
  Thank you for helping us!

  For any use of FHI-aims, please cite:

    Volker Blum, Ralf Gehrke, Felix Hanke, Paula Havu, Ville Havu,
    Xinguo Ren, Karsten Reuter, and Matthias Scheffler
    'Ab initio molecular simulations with numeric atom-centered orbitals'
    Computer Physics Communications 180, 2175-2196 (2009)
    http://dx.doi.org/10.1016/j.cpc.2009.06.022


  The ELSI infrastructure was used in your run to solve the Kohn-Sham electronic structure.
  Please check out http://elsi-interchange.org to learn more.
  If scalability is important for your project, please acknowledge ELSI by citing:

    V. W-z. Yu, F. Corsetti, A. Garcia, W. P. Huhn, M. Jacquelin, W. Jia,
    B. Lange, L. Lin, J. Lu, W. Mi, A. Seifitokaldani, A. Vazquez-Mayagoitia,
    C. Yang, H. Yang, and V. Blum
    'ELSI: A unified software interface for Kohn-Sham electronic structure solvers'
    Computer Physics Communications 222, 267-285 (2018).
    http://dx.doi.org/10.1016/j.cpc.2017.09.007


  For the real-space grid partitioning and parallelization used in this calculation, please cite:

    Ville Havu, Volker Blum, Paula Havu, and Matthias Scheffler,
    'Efficient O(N) integration for all-electron electronic structure calculation'
    'using numerically tabulated basis functions'
    Journal of Computational Physics 228, 8367-8379 (2009).
    http://dx.doi.org/10.1016/j.jcp.2009.08.008

  Of course, there are many other important community references, e.g., those cited in the
  above references. Our list is limited to references that describe implementations in the
  FHI-aims code. The reason is purely practical (length of this list) - please credit others as well.

------------------------------------------------------------
          Leaving FHI-aims.
          Date     :  20220517, Time     :  121707.858

          Computational steps:
          | Number of self-consistency cycles          :           14
          | Number of SCF (re)initializations          :            1

          Detailed time accounting                     :  max(cpu_time)    wall_clock(cpu1)
          | Total time                                  :        1.976 s           2.041 s
          | Preparation time                            :        0.184 s           0.184 s
          | Boundary condition initalization            :        0.000 s           0.000 s
          | Grid partitioning                           :        0.038 s           0.038 s
          | Preloading free-atom quantities on grid     :        0.016 s           0.015 s
          | Free-atom superposition energy              :        0.005 s           0.005 s
          | Total time for integrations                 :        0.490 s           0.489 s
          | Total time for solution of K.-S. equations  :        0.069 s           0.072 s
          | Total time for density & force components   :        0.677 s           0.676 s
          | Total time for mixing                       :        0.059 s           0.034 s
          | Total time for Hartree multipole update     :        0.019 s           0.019 s
          | Total time for Hartree multipole sum        :        0.301 s           0.301 s
          | Total time for total energy evaluation      :        0.002 s           0.004 s
          | Total time NSC force correction             :        0.063 s           0.063 s
          | Total time for scaled ZORA corrections      :        0.000 s           0.000 s

          Partial memory accounting:
          | Residual value for overall tracked memory usage across tasks:     0.000000 MB (should be 0.000000 MB)
          | Peak values for overall tracked memory usage:
          |   Minimum:        2.999 MB (on task  4 after allocating hessian_basis_wave)
          |   Maximum:        3.134 MB (on task  6 after allocating hessian_basis_wave)
          |   Average:        3.066 MB
          | Largest tracked array allocation:
          |   Minimum:        1.462 MB (hessian_basis_wave on task  4)
          |   Maximum:        1.543 MB (hessian_basis_wave on task  6)
          |   Average:        1.505 MB
          Note:  These values currently only include a subset of arrays which are explicitly tracked.
          The "true" memory usage will be greater.

          Have a nice day.
------------------------------------------------------------
