********************************************************************************
*                       GENERAL UTILITY LATTICE PROGRAM                        *
*                                 Julian Gale                                  *
*                       Curtin Institute for Computation                       *
*                           Department of Chemistry                            *
*                    Curtin University, Western Australia                      *
********************************************************************************
* Version = 5.1.1 * Last modified =  24th November 2018                        *
********************************************************************************
*  optimise     - perform optimisation run                                     *
*  conp         - constant pressure calculation                                *
*  shell        - only shells and radii to be optimised                        *
*  phonon       - calculate phonons for final geometry                         *
*  eigenvectors - output phonon eigenvectors                                   *
********************************************************************************

  Job Started  at 14:38.43 25th May        2022                               

  Number of CPUs =     1

  Host name      = login03                                 


  Total number of configurations input =      1

********************************************************************************
*  Input for Configuration =   1                                               *
********************************************************************************

  Formula = Al3F9                                                       

  Number of irreducible atoms/shells =      21


  Total number atoms/shells =      21

  Dimensionality = 0               :  Cluster


  Charge on cluster =  -0.000000


  Initial cluster dipoles : x =     -0.071357 e.Angs
                            y =     -0.067036 e.Angs
                            z =      0.012913 e.Angs

  Temperature of configuration =  0.000     K 

  Symmetry number =      1

  Cartesian coordinates of cluster :

--------------------------------------------------------------------------------
   No.  Atomic       x           y          z         Charge      Occupancy
        Label      (Angs)      (Angs)     (Angs)        (e)         (Frac)  
--------------------------------------------------------------------------------
      1 Al    c      1.2828      0.0500      2.4420     3.00000    1.000000    
      2 Al    c      1.3103      1.2208     -0.0892     3.00000    1.000000    
      3 Al    c     -0.3177      0.8362     -2.3207     3.00000    1.000000    
      4 F     c     -1.6693     -0.3699     -2.2163     0.59000    1.000000    
      5 F     c      2.1203     -0.4664      0.8077     0.59000    1.000000    
      6 F     c      0.0512      1.8220     -3.7978     0.59000    1.000000    
      7 F     c     -0.4784      1.9884     -0.8089     0.59000    1.000000    
      8 F     c      2.6665      2.4948     -0.3346     0.59000    1.000000    
      9 F     c      1.2670     -0.0472     -1.7315     0.59000    1.000000    
     10 F     c      0.3750      1.5692      1.7303     0.59000    1.000000    
     11 F     c      2.5453      0.5968      3.6238     0.59000    1.000000    
     12 F     c      0.0201     -1.1998      2.8107     0.59000    1.000000    
     13 F     s     -1.6693 *   -0.3699 *   -2.2163 *  -1.59000    1.000000    
     14 F     s      2.1203 *   -0.4664 *    0.8077 *  -1.59000    1.000000    
     15 F     s      0.0512 *    1.8220 *   -3.7978 *  -1.59000    1.000000    
     16 F     s     -0.4784 *    1.9884 *   -0.8089 *  -1.59000    1.000000    
     17 F     s      2.6665 *    2.4948 *   -0.3346 *  -1.59000    1.000000    
     18 F     s      1.2670 *   -0.0472 *   -1.7315 *  -1.59000    1.000000    
     19 F     s      0.3750 *    1.5692 *    1.7303 *  -1.59000    1.000000    
     20 F     s      2.5453 *    0.5968 *    3.6238 *  -1.59000    1.000000    
     21 F     s      0.0201 *   -1.1998 *    2.8107 *  -1.59000    1.000000    
--------------------------------------------------------------------------------


  Brillouin zone sampling points :

--------------------------------------------------------------------------------
  Point number          x          y          z            Weight
--------------------------------------------------------------------------------
        1           0.000000   0.000000   0.000000     1.00000000
--------------------------------------------------------------------------------


********************************************************************************
*  General input information                                                   *
********************************************************************************

  Species output for all configurations : 

--------------------------------------------------------------------------------
  Species    Type    Atomic    Atomic    Charge       Radii (Angs)     Library
                     Number     Mass       (e)     Cova   Ionic  VDW   Symbol
--------------------------------------------------------------------------------
    Al       Core       13      26.98   3.000000   1.350  0.000  2.050          
    F        Core        9      19.00   0.590000   0.710  0.000  1.300          
    F        Shell       9       0.00  -1.590000   0.710  0.000  1.300          
--------------------------------------------------------------------------------


  Accuracy factor for short range sums = 12.000

  Time limit = Infinity

  Maximum range for interatomic potentials =    100000.000000 Angstroms

  General interatomic potentials :

--------------------------------------------------------------------------------
Atom  Types   Potential      Parameter       Value         Units   Cutoffs(Ang)
  1     2                                                            Min /  Max 
--------------------------------------------------------------------------------
Al   c F    s Buckingham    Buckingham A     3760.0008    eV        0.000 10.000
                            Buckingham rho  0.22200000    Ang       
                            Buckingham C     0.0000000    eV*Ang^6  
--------------------------------------------------------------------------------
F    s F    s Buck 4 range  Buck4 A          1127.7000    eV        0.000 12.000
                            Buck4 rho       0.27530000    Ang       
                            Buck4 C          15.830000    eV*Ang^6  
                            Buck4 minimum    2.7900000    Ang       
--------------------------------------------------------------------------------
F    c F    s Spring (c-s)  Spring k 2       20.770000    eV*Ang^-2 0.000  0.800
                            Spring k 4       0.0000000    eV*Ang^-4 
--------------------------------------------------------------------------------

********************************************************************************
*  Output for configuration   1                                                *
********************************************************************************


  Components of energy : 

--------------------------------------------------------------------------------
  Interatomic potentials     =           8.76968301 eV    
  Monopole - monopole (real) =        -173.43789397 eV    
--------------------------------------------------------------------------------
  Total lattice energy       =        -164.66821096 eV    
--------------------------------------------------------------------------------
  Total lattice energy       =          -15887.9652 kJ/mol
--------------------------------------------------------------------------------


  Number of variables =       27

  Maximum number of calculations  =          2000
  Maximum Hessian update interval =            10
  Maximum step size               =   1.000000000
  Maximum parameter tolerance     =   0.000001000
  Maximum function  tolerance     =   0.000010000
  Maximum gradient  tolerance     =   0.000000010
  Maximum gradient  component     =   0.010000000

  Symmetry not applied to optimisation

  Newton-Raphson optimiser to be used

  BFGS hessian update to be used

  Lower half triangular hessian to be used

  Minimiser to switch to RFO
  When gradient norm is less than     0.010000

  Shell only optimisation

  Start of cluster optimisation :

  Cycle:      0 Energy:      -164.668211  Gnorm:      1.544718  CPU:    0.004
  ** Hessian calculated **
  Cycle:      1 Energy:      -185.486120  Gnorm:      0.550703  CPU:    0.005
  ** Hessian calculated **
  Cycle:      2 Energy:      -186.729000  Gnorm:      0.030400  CPU:    0.007
  Cycle:      3 Energy:      -186.734266  Gnorm:      0.004225  CPU:    0.009
  ** Hessian has required structure
  Cycle:      4 Energy:      -186.734383  Gnorm:      0.000767  CPU:    0.010
  ** Hessian has required structure
  Cycle:      5 Energy:      -186.734386  Gnorm:      0.000344  CPU:    0.012
  ** Hessian has required structure
  Cycle:      6 Energy:      -186.734387  Gnorm:      0.000107  CPU:    0.013
  ** Hessian has required structure
  Cycle:      7 Energy:      -186.734387  Gnorm:      0.000066  CPU:    0.014
  ** Hessian has required structure
  Cycle:      8 Energy:      -186.734387  Gnorm:      0.000049  CPU:    0.016
  ** Hessian has required structure
  Cycle:      9 Energy:      -186.734387  Gnorm:      0.000039  CPU:    0.017
  ** Hessian has required structure
  Cycle:     10 Energy:      -186.734387  Gnorm:      0.000037  CPU:    0.018
  ** Hessian has required structure
  Cycle:     11 Energy:      -186.734387  Gnorm:      0.000000  CPU:    0.020
  ** Hessian has required structure

  XYZ File written as 001/4/sp_mod_30/sp_mod_30_eig.xyz



  **** Optimisation achieved ****


  Final energy =    -186.73438709 eV
  Final Gnorm  =       0.00000000

  Components of energy : 

--------------------------------------------------------------------------------
  Interatomic potentials     =          38.84309372 eV    
  Monopole - monopole (real) =        -225.57748081 eV    
--------------------------------------------------------------------------------
  Total lattice energy       =        -186.73438709 eV    
--------------------------------------------------------------------------------
  Total lattice energy       =          -18017.0139 kJ/mol
--------------------------------------------------------------------------------

  Final cartesian coordinates of atoms :

--------------------------------------------------------------------------------
   No.  Atomic        x           y          z          Radius
        Label       (Angs)      (Angs)     (Angs)       (Angs) 
--------------------------------------------------------------------------------
     1  Al    c     1.282843    0.049979    2.441954    0.000000
     2  Al    c     1.310337    1.220765   -0.089155    0.000000
     3  Al    c    -0.317718    0.836246   -2.320654    0.000000
     4  F     c    -1.669272   -0.369923   -2.216259    0.000000
     5  F     c     2.120291   -0.466352    0.807687    0.000000
     6  F     c     0.051189    1.822042   -3.797756    0.000000
     7  F     c    -0.478369    1.988394   -0.808870    0.000000
     8  F     c     2.666521    2.494829   -0.334588    0.000000
     9  F     c     1.266960   -0.047159   -1.731472    0.000000
    10  F     c     0.374961    1.569199    1.730289    0.000000
    11  F     c     2.545341    0.596804    3.623815    0.000000
    12  F     c     0.020120   -1.199829    2.810672    0.000000
    13  F     s    -1.464406   -0.187415   -2.231373    0.000000
    14  F     s     1.924158   -0.199002    0.882137    0.000000
    15  F     s    -0.005429    1.671090   -3.571815    0.000000
    16  F     s    -0.238843    1.761809   -0.891173    0.000000
    17  F     s     2.427538    2.270317   -0.291339    0.000000
    18  F     s     1.091814    0.209882   -1.594573    0.000000
    19  F     s     0.593499    1.352924    1.585538    0.000000
    20  F     s     2.352059    0.512988    3.443099    0.000000
    21  F     s     0.211072   -1.010485    2.754154    0.000000
--------------------------------------------------------------------------------


  Final Cartesian derivatives :

--------------------------------------------------------------------------------
   No.  Atomic          x             y             z           Radius
        Label       (eV/Angs)     (eV/Angs)    (eV/Angs)      (eV/Angs)
--------------------------------------------------------------------------------
      1 Al    c       0.000000      0.000000      0.000000      0.000000
      2 Al    c       0.000000      0.000000      0.000000      0.000000
      3 Al    c       0.000000      0.000000      0.000000      0.000000
      4 F     c       0.000000      0.000000      0.000000      0.000000
      5 F     c       0.000000      0.000000      0.000000      0.000000
      6 F     c       0.000000      0.000000      0.000000      0.000000
      7 F     c       0.000000      0.000000      0.000000      0.000000
      8 F     c       0.000000      0.000000      0.000000      0.000000
      9 F     c       0.000000      0.000000      0.000000      0.000000
     10 F     c       0.000000      0.000000      0.000000      0.000000
     11 F     c       0.000000      0.000000      0.000000      0.000000
     12 F     c       0.000000      0.000000      0.000000      0.000000
     13 F     s       0.000000      0.000000      0.000000      0.000000
     14 F     s      -0.000000      0.000000      0.000000      0.000000
     15 F     s      -0.000000     -0.000000      0.000000      0.000000
     16 F     s       0.000000     -0.000000      0.000000      0.000000
     17 F     s       0.000000     -0.000000     -0.000000      0.000000
     18 F     s       0.000000     -0.000000      0.000000      0.000000
     19 F     s      -0.000000      0.000000      0.000000      0.000000
     20 F     s       0.000000      0.000000      0.000000      0.000000
     21 F     s       0.000000     -0.000000      0.000000      0.000000
--------------------------------------------------------------------------------
  Maximum abs         0.000000      0.000000      0.000000      0.000000
--------------------------------------------------------------------------------


  Born effective charge tensors : 

-------------------------------------------------------------------------------
  Atom             x           y             z
-------------------------------------------------------------------------------
    1 Al    x       0.6915     -0.3770     -0.1770
            y      -0.3726      0.9329     -0.0609
            z      -0.1867     -0.0692      1.0242
-------------------------------------------------------------------------------
    2 Al    x       1.1863     -0.4391      0.3127
            y      -0.4391      1.1762     -0.0433
            z       0.3127     -0.0433      2.2202
-------------------------------------------------------------------------------
    3 Al    x       0.9303     -0.3191      0.1469
            y      -0.3235      0.8227      0.2752
            z       0.1567      0.2835      0.8956
-------------------------------------------------------------------------------
    4 F     x      -0.2257      0.2823     -0.0760
            y       0.2699     -0.2665     -0.0370
            z      -0.0487     -0.0136     -0.5769
-------------------------------------------------------------------------------
    5 F     x      -0.3094      0.0826     -0.0827
            y       0.0521     -0.4052      0.1057
            z      -0.0585      0.1225     -0.4052
-------------------------------------------------------------------------------
    6 F     x      -0.5189      0.0548     -0.1128
            y       0.0731     -0.3486     -0.2469
            z      -0.1533     -0.2816     -0.1919
-------------------------------------------------------------------------------
    7 F     x      -0.4403      0.0489     -0.1057
            y       0.0795     -0.2956      0.0569
            z      -0.1295      0.0396     -0.3839
-------------------------------------------------------------------------------
    8 F     x      -0.2501      0.2708     -0.0879
            y       0.2708     -0.2738     -0.0297
            z      -0.0879     -0.0297     -0.6201
-------------------------------------------------------------------------------
    9 F     x      -0.2794     -0.0106     -0.0281
            y      -0.0166     -0.3329     -0.0820
            z      -0.0584     -0.1110     -0.5075
-------------------------------------------------------------------------------
   10 F     x      -0.3037      0.0042      0.0439
            y       0.0101     -0.2725     -0.0233
            z       0.0737      0.0063     -0.5436
-------------------------------------------------------------------------------
   11 F     x      -0.2376      0.1362      0.2398
            y       0.1178     -0.4784      0.1241
            z       0.2803      0.1588     -0.3434
-------------------------------------------------------------------------------
   12 F     x      -0.2432      0.2660     -0.0732
            y       0.2784     -0.2585     -0.0388
            z      -0.1004     -0.0622     -0.5674
-------------------------------------------------------------------------------




  Moment of inertia tensor (10^-46 x kgm^2): 

-------------------------------------------------------------------------------
                x           y           z           Principal axis system
-------------------------------------------------------------------------------
       x        247.65       -7.15      -55.78           85.191036
       y         -7.15      264.81       32.06          251.022996
       z        -55.78       32.06      109.23          285.475128
-------------------------------------------------------------------------------
  Centre of mass (Ang) =     0.763869     0.707386     0.009741
-------------------------------------------------------------------------------


  Vibrational Frequency Calculation : 

--------------------------------------------------------------------------------

  Frequencies (cm-1) and Eigenvectors : 

  Frequency      -0.0000   -0.0000    0.0000   22.8740   35.5764   45.9615
  IR Intensity    0.0000    0.0000    0.0000    0.0003    0.0022    0.0000
     in X         0.0000    0.0000    0.0000    0.0000    0.0011    0.0000
     in Y         0.0000    0.0000    0.0000    0.0000    0.0010    0.0000
     in Z         0.0000    0.0000    0.0000    0.0003    0.0000    0.0000
  Raman Intsty    0.0000    0.0000    0.0000    0.0000    0.0049    0.0000

     1 x       0.076723  0.179286  0.262791 -0.215879 -0.098379  0.203275
     1 y       0.042431 -0.273678  0.174325 -0.187454 -0.036346 -0.237076
     1 z      -0.315281  0.006797  0.087411  0.005193 -0.105920 -0.107453
     2 x       0.076723  0.179286  0.262791  0.028147  0.160303 -0.000000
     2 y       0.042431 -0.273678  0.174325 -0.013828  0.150596 -0.000000
     2 z      -0.315281  0.006797  0.087411  0.083756 -0.029010  0.000000
     3 x       0.076723  0.179286  0.262791  0.194416 -0.019985 -0.203274
     3 y       0.042431 -0.273678  0.174325  0.197998 -0.074851  0.237076
     3 z      -0.315281  0.006797  0.087411 -0.069061  0.127340  0.107453
     4 x       0.064385  0.150453  0.220529  0.091052  0.078023 -0.236521
     4 y       0.035608 -0.229665  0.146290  0.225928 -0.141568  0.275851
     4 z      -0.264578  0.005704  0.073354 -0.326221  0.459945  0.125027
     5 x       0.064385  0.150453  0.220529 -0.024421  0.117596  0.080057
     5 y       0.035608 -0.229665  0.146290 -0.044565  0.112655 -0.051479
     5 z      -0.264578  0.005704  0.073354  0.049895 -0.028871 -0.170485
     6 x       0.064385  0.150453  0.220529  0.376318 -0.297636 -0.251536
     6 y       0.035608 -0.229665  0.146290  0.288389 -0.223990  0.293364
     6 z      -0.264578  0.005704  0.073354  0.075620 -0.068856  0.132965
     7 x       0.064385  0.150453  0.220529  0.054225  0.121169 -0.014743
     7 y       0.035608 -0.229665  0.146290  0.029319  0.111653  0.112838
     7 z      -0.264578  0.005704  0.073354  0.035662 -0.014338  0.158665
     8 x       0.064385  0.150453  0.220529  0.039399  0.134340 -0.000000
     8 y       0.035608 -0.229665  0.146290 -0.019356  0.126205 -0.000000
     8 z      -0.264578  0.005704  0.073354  0.117237 -0.024311  0.000000
     9 x       0.064385  0.150453  0.220529  0.053331  0.122283 -0.159687
     9 y       0.035608 -0.229665  0.146290  0.030361  0.110354  0.090596
     9 z      -0.264578  0.005704  0.073354  0.036135 -0.014927 -0.066460
    10 x       0.064385  0.150453  0.220529 -0.025315  0.116482  0.094372
    10 y       0.035608 -0.229665  0.146290 -0.043523  0.113954 -0.151956
    10 z      -0.264578  0.005704  0.073354  0.050368 -0.028282  0.078280
    11 x       0.064385  0.150453  0.220529 -0.285252 -0.219883  0.251537
    11 y       0.035608 -0.229665  0.146290 -0.333120 -0.262193 -0.293363
    11 z      -0.264578  0.005704  0.073354  0.195344  0.162514 -0.132965
    12 x       0.064385  0.150453  0.220529 -0.287303 -0.222348  0.236521
    12 y       0.035608 -0.229665  0.146290 -0.129520  0.005983 -0.275850
    12 z      -0.264578  0.005704  0.073354 -0.257742 -0.433830 -0.125027


  Frequency      66.7789   70.7322  103.9902  107.7457  161.5727  165.9223
  IR Intensity    0.0000    0.0001    0.0041    0.0034    0.0065    0.0000
     in X         0.0000    0.0000    0.0004    0.0013    0.0034    0.0000
     in Y         0.0000    0.0000    0.0001    0.0017    0.0030    0.0000
     in Z         0.0000    0.0000    0.0036    0.0004    0.0001    0.0000
  Raman Intsty    0.0000    0.0000    0.0000    0.0000    0.1256    0.0000

     1 x       0.028590  0.033366 -0.182851  0.044154  0.145648  0.189791
     1 y      -0.033344 -0.038914 -0.143176 -0.051499  0.047898 -0.221335
     1 z      -0.015113 -0.017638 -0.030014 -0.023341  0.169853 -0.100324
     2 x       0.000001 -0.080957  0.010138 -0.157899 -0.060872 -0.000000
     2 y      -0.000001  0.094418 -0.004981  0.184155 -0.057186 -0.000000
     2 z      -0.000001  0.042795  0.030163  0.083467  0.011016  0.000000
     3 x      -0.028591  0.033365  0.142866  0.044156  0.021329 -0.189791
     3 y       0.033345 -0.038913  0.162819 -0.051497  0.108968  0.221337
     3 z       0.015114 -0.017637 -0.088961 -0.023342 -0.200072  0.100321
     4 x      -0.263046  0.317373  0.211480 -0.004953 -0.003253  0.229868
     4 y       0.306787 -0.370148  0.064069  0.005778  0.113074 -0.268106
     4 z       0.139049 -0.167767  0.258710  0.002620 -0.255627 -0.121534
     5 x       0.209173  0.133536 -0.238696 -0.055546  0.071075  0.342969
     5 y       0.091009  0.162780 -0.174780  0.110724  0.044519 -0.116931
     5 z       0.054441 -0.015832 -0.050272 -0.090300  0.116758  0.018245
     6 x       0.278818 -0.163522 -0.123436  0.317786 -0.363234  0.028674
     6 y      -0.325182  0.190714 -0.001910 -0.370630 -0.121824 -0.033457
     6 z      -0.147387  0.086440 -0.229285 -0.167987 -0.418364 -0.015163
     7 x       0.088245 -0.168578  0.172510 -0.123228  0.024751 -0.102995
     7 y       0.188398 -0.121037  0.211527  0.047141  0.045504  0.342371
     7 z      -0.108266  0.038840 -0.124689 -0.078051 -0.134100 -0.061677
     8 x       0.000004 -0.218097  0.126657 -0.335216 -0.054186  0.000016
     8 y      -0.000004  0.254363 -0.062221  0.390958 -0.050906 -0.000009
     8 z      -0.000002  0.115288  0.376873  0.177203  0.009807  0.000046
     9 x      -0.144503  0.132250  0.178782  0.019467 -0.007499 -0.252889
     9 y      -0.122785  0.163404  0.204210  0.073879  0.083119  0.072681
     9 z       0.138005 -0.019637 -0.128007  0.132899 -0.117053  0.249796
    10 x      -0.152913 -0.169861 -0.232423 -0.048220  0.103327  0.012914
    10 y      -0.156624 -0.120415 -0.182096  0.010290  0.006907 -0.298118
    10 z      -0.084180  0.035033 -0.053590  0.145149  0.099711 -0.206369
    11 x      -0.278812 -0.163532 -0.035997  0.317787 -0.056508 -0.028676
    11 y       0.325175  0.190725  0.080235 -0.370630 -0.272501  0.033455
    11 z       0.147383  0.086445 -0.245109 -0.167988  0.494326  0.015160
    12 x       0.263035  0.317382 -0.023311 -0.004955  0.159087 -0.229880
    12 y      -0.306774 -0.370158 -0.156506  0.005777  0.033324  0.268112
    12 z      -0.139043 -0.167772  0.301202  0.002621  0.227424  0.121499


  Frequency     166.0995  187.7992  193.1049  209.4080  209.5725  210.2322
  IR Intensity    0.0007    0.0521    0.0000    0.0900    0.0004    0.0080
     in X         0.0001    0.0197    0.0000    0.0089    0.0002    0.0030
     in Y         0.0000    0.0268    0.0000    0.0022    0.0002    0.0041
     in Z         0.0006    0.0055    0.0000    0.0789    0.0000    0.0008
  Raman Intsty    0.0000    0.0000    0.0000    0.0000    0.0731    0.0000

     1 x      -0.106367 -0.100909  0.127748  0.078868 -0.191993 -0.067236
     1 y      -0.111567  0.117688 -0.148990  0.134926 -0.105242  0.078437
     1 z       0.044879  0.053342 -0.067529 -0.148513 -0.131002  0.035538
     2 x      -0.001936 -0.102455 -0.000000 -0.081253  0.279429  0.004776
     2 y       0.000951  0.119492 -0.000001  0.039841  0.262530 -0.005582
     2 z      -0.005757  0.054160 -0.000000 -0.241609 -0.050617 -0.002545
     3 x       0.122607 -0.100910 -0.127747 -0.163881 -0.087037 -0.067255
     3 y       0.103590  0.117689  0.148990 -0.093095 -0.156865  0.078422
     3 z       0.003448  0.053342  0.067528 -0.104644  0.181450  0.035537
     4 x       0.183694  0.212059 -0.014216 -0.046205 -0.230017 -0.056014
     4 y       0.030114 -0.247322  0.016581 -0.176922 -0.019202  0.065316
     4 z       0.280989 -0.112099  0.007517  0.302918 -0.392763  0.029635
     5 x      -0.055605 -0.283553 -0.207768 -0.053047  0.012792  0.286754
     5 y      -0.022111  0.091968 -0.332836  0.054242  0.080797  0.297747
     5 z       0.036318 -0.018892 -0.152618 -0.168686 -0.068108  0.129186
     6 x       0.107660  0.096304  0.196487  0.344108 -0.105297  0.117009
     6 y       0.090516 -0.112320 -0.229159  0.199509 -0.160029 -0.136422
     6 z       0.003945 -0.050908 -0.103865  0.210824  0.153870 -0.061827
     7 x       0.031001 -0.081254 -0.306852 -0.082777  0.092658 -0.280355
     7 y       0.059303  0.282017 -0.150626  0.026338  0.018307 -0.235020
     7 z       0.020634 -0.055501  0.245751 -0.163331  0.048963  0.231815
     8 x      -0.256072  0.322945 -0.000002  0.068900  0.269413  0.227784
     8 y       0.125793 -0.376645  0.000001 -0.033909  0.253074 -0.265666
     8 z      -0.761970 -0.170709  0.000001  0.205228 -0.048717 -0.120392
     9 x       0.068149 -0.207290  0.109034 -0.062227  0.058247  0.182760
     9 y       0.015952  0.054508  0.381338  0.002294  0.058459  0.348830
     9 z       0.001012  0.208029 -0.141183 -0.174182  0.067150 -0.180257
    10 x      -0.018469 -0.004991  0.405589 -0.032433  0.047209 -0.384343
    10 y      -0.065459  0.244556  0.102121  0.030286  0.040640 -0.183934
    10 z       0.016663  0.171420  0.048048 -0.179545 -0.086309 -0.077624
    11 x      -0.092813  0.096304 -0.196487 -0.171019 -0.190780  0.116977
    11 y      -0.097812 -0.112316  0.229161 -0.284449 -0.118173 -0.136455
    11 z       0.040228 -0.050908  0.103866  0.304098 -0.100187 -0.061817
    12 x       0.015409  0.212060  0.014215  0.232828  0.045300 -0.055999
    12 y      -0.127922 -0.247323 -0.016579  0.085288 -0.154376  0.065337
    12 z       0.311454 -0.112099 -0.007515  0.252258  0.426303  0.029619


  Frequency     240.6569  272.2706  291.8344  309.3682  348.3269  394.9370
  IR Intensity    0.0079    0.0193    0.0304    0.0000    0.0017    0.0230
     in X         0.0030    0.0019    0.0159    0.0000    0.0009    0.0023
     in Y         0.0041    0.0005    0.0140    0.0000    0.0008    0.0005
     in Z         0.0008    0.0169    0.0005    0.0000    0.0000    0.0201
  Raman Intsty    0.0000    0.0000    0.1801    0.0000    1.3086    0.0000

     1 x      -0.228293 -0.174854  0.115803  0.099977  0.028692 -0.002929
     1 y       0.266254 -0.088145  0.160618 -0.116601 -0.100690 -0.089068
     1 z       0.120678 -0.136304 -0.135303 -0.052848  0.276432  0.190971
     2 x       0.313203 -0.010359  0.106072  0.000000  0.238388 -0.029298
     2 y      -0.365284  0.005088  0.099649  0.000000  0.223953  0.014393
     2 z      -0.165563 -0.030823 -0.019196 -0.000000 -0.043142 -0.087178
     3 x      -0.228293  0.068442  0.188253 -0.099977 -0.149745  0.123592
     3 y       0.266255  0.140419  0.125027  0.116601 -0.013034  0.029792
     3 z       0.120678 -0.180335  0.080277  0.052848 -0.254524  0.168074
     4 x       0.101001  0.167891  0.183764  0.105432 -0.076670  0.112065
     4 y      -0.117796  0.059874  0.155604 -0.122964 -0.118121  0.110884
     4 z      -0.053390  0.185506  0.004323 -0.055732  0.115574 -0.032648
     5 x      -0.010546  0.313534 -0.281343 -0.054260 -0.209728 -0.227503
     5 y      -0.099342  0.218449 -0.146805  0.306452 -0.006935  0.384742
     5 z       0.244859  0.019994 -0.246653 -0.337026  0.198381 -0.015269
     6 x       0.093196 -0.018866 -0.133114  0.094126  0.095447 -0.054019
     6 y      -0.108693  0.094448 -0.059721 -0.109778  0.151671 -0.094398
     6 z      -0.049264 -0.244072 -0.120055 -0.049756 -0.154073  0.106082
     7 x       0.144192 -0.224380 -0.109843  0.361915 -0.053566 -0.370252
     7 y       0.046026 -0.286893 -0.220694 -0.017426 -0.240415  0.250636
     7 z       0.216856  0.117342  0.317448  0.281348 -0.150732  0.010565
     8 x      -0.180985  0.053887  0.124829  0.000000  0.326971  0.020970
     8 y       0.211080 -0.026472  0.117270  0.000000  0.307173 -0.010301
     8 z       0.095670  0.160346 -0.022590  0.000000 -0.059173  0.062397
     9 x      -0.162467 -0.260893 -0.094495 -0.184987 -0.285797  0.135988
     9 y      -0.024712 -0.244307 -0.238594 -0.188923  0.030435 -0.339786
     9 z      -0.207195  0.136643  0.309334 -0.374876 -0.027970 -0.257040
    10 x      -0.007729  0.277020 -0.296692 -0.122668  0.022505  0.278738
    10 y       0.120656  0.261034 -0.128905 -0.100103 -0.277784 -0.205680
    10 z      -0.235198  0.039295 -0.238539  0.430553  0.075619 -0.282874
    11 x       0.093196 -0.137941 -0.041784 -0.094126  0.182124  0.115039
    11 y      -0.108693 -0.017417 -0.104586  0.109778  0.109092  0.064423
    11 z      -0.049265 -0.222523  0.151707  0.049756  0.103840  0.075487
    12 x       0.101001 -0.031103  0.159954 -0.105433 -0.141106 -0.119901
    12 y      -0.117796 -0.127071  0.167301  0.122964 -0.086468 -0.107035
    12 z      -0.053391  0.221519 -0.066526  0.055733 -0.076163  0.009332


  Frequency     415.9613  447.5348  498.7065  520.1375  559.3719  571.1899
  IR Intensity    0.0094    0.0660    0.1330    0.0020    0.1246    0.0000
     in X         0.0049    0.0250    0.0132    0.0010    0.0123    0.0000
     in Y         0.0043    0.0340    0.0032    0.0009    0.0030    0.0000
     in Z         0.0002    0.0070    0.1167    0.0000    0.1093    0.0000
  Raman Intsty    2.2122    0.0000    0.0000    3.8619    0.0000    0.0000

     1 x       0.004373 -0.047402 -0.001548  0.000821 -0.002633  0.291458
     1 y       0.041213  0.055284  0.052807 -0.056697 -0.002106 -0.339923
     1 z      -0.082656  0.025057 -0.119437  0.126645 -0.000333 -0.154068
     2 x       0.096327  0.407096 -0.139125  0.002030  0.217587 -0.000001
     2 y       0.090494 -0.474790  0.068344  0.001907 -0.106889  0.000001
     2 z      -0.017433 -0.215197 -0.413977 -0.000367  0.647448  0.000000
     3 x       0.056243 -0.047402 -0.074305 -0.079516  0.002120 -0.291460
     3 y       0.015733  0.055285 -0.015545 -0.017233  0.002358  0.339925
     3 z       0.071686  0.025058 -0.106270 -0.112403 -0.001193  0.154069
     4 x       0.059331 -0.037335 -0.147485 -0.254135 -0.247420  0.011140
     4 y       0.052927  0.043544 -0.125886 -0.226678 -0.223980 -0.012993
     4 z      -0.004535  0.019736 -0.001259  0.019364  0.026114 -0.005889
     5 x       0.204352 -0.064060 -0.117339  0.150304 -0.099312 -0.189997
     5 y      -0.399712  0.196531  0.034237 -0.098104  0.115531  0.143880
     5 z       0.141591 -0.301848  0.367114 -0.297129 -0.015766  0.284181
     6 x      -0.019496 -0.033208  0.032604  0.072251  0.073335  0.010997
     6 y      -0.037287  0.038730  0.111916  0.190755  0.177588 -0.012825
     6 z       0.045386  0.017554 -0.185244 -0.284187 -0.253086 -0.005813
     7 x      -0.409835 -0.247003  0.040977 -0.033443 -0.111922  0.079041
     7 y       0.206673  0.024665  0.182968  0.207888  0.103684 -0.248119
     7 z      -0.104404 -0.268740  0.338463  0.275979 -0.013484 -0.264102
     8 x       0.174726 -0.028434  0.007852  0.032758 -0.014478  0.000000
     8 y       0.164146  0.033162 -0.003857  0.030774  0.007113  0.000000
     8 z      -0.031621  0.015031  0.023364 -0.005928 -0.043082 -0.000000
     9 x       0.041502  0.145695  0.307172  0.286133  0.059100  0.305878
     9 y      -0.319713  0.093490 -0.127492 -0.164830 -0.095777 -0.200807
     9 z      -0.342985  0.322293  0.197749  0.107047 -0.103888  0.060629
    10 x      -0.246983 -0.037249  0.148855 -0.169274  0.071711 -0.194920
    10 y       0.126673 -0.078376 -0.276221  0.274614 -0.083930  0.305043
    10 z       0.380172  0.355401  0.226399 -0.128196 -0.106170 -0.080709
    11 x      -0.046017 -0.033208 -0.146235  0.244027 -0.225281 -0.010997
    11 y      -0.024259  0.038730 -0.056094  0.106371 -0.102946  0.012825
    11 z      -0.033530  0.017554 -0.152879  0.226950 -0.199045  0.005813
    12 x       0.055401 -0.037335  0.129775 -0.237264  0.235595 -0.011141
    12 y       0.054857  0.043544  0.134585 -0.234967  0.229789  0.012993
    12 z      -0.016228  0.019736 -0.051435  0.069566 -0.061299  0.005889


  Frequency     596.1349  718.7743  760.7088  760.7364  808.5681  810.7530
  IR Intensity    0.1601    0.0213    0.0000    0.0041    0.0013    0.0045
     in X         0.0606    0.0111    0.0000    0.0004    0.0001    0.0024
     in Y         0.0825    0.0098    0.0000    0.0001    0.0000    0.0021
     in Z         0.0169    0.0004    0.0000    0.0036    0.0012    0.0001
  Raman Intsty    0.0000    0.1002    0.4873    0.0000    0.0000    0.0158

     1 x      -0.276981  0.000666  0.053140  0.015233  0.414237  0.412094
     1 y       0.323038 -0.163749  0.192871  0.232672  0.284512  0.270867
     1 z       0.146415  0.362542 -0.325007 -0.484531  0.155908  0.181960
     2 x      -0.180108 -0.321830 -0.417249  0.114953  0.000549  0.061198
     2 y       0.210058 -0.302343 -0.391855 -0.056935 -0.000267  0.057493
     2 z       0.095207  0.058243  0.075227  0.343079  0.001628 -0.011075
     3 x      -0.276978 -0.229118  0.253471 -0.320091 -0.267941  0.249568
     3 y       0.323036 -0.050869  0.094833 -0.082570 -0.356351  0.350736
     3 z       0.146414 -0.321200  0.270270 -0.423353  0.279348 -0.301716
     4 x       0.019841  0.166657 -0.157873  0.183779  0.238078 -0.227602
     4 y      -0.023140  0.142829 -0.135721  0.156280  0.216414 -0.208011
     4 z      -0.010488  0.000148  0.000788  0.002859 -0.027093  0.028373
     5 x       0.183487  0.054865 -0.031310 -0.072330 -0.011455 -0.009790
     5 y      -0.163641  0.011730  0.050702  0.042806 -0.011601 -0.018553
     5 z      -0.255922 -0.120963  0.078885  0.115103 -0.013322 -0.014674
     6 x       0.019260 -0.034230  0.012305 -0.028912  0.075612 -0.076329
     6 y      -0.022462 -0.113132  0.053092 -0.106786  0.189957 -0.192375
     6 z      -0.010181  0.184850 -0.093861  0.180909 -0.276068  0.280045
     7 x       0.104054  0.036791  0.033473 -0.016990  0.009369 -0.015861
     7 y      -0.238263  0.074376 -0.048842  0.094669  0.007963 -0.005545
     7 z      -0.241544  0.104375 -0.079435  0.104974 -0.017090  0.019317
     8 x       0.024286  0.339970  0.343171 -0.006450 -0.000856 -0.041689
     8 y      -0.028324  0.319384  0.322384  0.003551  0.000419 -0.039164
     8 z      -0.012838 -0.061525 -0.062088 -0.020037 -0.002544  0.007545
     9 x       0.282072  0.116443 -0.066864  0.121583  0.002462 -0.001007
     9 y      -0.212071 -0.018521  0.068180 -0.066946  0.016018 -0.022869
     9 z       0.037434  0.062270 -0.026396  0.031722 -0.013439  0.011464
    10 x       0.202642 -0.024787  0.068811  0.066400 -0.018363 -0.024644
    10 y      -0.286695  0.104626 -0.066067 -0.118992 -0.003545 -0.001229
    10 z       0.051809 -0.078858  0.025960  0.041769 -0.009670 -0.006822
    11 x       0.019260 -0.147426  0.070145  0.140330 -0.241873 -0.244999
    11 y      -0.022462 -0.057525  0.024489  0.052144 -0.108296 -0.109503
    11 z      -0.010181 -0.151975  0.078666  0.150424 -0.218628 -0.221877
    12 x       0.019841  0.147453 -0.140019 -0.161113 -0.227958 -0.219467
    12 y      -0.023140  0.152262 -0.144107 -0.167748 -0.221404 -0.211987
    12 z      -0.010488 -0.056994  0.053066  0.065319  0.057248  0.052533




--------------------------------------------------------------------------------
  Vibrational properties (for cluster):  Temperature  =       0.000 K
--------------------------------------------------------------------------------
  Zero point energy            =        0.693010 eV
--------------------------------------------------------------------------------

  Phonon density of states : 

--------------------------------------------------------------------------------
 Frequency (cm-1) Density of States                                             
--------------------------------------------------------------------------------
    0.00000 |********************                                          0.029
   12.66802 |********************                                          0.029
   25.33603 |********************                                          0.029
   38.00405 |********************                                          0.029
   50.67207 |                                                              0.000
   63.34008 |****************************************                      0.059
   76.00810 |                                                              0.000
   88.67612 |                                                              0.000
  101.34413 |****************************************                      0.059
  114.01215 |                                                              0.000
  126.68017 |                                                              0.000
  139.34818 |                                                              0.000
  152.01620 |********************                                          0.029
  164.68422 |****************************************                      0.059
  177.35223 |********************                                          0.029
  190.02025 |********************                                          0.029
  202.68827 |************************************************************  0.088
  215.35628 |                                                              0.000
  228.02430 |********************                                          0.029
  240.69232 |                                                              0.000
  253.36033 |                                                              0.000
  266.02835 |********************                                          0.029
  278.69637 |                                                              0.000
  291.36438 |********************                                          0.029
  304.03240 |********************                                          0.029
  316.70042 |                                                              0.000
  329.36843 |                                                              0.000
  342.03645 |********************                                          0.029
  354.70447 |                                                              0.000
  367.37248 |                                                              0.000
  380.04050 |                                                              0.000
  392.70852 |********************                                          0.029
  405.37653 |********************                                          0.029
  418.04455 |                                                              0.000
  430.71257 |                                                              0.000
  443.38058 |********************                                          0.029
  456.04860 |                                                              0.000
  468.71662 |                                                              0.000
  481.38464 |                                                              0.000
  494.05265 |********************                                          0.029
  506.72067 |                                                              0.000
  519.38869 |********************                                          0.029
  532.05670 |                                                              0.000
  544.72472 |                                                              0.000
  557.39274 |********************                                          0.029
  570.06075 |********************                                          0.029
  582.72877 |                                                              0.000
  595.39679 |********************                                          0.029
  608.06480 |                                                              0.000
  620.73282 |                                                              0.000
  633.40084 |                                                              0.000
  646.06885 |                                                              0.000
  658.73687 |                                                              0.000
  671.40489 |                                                              0.000
  684.07290 |                                                              0.000
  696.74092 |                                                              0.000
  709.40894 |********************                                          0.029
  722.07695 |                                                              0.000
  734.74497 |                                                              0.000
  747.41299 |                                                              0.000
  760.08100 |****************************************                      0.059
  772.74902 |                                                              0.000
  785.41704 |                                                              0.000
  798.08505 |****************************************                      0.059
--------------------------------------------------------------------------------



  Time to end of optimisation =       0.0297 seconds


  Peak dynamic memory used =       0.65 MB 


  Timing analysis for GULP :

--------------------------------------------------------------------------------
  Task / Subroutine                                          Time (Seconds)
--------------------------------------------------------------------------------
  Calculation of real space energy and derivatives                0.0018
  Calculation of phonons                                          0.0016
  Calculation and manipulation of Hessian matrix                  0.0012
--------------------------------------------------------------------------------
  Total CPU time                                                  0.0297
--------------------------------------------------------------------------------


  Job Finished at 14:38.43 25th May        2022                               

