********************************************************************************
*                       GENERAL UTILITY LATTICE PROGRAM                        *
*                                 Julian Gale                                  *
*                       Curtin Institute for Computation                       *
*                           Department of Chemistry                            *
*                    Curtin University, Western Australia                      *
********************************************************************************
* Version = 5.1.1 * Last modified =  24th November 2018                        *
********************************************************************************
*  optimise     - perform optimisation run                                     *
*  conp         - constant pressure calculation                                *
*  shell        - only shells and radii to be optimised                        *
*  phonon       - calculate phonons for final geometry                         *
*  eigenvectors - output phonon eigenvectors                                   *
********************************************************************************

  Job Started  at 14:38.52 25th May        2022                               

  Number of CPUs =     1

  Host name      = login03                                 


  Total number of configurations input =      1

********************************************************************************
*  Input for Configuration =   1                                               *
********************************************************************************

  Formula = Al3F9                                                       

  Number of irreducible atoms/shells =      21


  Total number atoms/shells =      21

  Dimensionality = 0               :  Cluster


  Charge on cluster =  -0.000000


  Initial cluster dipoles : x =      0.095040 e.Angs
                            y =     -0.005178 e.Angs
                            z =      0.105182 e.Angs

  Temperature of configuration =  0.000     K 

  Symmetry number =      1

  Cartesian coordinates of cluster :

--------------------------------------------------------------------------------
   No.  Atomic       x           y          z         Charge      Occupancy
        Label      (Angs)      (Angs)     (Angs)        (e)         (Frac)  
--------------------------------------------------------------------------------
      1 Al    c      0.4731     -0.5977      1.7584     3.00000    1.000000    
      2 Al    c      2.2854     -1.7334     -0.4204     3.00000    1.000000    
      3 Al    c     -0.9256     -1.8870     -1.1052     3.00000    1.000000    
      4 F     c      3.2645     -0.2647     -0.9229     0.59000    1.000000    
      5 F     c     -1.9774     -0.8007     -2.1280     0.59000    1.000000    
      6 F     c      2.4450     -3.5643     -0.2748     0.59000    1.000000    
      7 F     c     -1.4440     -3.6179     -1.3606     0.59000    1.000000    
      8 F     c      2.0566     -1.3892      1.3593     0.59000    1.000000    
      9 F     c      0.8149     -1.5087     -1.4917     0.59000    1.000000    
     10 F     c      0.4055     -1.1686      3.4865     0.59000    1.000000    
     11 F     c      0.6039      1.1377      1.2274     0.59000    1.000000    
     12 F     c     -0.7649     -1.4729      0.6979     0.59000    1.000000    
     13 F     s      3.2645 *   -0.2647 *   -0.9229 *  -1.59000    1.000000    
     14 F     s     -1.9774 *   -0.8007 *   -2.1280 *  -1.59000    1.000000    
     15 F     s      2.4450 *   -3.5643 *   -0.2748 *  -1.59000    1.000000    
     16 F     s     -1.4440 *   -3.6179 *   -1.3606 *  -1.59000    1.000000    
     17 F     s      2.0566 *   -1.3892 *    1.3593 *  -1.59000    1.000000    
     18 F     s      0.8149 *   -1.5087 *   -1.4917 *  -1.59000    1.000000    
     19 F     s      0.4055 *   -1.1686 *    3.4865 *  -1.59000    1.000000    
     20 F     s      0.6039 *    1.1377 *    1.2274 *  -1.59000    1.000000    
     21 F     s     -0.7649 *   -1.4729 *    0.6979 *  -1.59000    1.000000    
--------------------------------------------------------------------------------


  Brillouin zone sampling points :

--------------------------------------------------------------------------------
  Point number          x          y          z            Weight
--------------------------------------------------------------------------------
        1           0.000000   0.000000   0.000000     1.00000000
--------------------------------------------------------------------------------


********************************************************************************
*  General input information                                                   *
********************************************************************************

  Species output for all configurations : 

--------------------------------------------------------------------------------
  Species    Type    Atomic    Atomic    Charge       Radii (Angs)     Library
                     Number     Mass       (e)     Cova   Ionic  VDW   Symbol
--------------------------------------------------------------------------------
    Al       Core       13      26.98   3.000000   1.350  0.000  2.050          
    F        Core        9      19.00   0.590000   0.710  0.000  1.300          
    F        Shell       9       0.00  -1.590000   0.710  0.000  1.300          
--------------------------------------------------------------------------------


  Accuracy factor for short range sums = 12.000

  Time limit = Infinity

  Maximum range for interatomic potentials =    100000.000000 Angstroms

  General interatomic potentials :

--------------------------------------------------------------------------------
Atom  Types   Potential      Parameter       Value         Units   Cutoffs(Ang)
  1     2                                                            Min /  Max 
--------------------------------------------------------------------------------
Al   c F    s Buckingham    Buckingham A     3760.0008    eV        0.000 10.000
                            Buckingham rho  0.22200000    Ang       
                            Buckingham C     0.0000000    eV*Ang^6  
--------------------------------------------------------------------------------
F    s F    s Buck 4 range  Buck4 A          1127.7000    eV        0.000 12.000
                            Buck4 rho       0.27530000    Ang       
                            Buck4 C          15.830000    eV*Ang^6  
                            Buck4 minimum    2.7900000    Ang       
--------------------------------------------------------------------------------
F    c F    s Spring (c-s)  Spring k 2       20.770000    eV*Ang^-2 0.000  0.800
                            Spring k 4       0.0000000    eV*Ang^-4 
--------------------------------------------------------------------------------

********************************************************************************
*  Output for configuration   1                                                *
********************************************************************************


  Components of energy : 

--------------------------------------------------------------------------------
  Interatomic potentials     =          11.40356822 eV    
  Monopole - monopole (real) =        -181.18533463 eV    
--------------------------------------------------------------------------------
  Total lattice energy       =        -169.78176641 eV    
--------------------------------------------------------------------------------
  Total lattice energy       =          -16381.3451 kJ/mol
--------------------------------------------------------------------------------


  Number of variables =       27

  Maximum number of calculations  =          2000
  Maximum Hessian update interval =            10
  Maximum step size               =   1.000000000
  Maximum parameter tolerance     =   0.000001000
  Maximum function  tolerance     =   0.000010000
  Maximum gradient  tolerance     =   0.000000010
  Maximum gradient  component     =   0.010000000

  Symmetry not applied to optimisation

  Newton-Raphson optimiser to be used

  BFGS hessian update to be used

  Lower half triangular hessian to be used

  Minimiser to switch to RFO
  When gradient norm is less than     0.010000

  Shell only optimisation

  Start of cluster optimisation :

  Cycle:      0 Energy:      -169.781766  Gnorm:      1.350281  CPU:    0.004
  ** Hessian calculated **
  Cycle:      1 Energy:      -185.304435  Gnorm:      0.417620  CPU:    0.006
  ** Hessian calculated **
  Cycle:      2 Energy:      -186.506036  Gnorm:      0.010912  CPU:    0.008
  Cycle:      3 Energy:      -186.507004  Gnorm:      0.001250  CPU:    0.009
  ** Hessian has required structure
  Cycle:      4 Energy:      -186.507010  Gnorm:      0.000682  CPU:    0.011
  ** Hessian has required structure
  Cycle:      5 Energy:      -186.507011  Gnorm:      0.000625  CPU:    0.013
  ** Hessian has required structure
  Cycle:      6 Energy:      -186.507011  Gnorm:      0.000615  CPU:    0.014
  ** Hessian has required structure
  Cycle:      7 Energy:      -186.507011  Gnorm:      0.000599  CPU:    0.016
  ** Hessian has required structure
  Cycle:      8 Energy:      -186.507011  Gnorm:      0.000599  CPU:    0.017
  ** Hessian has required structure
  Cycle:      9 Energy:      -186.507011  Gnorm:      0.000600  CPU:    0.019
  ** Hessian has required structure
  Cycle:     10 Energy:      -186.507011  Gnorm:      0.000598  CPU:    0.020
  ** Hessian has required structure
  Cycle:     11 Energy:      -186.507011  Gnorm:      0.000595  CPU:    0.021
  ** Hessian has required structure
  Cycle:     12 Energy:      -186.507014  Gnorm:      0.000000  CPU:    0.023
  ** Hessian has required structure

  XYZ File written as 002/2/sp_mod_-90/sp_mod_-90_eig.xyz



  **** Optimisation achieved ****


  Final energy =    -186.50701361 eV
  Final Gnorm  =       0.00000000

  Components of energy : 

--------------------------------------------------------------------------------
  Interatomic potentials     =          37.75339837 eV    
  Monopole - monopole (real) =        -224.26041199 eV    
--------------------------------------------------------------------------------
  Total lattice energy       =        -186.50701361 eV    
--------------------------------------------------------------------------------
  Total lattice energy       =          -17995.0758 kJ/mol
--------------------------------------------------------------------------------

  Final cartesian coordinates of atoms :

--------------------------------------------------------------------------------
   No.  Atomic        x           y          z          Radius
        Label       (Angs)      (Angs)     (Angs)       (Angs) 
--------------------------------------------------------------------------------
     1  Al    c     0.473133   -0.597729    1.758407    0.000000
     2  Al    c     2.285448   -1.733429   -0.420413    0.000000
     3  Al    c    -0.925573   -1.886968   -1.105236    0.000000
     4  F     c     3.264499   -0.264721   -0.922851    0.000000
     5  F     c    -1.977436   -0.800698   -2.128032    0.000000
     6  F     c     2.445002   -3.564264   -0.274767    0.000000
     7  F     c    -1.444038   -3.617862   -1.360555    0.000000
     8  F     c     2.056572   -1.389229    1.359314    0.000000
     9  F     c     0.814852   -1.508711   -1.491744    0.000000
    10  F     c     0.405508   -1.168553    3.486477    0.000000
    11  F     c     0.603948    1.137695    1.227387    0.000000
    12  F     c    -0.764923   -1.472859    0.697862    0.000000
    13  F     s     3.125146   -0.515959   -0.862970    0.000000
    14  F     s    -1.796369   -0.935771   -1.947747    0.000000
    15  F     s     2.438236   -3.274114   -0.316422    0.000000
    16  F     s    -1.336367   -3.359341   -1.287654    0.000000
    17  F     s     1.858631   -1.331778    1.158972    0.000000
    18  F     s     0.768907   -1.591224   -1.291387    0.000000
    19  F     s     0.386830   -1.079423    3.216208    0.000000
    20  F     s     0.564350    0.868419    1.298824    0.000000
    21  F     s    -0.630608   -1.409829    0.609338    0.000000
--------------------------------------------------------------------------------


  Final Cartesian derivatives :

--------------------------------------------------------------------------------
   No.  Atomic          x             y             z           Radius
        Label       (eV/Angs)     (eV/Angs)    (eV/Angs)      (eV/Angs)
--------------------------------------------------------------------------------
      1 Al    c       0.000000      0.000000      0.000000      0.000000
      2 Al    c       0.000000      0.000000      0.000000      0.000000
      3 Al    c       0.000000      0.000000      0.000000      0.000000
      4 F     c       0.000000      0.000000      0.000000      0.000000
      5 F     c       0.000000      0.000000      0.000000      0.000000
      6 F     c       0.000000      0.000000      0.000000      0.000000
      7 F     c       0.000000      0.000000      0.000000      0.000000
      8 F     c       0.000000      0.000000      0.000000      0.000000
      9 F     c       0.000000      0.000000      0.000000      0.000000
     10 F     c       0.000000      0.000000      0.000000      0.000000
     11 F     c       0.000000      0.000000      0.000000      0.000000
     12 F     c       0.000000      0.000000      0.000000      0.000000
     13 F     s      -0.000000      0.000000     -0.000000      0.000000
     14 F     s      -0.000000     -0.000000      0.000000      0.000000
     15 F     s      -0.000000      0.000000      0.000000      0.000000
     16 F     s       0.000000      0.000000     -0.000000      0.000000
     17 F     s      -0.000000     -0.000000     -0.000000      0.000000
     18 F     s      -0.000000      0.000000     -0.000000      0.000000
     19 F     s      -0.000000     -0.000000      0.000000      0.000000
     20 F     s       0.000000      0.000000     -0.000000      0.000000
     21 F     s       0.000000     -0.000000     -0.000000      0.000000
--------------------------------------------------------------------------------
  Maximum abs         0.000000      0.000000      0.000000      0.000000
--------------------------------------------------------------------------------


  Born effective charge tensors : 

-------------------------------------------------------------------------------
  Atom             x           y             z
-------------------------------------------------------------------------------
    1 Al    x       1.3631      0.0572      0.1311
            y       0.0494      0.7651      0.4901
            z       0.1458      0.4894      0.9958
-------------------------------------------------------------------------------
    2 Al    x       1.4669     -0.2732      0.0818
            y      -0.2662      0.4122      0.1838
            z       0.0757      0.2017      1.2118
-------------------------------------------------------------------------------
    3 Al    x       1.2566      0.0816     -0.0959
            y       0.0835      0.6079      0.2487
            z      -0.1105      0.2266      1.4578
-------------------------------------------------------------------------------
    4 F     x      -0.4278      0.2907     -0.0765
            y       0.2207     -0.1703     -0.1197
            z      -0.0664     -0.1564     -0.4909
-------------------------------------------------------------------------------
    5 F     x      -0.3865     -0.2097      0.1665
            y      -0.2018     -0.3065     -0.2148
            z       0.1589     -0.2049     -0.3882
-------------------------------------------------------------------------------
    6 F     x      -0.5986     -0.0647      0.0072
            y       0.0063      0.0146     -0.0638
            z       0.0059     -0.0299     -0.5232
-------------------------------------------------------------------------------
    7 F     x      -0.5335      0.1376     -0.0003
            y       0.1366     -0.0011      0.0526
            z       0.0012      0.0499     -0.5546
-------------------------------------------------------------------------------
    8 F     x      -0.2709     -0.0300     -0.0647
            y      -0.0487     -0.2390      0.0043
            z      -0.0798     -0.0015     -0.2140
-------------------------------------------------------------------------------
    9 F     x      -0.3563      0.0156     -0.0289
            y       0.0181     -0.2576     -0.0406
            z       0.0028     -0.0346     -0.3718
-------------------------------------------------------------------------------
   10 F     x      -0.5478      0.0120     -0.0431
            y      -0.0038     -0.4746     -0.1804
            z      -0.0243     -0.2219     -0.0348
-------------------------------------------------------------------------------
   11 F     x      -0.5496      0.0241     -0.0032
            y       0.0462     -0.0370     -0.2450
            z      -0.0211     -0.1888     -0.5378
-------------------------------------------------------------------------------
   12 F     x      -0.4157     -0.0411     -0.0740
            y      -0.0404     -0.3136     -0.1153
            z      -0.0882     -0.1295     -0.5501
-------------------------------------------------------------------------------




  Moment of inertia tensor (10^-46 x kgm^2): 

-------------------------------------------------------------------------------
                x           y           z           Principal axis system
-------------------------------------------------------------------------------
       x        160.94       -6.91      -20.20          134.100707
       y         -6.91      203.80      -26.21          177.535062
       z        -20.20      -26.21      163.83          216.936249
-------------------------------------------------------------------------------
  Centre of mass (Ang) =     0.603835    -1.405652     0.069654
-------------------------------------------------------------------------------


  Vibrational Frequency Calculation : 

--------------------------------------------------------------------------------

  Frequencies (cm-1) and Eigenvectors : 

  Frequency     -48.2949  -20.8727   -7.8668   -0.0000    0.0000    0.0000
  IR Intensity    0.0002    0.0005    0.0000    0.0000    0.0000    0.0000
     in X         0.0002    0.0002    0.0000    0.0000    0.0000    0.0000
     in Y         0.0000    0.0000    0.0000    0.0000    0.0000    0.0000
     in Z         0.0000    0.0003    0.0000    0.0000    0.0000    0.0000
  Raman Intsty    0.0022    0.0236    0.0084    0.0000    0.0000    0.0000

     1 x      -0.003629  0.021735 -0.283681  0.003272  0.060831 -0.321524
     1 y      -0.193975 -0.138287 -0.024386  0.219110 -0.239224 -0.043030
     1 z       0.109241  0.022630 -0.054286  0.243041  0.214850  0.043122
     2 x      -0.004551  0.015259  0.117948  0.003272  0.060831 -0.321524
     2 y       0.225257  0.180367  0.119951  0.219110 -0.239224 -0.043030
     2 z      -0.129937 -0.066307  0.223381  0.243041  0.214850  0.043122
     3 x       0.018395 -0.042417  0.176692  0.003272  0.060831 -0.321524
     3 y      -0.046346 -0.017041 -0.095118  0.219110 -0.239224 -0.043030
     3 z       0.017308  0.062280 -0.179384  0.243041  0.214850  0.043122
     4 x       0.017320 -0.236841  0.096826  0.002746  0.051048 -0.269817
     4 y       0.150513  0.415490  0.134539  0.183873 -0.200752 -0.036110
     4 z      -0.169765  0.214366  0.282646  0.203955  0.180298  0.036187
     5 x      -0.165489 -0.124081  0.166662  0.002746  0.051048 -0.269817
     5 y      -0.030350 -0.045194 -0.094673  0.183873 -0.200752 -0.036110
     5 z       0.209454  0.109930 -0.185332  0.203955  0.180298  0.036187
     6 x      -0.081894  0.333017  0.178502  0.002746  0.051048 -0.269817
     6 y       0.178233  0.156892  0.110412  0.183873 -0.200752 -0.036110
     6 z      -0.099603 -0.420270  0.214759  0.203955  0.180298  0.036187
     7 x       0.192299  0.076729  0.241181  0.002746  0.051048 -0.269817
     7 y      -0.063896 -0.038802 -0.093907  0.183873 -0.200752 -0.036110
     7 z      -0.173891 -0.008182 -0.243165  0.203955  0.180298  0.036187
     8 x       0.154107 -0.103396 -0.123734  0.002746  0.051048 -0.269817
     8 y       0.262157 -0.406960  0.096331  0.183873 -0.200752 -0.036110
     8 z      -0.106184  0.051516  0.159468  0.203955  0.180298  0.036187
     9 x      -0.051606 -0.064821  0.176562  0.002746  0.051048 -0.269817
     9 y       0.246160  0.089588  0.022726  0.183873 -0.200752 -0.036110
     9 z      -0.039160  0.045010  0.055862  0.203955  0.180298  0.036187
    10 x       0.159998  0.000265 -0.379532  0.002746  0.051048 -0.269817
    10 y      -0.402278  0.055252  0.002953  0.183873 -0.200752 -0.036110
    10 z       0.019729  0.073575 -0.045201  0.203955  0.180298  0.036187
    11 x      -0.328310  0.194972 -0.292827  0.002746  0.051048 -0.269817
    11 y      -0.073318 -0.180160 -0.033913  0.183873 -0.200752 -0.036110
    11 z       0.304786 -0.158826 -0.104780  0.203955  0.180298  0.036187
    12 x       0.091405 -0.069381 -0.076699  0.002746  0.051048 -0.269817
    12 y      -0.249270 -0.075942 -0.145000  0.183873 -0.200752 -0.036110
    12 z       0.058671  0.070713 -0.121996  0.203955  0.180298  0.036187


  Frequency      29.4140   46.1170   67.1039   90.9034  122.0224  130.0835
  IR Intensity    0.0007    0.0003    0.0031    0.0007    0.0016    0.0065
     in X         0.0000    0.0000    0.0001    0.0000    0.0002    0.0063
     in Y         0.0000    0.0003    0.0024    0.0000    0.0013    0.0000
     in Z         0.0007    0.0000    0.0006    0.0006    0.0000    0.0001
  Raman Intsty    0.0003    0.0001    0.0017    0.0000    0.0069    0.0472

     1 x      -0.021239  0.007589 -0.003542 -0.024274 -0.059994 -0.135426
     1 y      -0.063391  0.169917  0.013167 -0.161139 -0.015074  0.018939
     1 z       0.076335 -0.066340  0.024120  0.033909 -0.173649 -0.021335
     2 x       0.035049  0.005585 -0.051310  0.012239  0.175013  0.077547
     2 y       0.052877  0.115084  0.008036  0.064690  0.024667 -0.125865
     2 z      -0.031862 -0.054683 -0.011956 -0.007587 -0.043923 -0.035052
     3 x      -0.015874 -0.014583  0.047874  0.005033 -0.051705 -0.059514
     3 y       0.035018 -0.258757  0.039776  0.106529  0.048386  0.084559
     3 z      -0.074796  0.116165 -0.054764  0.007437  0.187932  0.028243
     4 x      -0.178821 -0.136641  0.164066  0.151548  0.302344  0.239671
     4 y       0.188179  0.137564 -0.081484 -0.008712 -0.151046 -0.194785
     4 z      -0.026038 -0.204124  0.140917  0.088876 -0.217378  0.072997
     5 x       0.222154 -0.098964 -0.124942  0.328742 -0.033183 -0.086046
     5 y       0.015080 -0.468075 -0.326669  0.028073  0.086310  0.011811
     5 z      -0.322969 -0.087318 -0.271516 -0.404202  0.202042 -0.005952
     6 x       0.312529  0.161198 -0.322931 -0.160512  0.266558  0.327906
     6 y       0.074682  0.122426 -0.032704  0.026180  0.034484 -0.085639
     6 z      -0.005689  0.094214 -0.168251 -0.158840 -0.085460 -0.133150
     7 x      -0.268506  0.094566  0.365329 -0.278592 -0.076220  0.176936
     7 y       0.065437 -0.292843 -0.098424  0.129185  0.041084  0.022049
     7 z       0.218861  0.423422  0.242314  0.351521  0.252491 -0.088412
     8 x      -0.030088  0.048876 -0.068140  0.043654  0.044164 -0.244560
     8 y       0.008686  0.240258 -0.114790 -0.017675  0.119450 -0.102798
     8 z      -0.042892 -0.070067  0.011667  0.018670 -0.072719 -0.112768
     9 x       0.033225 -0.055303 -0.010154 -0.015191 -0.038772 -0.012421
     9 y      -0.271433 -0.140146  0.386009  0.262294  0.119006 -0.034534
     9 z      -0.074968 -0.011954 -0.002023  0.074061  0.257904  0.119839
    10 x      -0.072296  0.125056 -0.151142  0.219994 -0.396998  0.460092
    10 y      -0.396144  0.240654 -0.130909  0.041189 -0.271816  0.082783
    10 z      -0.050390 -0.017778 -0.033870  0.100651 -0.258066  0.039000
    11 x       0.017256 -0.158092  0.238460 -0.273079  0.097690 -0.375423
    11 y       0.063104  0.121724  0.055362 -0.191195 -0.033893  0.077190
    11 z       0.459154 -0.162345  0.220011 -0.213487 -0.193796  0.131232
    12 x      -0.032994  0.020983 -0.082230 -0.008219 -0.241030 -0.346266
    12 y       0.223209  0.007164  0.270944 -0.281351 -0.012670  0.250576
    12 z      -0.118933  0.041739 -0.088484  0.102520  0.150303  0.010753


  Frequency     159.5195  170.7198  176.0963  180.9269  196.9804  217.1349
  IR Intensity    0.0120    0.0082    0.0012    0.0075    0.0064    0.0285
     in X         0.0040    0.0011    0.0008    0.0031    0.0045    0.0006
     in Y         0.0000    0.0060    0.0000    0.0042    0.0005    0.0013
     in Z         0.0080    0.0012    0.0004    0.0002    0.0014    0.0266
  Raman Intsty    0.0036    0.0320    0.0086    0.0029    0.0081    0.0003

     1 x       0.001412 -0.041131  0.028018 -0.010664 -0.217529  0.093396
     1 y       0.110187  0.053412  0.083190  0.116160 -0.171541 -0.108539
     1 z      -0.043914  0.044690 -0.118697 -0.130762  0.094974  0.234648
     2 x      -0.004436  0.018648  0.077245  0.024440 -0.007921 -0.060316
     2 y      -0.022455  0.070069  0.109702 -0.080561  0.277944  0.081940
     2 z      -0.091319 -0.031576  0.057828 -0.041821 -0.095655 -0.004820
     3 x       0.119955 -0.034314 -0.048296  0.119569  0.121353 -0.093671
     3 y      -0.055351 -0.300321 -0.233423 -0.186074 -0.147999  0.065973
     3 z      -0.029215  0.065642  0.005768  0.199903 -0.053437  0.134526
     4 x       0.246922  0.195944  0.188937 -0.299019  0.283373  0.125657
     4 y      -0.024966 -0.104667  0.152146  0.166327  0.012758 -0.028606
     4 z       0.385750 -0.139187  0.426418 -0.003704 -0.192609  0.060280
     5 x      -0.075981  0.243031 -0.080535  0.552548  0.136507  0.063903
     5 y       0.091953 -0.122859 -0.188405  0.223176  0.115383 -0.008203
     5 z       0.324549 -0.064737  0.066480  0.162906  0.208178 -0.107493
     6 x      -0.040373  0.052135 -0.177024 -0.305638 -0.147737 -0.139309
     6 y      -0.041331  0.047522  0.070046 -0.120303  0.261376  0.045026
     6 z      -0.331246 -0.317050  0.037948 -0.138381  0.257601 -0.338350
     7 x      -0.114838 -0.274234 -0.409782  0.228749 -0.047226  0.186916
     7 y      -0.029295 -0.153296 -0.081406 -0.180668 -0.114003  0.015540
     7 z       0.314124 -0.317078 -0.205812  0.020448  0.128736 -0.126989
     8 x      -0.076895 -0.038091  0.084984 -0.077789 -0.253568  0.251427
     8 y      -0.009692  0.064395  0.140698 -0.039469 -0.114498  0.285394
     8 z      -0.097108 -0.031000  0.034934 -0.058302 -0.091287  0.018141
     9 x       0.111630 -0.100618 -0.038902  0.002698  0.062984 -0.050609
     9 y      -0.162225  0.101019 -0.021120  0.001930 -0.072378 -0.453578
     9 z      -0.345842  0.168924  0.142995  0.056002 -0.302466 -0.032461
    10 x      -0.187826 -0.167487  0.313057  0.046822  0.105572 -0.185165
    10 y       0.075323  0.360907 -0.264651 -0.103443  0.062444 -0.004434
    10 z      -0.058807  0.136118 -0.203274 -0.185233  0.179055  0.241153
    11 x      -0.253360  0.147251  0.139255 -0.099632  0.219308 -0.074752
    11 y       0.157653  0.135798  0.050958  0.138237 -0.216865 -0.216468
    11 z       0.110260  0.381312 -0.167603 -0.019596 -0.027198 -0.209890
    12 x       0.251380  0.009750 -0.087874 -0.207638 -0.235166 -0.105865
    12 y      -0.096005 -0.118089  0.190032  0.093525  0.115349  0.318411
    12 z      -0.105718  0.088850 -0.066426  0.133303 -0.095521  0.061432


  Frequency     224.6888  231.3341  243.6745  253.0136  274.3590  324.0045
  IR Intensity    0.0428    0.0195    0.1126    0.0607    0.0373    0.0054
     in X         0.0341    0.0041    0.0517    0.0320    0.0177    0.0047
     in Y         0.0087    0.0030    0.0203    0.0185    0.0001    0.0000
     in Z         0.0000    0.0124    0.0405    0.0103    0.0196    0.0007
  Raman Intsty    0.0117    0.0000    0.0006    0.0043    0.1596    0.0027

     1 x      -0.022789  0.304667 -0.212981 -0.004967  0.072130  0.097112
     1 y      -0.135644  0.123290  0.280474  0.129964 -0.057995 -0.045827
     1 z      -0.005260  0.157132  0.190888 -0.040357 -0.176056 -0.202953
     2 x       0.186344 -0.116954 -0.263107  0.252528 -0.015450 -0.233995
     2 y      -0.030186  0.070243  0.085942  0.156947  0.177988  0.078846
     2 z       0.223242 -0.148010  0.294774  0.093225  0.007428  0.136753
     3 x       0.215294 -0.036580 -0.001526  0.133368 -0.327995  0.002618
     3 y      -0.109692 -0.095060 -0.055122  0.173750 -0.039480 -0.018649
     3 z      -0.208278  0.216115 -0.067676  0.113268 -0.152548  0.001490
     4 x      -0.159137  0.119398 -0.009887  0.118375  0.199310  0.003376
     4 y       0.019870 -0.070714 -0.261117  0.121943  0.021278 -0.161316
     4 z      -0.304086 -0.077889 -0.165645 -0.271275 -0.025829  0.004699
     5 x      -0.094723  0.145789  0.079628 -0.140476 -0.019696  0.014948
     5 y      -0.011886 -0.114663  0.073284 -0.253161  0.342465 -0.011746
     5 z       0.220530 -0.002801 -0.009921 -0.074377 -0.076657 -0.002046
     6 x      -0.081441  0.093553  0.134713 -0.322824 -0.117458  0.104948
     6 y      -0.088391  0.112578  0.092553  0.080322  0.181266  0.125937
     6 z      -0.215452  0.205998 -0.292173 -0.096401  0.052715 -0.024606
     7 x      -0.218245 -0.102877  0.062876 -0.026439  0.196441 -0.020995
     7 y      -0.021496 -0.024930 -0.084027  0.250919 -0.237273 -0.013604
     7 z       0.090972 -0.166488  0.010180 -0.096611  0.137547 -0.016933
     8 x       0.148932 -0.017388 -0.242286 -0.170812  0.128184  0.410468
     8 y      -0.056522 -0.425846  0.076685 -0.307536 -0.239469 -0.110598
     8 z       0.261126 -0.003924  0.272496  0.127468  0.169721  0.438860
     9 x       0.198748 -0.113521 -0.022277  0.186570 -0.228863  0.017570
     9 y       0.154738  0.195047 -0.004001 -0.366228 -0.237807  0.047310
     9 z       0.190514 -0.093766 -0.050408  0.051578  0.356247 -0.433686
    10 x      -0.024624 -0.187478  0.190631  0.006559  0.044717  0.048131
    10 y       0.096042 -0.150667 -0.324435 -0.065011  0.079969  0.082914
    10 z       0.072026  0.037858  0.018768 -0.103910 -0.142528 -0.202288
    11 x      -0.234979 -0.352707  0.137956 -0.077193 -0.066522 -0.044487
    11 y      -0.118415  0.060664  0.129588  0.160590  0.039128  0.067359
    11 z      -0.015644 -0.179639 -0.233055  0.045673  0.120539  0.132938
    12 x       0.014019  0.235135  0.237789 -0.027690  0.187197 -0.373962
    12 y       0.354382  0.301186 -0.069479 -0.170779 -0.045500 -0.043379
    12 z      -0.311550  0.012249 -0.048328  0.219881 -0.209029  0.180173


  Frequency     421.2196  476.4036  522.5209  576.0205  620.2223  636.9331
  IR Intensity    0.0289    0.0160    0.0079    0.0591    0.0807    0.0518
     in X         0.0216    0.0016    0.0001    0.0001    0.0586    0.0472
     in Y         0.0003    0.0018    0.0029    0.0013    0.0025    0.0046
     in Z         0.0069    0.0126    0.0049    0.0577    0.0195    0.0001
  Raman Intsty    2.0387    1.1499    0.7316    0.0324    0.5678    0.0151

     1 x      -0.245905 -0.153752 -0.092759 -0.146031  0.620305 -0.003301
     1 y      -0.211433 -0.030549  0.096963  0.011294  0.085034 -0.080829
     1 z      -0.251653 -0.032198  0.080287  0.003471  0.125409 -0.091910
     2 x      -0.151750  0.374395  0.026461 -0.150732 -0.001200  0.548614
     2 y       0.036325 -0.070511 -0.038834  0.013237  0.043447 -0.109907
     2 z       0.018860  0.102741 -0.177253 -0.166535  0.242285  0.170271
     3 x       0.024123 -0.361973 -0.014792  0.310364  0.000638  0.052064
     3 y       0.111900 -0.000020  0.025364 -0.051716 -0.017287 -0.040639
     3 z       0.426283  0.257773  0.104998 -0.386067 -0.059722 -0.122379
     4 x      -0.047914  0.162852  0.126383  0.179006  0.060114 -0.202490
     4 y      -0.102526  0.284678  0.178680  0.215868  0.072827 -0.264077
     4 z       0.030613 -0.122792 -0.052627 -0.051356 -0.053841  0.096454
     5 x       0.198811 -0.066603  0.122362  0.047483  0.046437  0.033524
     5 y      -0.255589  0.130310 -0.129443 -0.064936 -0.042121 -0.023152
     5 z       0.126872 -0.138452  0.115425  0.076147  0.053530  0.028349
     6 x       0.017316  0.012563  0.025384  0.058475  0.012163 -0.053760
     6 y       0.094733 -0.341002 -0.228660 -0.300038 -0.088370  0.344590
     6 z      -0.011300  0.003762  0.029291  0.048388 -0.020280 -0.023432
     7 x       0.073849 -0.009870  0.058124  0.030197  0.025093  0.036450
     7 y       0.312209 -0.194443  0.195908  0.155158  0.080891  0.100617
     7 z      -0.039156 -0.051371  0.025874  0.036582  0.021616  0.016695
     8 x      -0.064680 -0.101009  0.213395 -0.005648 -0.394003 -0.011192
     8 y       0.065596  0.083498 -0.062566  0.020720  0.188412 -0.005035
     8 z       0.071295  0.249335  0.175693  0.188284  0.062893 -0.050154
     9 x      -0.128556 -0.041264 -0.248972 -0.461723 -0.219687 -0.529828
     9 y      -0.037325  0.129866 -0.015743 -0.069835 -0.002541  0.010289
     9 z       0.015982 -0.382597 -0.014125  0.050913 -0.057970 -0.189301
    10 x       0.078245  0.020632 -0.001071  0.005865 -0.018346 -0.017187
    10 y       0.134577  0.011730 -0.106781  0.021115  0.066488 -0.043625
    10 z      -0.269280 -0.027501  0.305850 -0.092461 -0.220054  0.150825
    11 x       0.026781  0.009776  0.047146 -0.012507 -0.038433 -0.002724
    11 y      -0.234078 -0.085524  0.314089 -0.098929 -0.259756  0.122638
    11 z       0.113160  0.009607 -0.083059  0.017730  0.075484 -0.039717
    12 x       0.291263  0.181338 -0.246121  0.142645 -0.211846  0.035351
    12 y       0.097724  0.101337 -0.244977  0.153269 -0.148331  0.033471
    12 z      -0.268755  0.068776 -0.511893  0.380138 -0.228370  0.062736


  Frequency     663.0363  704.5765  743.7257  775.6071  812.2348  821.5775
  IR Intensity    0.0408    0.0299    0.0364    0.0038    0.0012    0.0022
     in X         0.0051    0.0015    0.0234    0.0000    0.0000    0.0000
     in Y         0.0023    0.0126    0.0019    0.0034    0.0004    0.0018
     in Z         0.0334    0.0159    0.0111    0.0005    0.0008    0.0004
  Raman Intsty    0.1275    0.2258    0.0270    0.0000    0.0198    0.0069

     1 x      -0.114242  0.249080  0.035129 -0.002754  0.034060  0.024168
     1 y      -0.004781 -0.485179 -0.140480 -0.003584  0.479345  0.104145
     1 z       0.035524 -0.432659 -0.059203 -0.004680 -0.548816 -0.112270
     2 x      -0.120777 -0.199137 -0.077551  0.016233 -0.091547  0.185845
     2 y       0.172736  0.073214  0.083384 -0.025657 -0.115389  0.704825
     2 z       0.631396  0.134053  0.048125  0.014008  0.086830 -0.142274
     3 x      -0.047122 -0.098923  0.601341 -0.104152  0.060224 -0.053277
     3 y      -0.018807 -0.030860  0.194681  0.684649  0.013719  0.008213
     3 z      -0.023571 -0.059801  0.360597 -0.195230  0.041967 -0.024489
     4 x       0.097136  0.063806 -0.001978  0.006137  0.059685 -0.238494
     4 y       0.127796  0.073485 -0.014016  0.010213  0.084218 -0.369933
     4 z      -0.069230 -0.035474  0.000077 -0.003743 -0.027593  0.125631
     5 x       0.039988  0.053197 -0.254775  0.267957 -0.021139  0.019369
     5 y      -0.032163 -0.052731  0.234210 -0.301519  0.017464 -0.019159
     5 z       0.026867  0.049803 -0.239654  0.263562 -0.019429  0.018218
     6 x       0.028063  0.020555  0.016632 -0.002233 -0.002016  0.029762
     6 y      -0.212961 -0.087410 -0.074898  0.015505  0.074301 -0.434484
     6 z      -0.009828  0.000780  0.003916  0.001548 -0.008209  0.037191
     7 x       0.025310  0.024063 -0.130145 -0.128711 -0.008965  0.003045
     7 y       0.059684  0.078546 -0.369129 -0.475654 -0.022106  0.003343
     7 z       0.004040  0.010984 -0.066333 -0.057316 -0.005363  0.003301
     8 x       0.268469 -0.264512 -0.037900  0.002022  0.030159 -0.009712
     8 y      -0.201301  0.131542  0.017915 -0.000960 -0.024964 -0.014013
     8 z      -0.559845  0.034897 -0.013833 -0.001483 -0.033653  0.013988
     9 x      -0.125279  0.095416 -0.244234 -0.042125 -0.017295  0.021709
     9 y       0.007714  0.000620 -0.045419 -0.015662 -0.003289 -0.015541
     9 z      -0.084024  0.011620  0.019333 -0.000299  0.002584  0.005499
    10 x       0.002963 -0.023725 -0.000557 -0.000278 -0.017695 -0.005373
    10 y       0.023576 -0.085634  0.002797 -0.001443 -0.157152 -0.031608
    10 z      -0.059855  0.332918  0.014347  0.002569  0.445447  0.089793
    11 x      -0.005167  0.014599  0.006575 -0.001301 -0.030470 -0.006755
    11 y       0.043491  0.391340  0.107858 -0.001503 -0.409044 -0.088218
    11 z      -0.007920 -0.095449 -0.022861  0.000295  0.139646  0.031987
    12 x       0.004728  0.074966 -0.019647  0.006580  0.004476 -0.000323
    12 y       0.006434  0.077929 -0.023270 -0.009987 -0.009481 -0.004171
    12 z      -0.006843  0.117011 -0.111492  0.016396  0.007082  0.006897




--------------------------------------------------------------------------------
  Vibrational properties (for cluster):  Temperature  =       0.000 K
--------------------------------------------------------------------------------
  Zero point energy            =        0.676473 eV
--------------------------------------------------------------------------------

  Phonon density of states : 

--------------------------------------------------------------------------------
 Frequency (cm-1) Density of States                                             
--------------------------------------------------------------------------------
    0.00000 |************************************************************  0.062
   12.83715 |                                                              0.000
   25.67430 |******************************                                0.031
   38.51145 |******************************                                0.031
   51.34860 |                                                              0.000
   64.18575 |******************************                                0.031
   77.02290 |                                                              0.000
   89.86005 |******************************                                0.031
  102.69720 |                                                              0.000
  115.53435 |******************************                                0.031
  128.37150 |******************************                                0.031
  141.20865 |                                                              0.000
  154.04580 |******************************                                0.031
  166.88295 |************************************************************  0.062
  179.72010 |******************************                                0.031
  192.55725 |******************************                                0.031
  205.39440 |******************************                                0.031
  218.23155 |******************************                                0.031
  231.06870 |************************************************************  0.062
  243.90585 |******************************                                0.031
  256.74300 |                                                              0.000
  269.58015 |******************************                                0.031
  282.41730 |                                                              0.000
  295.25445 |                                                              0.000
  308.09160 |                                                              0.000
  320.92875 |******************************                                0.031
  333.76590 |                                                              0.000
  346.60304 |                                                              0.000
  359.44019 |                                                              0.000
  372.27734 |                                                              0.000
  385.11449 |                                                              0.000
  397.95164 |                                                              0.000
  410.78879 |******************************                                0.031
  423.62594 |                                                              0.000
  436.46309 |                                                              0.000
  449.30024 |                                                              0.000
  462.13739 |                                                              0.000
  474.97454 |******************************                                0.031
  487.81169 |                                                              0.000
  500.64884 |                                                              0.000
  513.48599 |******************************                                0.031
  526.32314 |                                                              0.000
  539.16029 |                                                              0.000
  551.99744 |                                                              0.000
  564.83459 |******************************                                0.031
  577.67174 |                                                              0.000
  590.50889 |                                                              0.000
  603.34604 |                                                              0.000
  616.18319 |******************************                                0.031
  629.02034 |******************************                                0.031
  641.85749 |                                                              0.000
  654.69464 |******************************                                0.031
  667.53179 |                                                              0.000
  680.36894 |                                                              0.000
  693.20609 |******************************                                0.031
  706.04324 |                                                              0.000
  718.88039 |                                                              0.000
  731.71754 |******************************                                0.031
  744.55469 |                                                              0.000
  757.39184 |                                                              0.000
  770.22899 |******************************                                0.031
  783.06614 |                                                              0.000
  795.90329 |                                                              0.000
  808.74044 |************************************************************  0.062
--------------------------------------------------------------------------------



  Time to end of optimisation =       0.0332 seconds


  Peak dynamic memory used =       0.65 MB 


  Timing analysis for GULP :

--------------------------------------------------------------------------------
  Task / Subroutine                                          Time (Seconds)
--------------------------------------------------------------------------------
  Calculation of real space energy and derivatives                0.0020
  Calculation of phonons                                          0.0016
  Calculation and manipulation of Hessian matrix                  0.0014
--------------------------------------------------------------------------------
  Total CPU time                                                  0.0333
--------------------------------------------------------------------------------


  Job Finished at 14:38.52 25th May        2022                               

