********************************************************************************
*                       GENERAL UTILITY LATTICE PROGRAM                        *
*                                 Julian Gale                                  *
*                       Curtin Institute for Computation                       *
*                           Department of Chemistry                            *
*                    Curtin University, Western Australia                      *
********************************************************************************
* Version = 5.1.1 * Last modified =  24th November 2018                        *
********************************************************************************
*  optimise     - perform optimisation run                                     *
*  conp         - constant pressure calculation                                *
*  shell        - only shells and radii to be optimised                        *
*  phonon       - calculate phonons for final geometry                         *
*  eigenvectors - output phonon eigenvectors                                   *
********************************************************************************

  Job Started  at 14:40.24 25th May        2022                               

  Number of CPUs =     1

  Host name      = login03                                 


  Total number of configurations input =      1

********************************************************************************
*  Input for Configuration =   1                                               *
********************************************************************************

  Formula = Al3F9                                                       

  Number of irreducible atoms/shells =      21


  Total number atoms/shells =      21

  Dimensionality = 0               :  Cluster


  Charge on cluster =  -0.000000


  Initial cluster dipoles : x =      0.431454 e.Angs
                            y =      1.213811 e.Angs
                            z =      0.340338 e.Angs

  Temperature of configuration =  0.000     K 

  Symmetry number =      1

  Cartesian coordinates of cluster :

--------------------------------------------------------------------------------
   No.  Atomic       x           y          z         Charge      Occupancy
        Label      (Angs)      (Angs)     (Angs)        (e)         (Frac)  
--------------------------------------------------------------------------------
      1 Al    c      0.3136     -2.2091     -1.7957     3.00000    1.000000    
      2 Al    c      2.0851     -0.4602     -0.7748     3.00000    1.000000    
      3 Al    c     -0.3207      0.3990     -1.7849     3.00000    1.000000    
      4 F     c      3.7774     -0.1464      0.0426     0.59000    1.000000    
      5 F     c     -0.0939     -3.7509     -2.1632     0.59000    1.000000    
      6 F     c      1.8477     -2.0047     -2.3421     0.59000    1.000000    
      7 F     c      1.5950      0.7498     -2.4259     0.59000    1.000000    
      8 F     c     -1.5635      1.7449     -2.2018     0.59000    1.000000    
      9 F     c     -1.0002     -1.5296     -1.0771     0.59000    1.000000    
     10 F     c     -0.0628     -1.2932     -3.1086     0.59000    1.000000    
     11 F     c      0.4168      0.4526      0.1274     0.59000    1.000000    
     12 F     c      0.8861     -2.2472     -0.2580     0.59000    1.000000    
     13 F     s      3.7774 *   -0.1464 *    0.0426 *  -1.59000    1.000000    
     14 F     s     -0.0939 *   -3.7509 *   -2.1632 *  -1.59000    1.000000    
     15 F     s      1.8477 *   -2.0047 *   -2.3421 *  -1.59000    1.000000    
     16 F     s      1.5950 *    0.7498 *   -2.4259 *  -1.59000    1.000000    
     17 F     s     -1.5635 *    1.7449 *   -2.2018 *  -1.59000    1.000000    
     18 F     s     -1.0002 *   -1.5296 *   -1.0771 *  -1.59000    1.000000    
     19 F     s     -0.0628 *   -1.2932 *   -3.1086 *  -1.59000    1.000000    
     20 F     s      0.4168 *    0.4526 *    0.1274 *  -1.59000    1.000000    
     21 F     s      0.8861 *   -2.2472 *   -0.2580 *  -1.59000    1.000000    
--------------------------------------------------------------------------------


  Brillouin zone sampling points :

--------------------------------------------------------------------------------
  Point number          x          y          z            Weight
--------------------------------------------------------------------------------
        1           0.000000   0.000000   0.000000     1.00000000
--------------------------------------------------------------------------------


********************************************************************************
*  General input information                                                   *
********************************************************************************

  Species output for all configurations : 

--------------------------------------------------------------------------------
  Species    Type    Atomic    Atomic    Charge       Radii (Angs)     Library
                     Number     Mass       (e)     Cova   Ionic  VDW   Symbol
--------------------------------------------------------------------------------
    Al       Core       13      26.98   3.000000   1.350  0.000  2.050          
    F        Core        9      19.00   0.590000   0.710  0.000  1.300          
    F        Shell       9       0.00  -1.590000   0.710  0.000  1.300          
--------------------------------------------------------------------------------


  Accuracy factor for short range sums = 12.000

  Time limit = Infinity

  Maximum range for interatomic potentials =    100000.000000 Angstroms

  General interatomic potentials :

--------------------------------------------------------------------------------
Atom  Types   Potential      Parameter       Value         Units   Cutoffs(Ang)
  1     2                                                            Min /  Max 
--------------------------------------------------------------------------------
Al   c F    s Buckingham    Buckingham A     3760.0008    eV        0.000 10.000
                            Buckingham rho  0.22200000    Ang       
                            Buckingham C     0.0000000    eV*Ang^6  
--------------------------------------------------------------------------------
F    s F    s Buck 4 range  Buck4 A          1127.7000    eV        0.000 12.000
                            Buck4 rho       0.27530000    Ang       
                            Buck4 C          15.830000    eV*Ang^6  
                            Buck4 minimum    2.7900000    Ang       
--------------------------------------------------------------------------------
F    c F    s Spring (c-s)  Spring k 2       20.770000    eV*Ang^-2 0.000  0.800
                            Spring k 4       0.0000000    eV*Ang^-4 
--------------------------------------------------------------------------------

********************************************************************************
*  Output for configuration   1                                                *
********************************************************************************


  Components of energy : 

--------------------------------------------------------------------------------
  Interatomic potentials     =          16.18472865 eV    
  Monopole - monopole (real) =        -177.62014064 eV    
--------------------------------------------------------------------------------
  Total lattice energy       =        -161.43541198 eV    
--------------------------------------------------------------------------------
  Total lattice energy       =          -15576.0495 kJ/mol
--------------------------------------------------------------------------------


  Number of variables =       27

  Maximum number of calculations  =          2000
  Maximum Hessian update interval =            10
  Maximum step size               =   1.000000000
  Maximum parameter tolerance     =   0.000001000
  Maximum function  tolerance     =   0.000010000
  Maximum gradient  tolerance     =   0.000000010
  Maximum gradient  component     =   0.010000000

  Symmetry not applied to optimisation

  Newton-Raphson optimiser to be used

  BFGS hessian update to be used

  Lower half triangular hessian to be used

  Minimiser to switch to RFO
  When gradient norm is less than     0.010000

  Shell only optimisation

  Start of cluster optimisation :

  Cycle:      0 Energy:      -161.435412  Gnorm:      1.444902  CPU:    0.004
  ** Hessian calculated **
  Cycle:      1 Energy:      -178.987355  Gnorm:      0.628118  CPU:    0.005
  ** Hessian calculated **
  Cycle:      2 Energy:      -180.726148  Gnorm:      0.062386  CPU:    0.007
  Cycle:      3 Energy:      -180.749677  Gnorm:      0.012790  CPU:    0.009
  Cycle:      4 Energy:      -180.750780  Gnorm:      0.001390  CPU:    0.010
  ** Hessian has required structure
  Cycle:      5 Energy:      -180.750791  Gnorm:      0.000320  CPU:    0.012
  ** Hessian has required structure
  Cycle:      6 Energy:      -180.750791  Gnorm:      0.000255  CPU:    0.013
  ** Hessian has required structure
  Cycle:      7 Energy:      -180.750792  Gnorm:      0.000153  CPU:    0.014
  ** Hessian has required structure
  Cycle:      8 Energy:      -180.750792  Gnorm:      0.000056  CPU:    0.016
  ** Hessian has required structure
  Cycle:      9 Energy:      -180.750792  Gnorm:      0.000018  CPU:    0.017
  ** Hessian has required structure
  Cycle:     10 Energy:      -180.750792  Gnorm:      0.000008  CPU:    0.018
  ** Hessian has required structure
  Cycle:     11 Energy:      -180.750792  Gnorm:      0.000003  CPU:    0.020
  ** Hessian has required structure
  Cycle:     12 Energy:      -180.750792  Gnorm:      0.000000  CPU:    0.022
  ** Hessian has required structure

  XYZ File written as 006/4/sp_mod_-80/sp_mod_-80_eig.xyz



  **** Optimisation achieved ****


  Final energy =    -180.75079204 eV
  Final Gnorm  =       0.00000000

  Components of energy : 

--------------------------------------------------------------------------------
  Interatomic potentials     =          40.71665110 eV    
  Monopole - monopole (real) =        -221.46744315 eV    
--------------------------------------------------------------------------------
  Total lattice energy       =        -180.75079204 eV    
--------------------------------------------------------------------------------
  Total lattice energy       =          -17439.6884 kJ/mol
--------------------------------------------------------------------------------

  Final cartesian coordinates of atoms :

--------------------------------------------------------------------------------
   No.  Atomic        x           y          z          Radius
        Label       (Angs)      (Angs)     (Angs)       (Angs) 
--------------------------------------------------------------------------------
     1  Al    c     0.313642   -2.209069   -1.795710    0.000000
     2  Al    c     2.085060   -0.460192   -0.774815    0.000000
     3  Al    c    -0.320720    0.398963   -1.784916    0.000000
     4  F     c     3.777360   -0.146363    0.042573    0.000000
     5  F     c    -0.093922   -3.750927   -2.163199    0.000000
     6  F     c     1.847703   -2.004706   -2.342051    0.000000
     7  F     c     1.594965    0.749785   -2.425944    0.000000
     8  F     c    -1.563549    1.744894   -2.201757    0.000000
     9  F     c    -1.000177   -1.529611   -1.077051    0.000000
    10  F     c    -0.062762   -1.293193   -3.108623    0.000000
    11  F     c     0.416781    0.452642    0.127427    0.000000
    12  F     c     0.886090   -2.247228   -0.258035    0.000000
    13  F     s     3.456756   -0.199919   -0.111594    0.000000
    14  F     s    -0.060322   -3.621235   -2.132602    0.000000
    15  F     s     1.836029   -1.820254   -2.147259    0.000000
    16  F     s     1.426654    0.577114   -2.129466    0.000000
    17  F     s    -1.335568    1.506075   -2.124353    0.000000
    18  F     s    -0.883535   -1.325355   -1.160440    0.000000
    19  F     s    -0.067250   -1.119486   -2.929500    0.000000
    20  F     s     0.545112    0.354786   -0.218981    0.000000
    21  F     s     1.008889   -2.028862   -0.354674    0.000000
--------------------------------------------------------------------------------


  Final Cartesian derivatives :

--------------------------------------------------------------------------------
   No.  Atomic          x             y             z           Radius
        Label       (eV/Angs)     (eV/Angs)    (eV/Angs)      (eV/Angs)
--------------------------------------------------------------------------------
      1 Al    c       0.000000      0.000000      0.000000      0.000000
      2 Al    c       0.000000      0.000000      0.000000      0.000000
      3 Al    c       0.000000      0.000000      0.000000      0.000000
      4 F     c       0.000000      0.000000      0.000000      0.000000
      5 F     c       0.000000      0.000000      0.000000      0.000000
      6 F     c       0.000000      0.000000      0.000000      0.000000
      7 F     c       0.000000      0.000000      0.000000      0.000000
      8 F     c       0.000000      0.000000      0.000000      0.000000
      9 F     c       0.000000      0.000000      0.000000      0.000000
     10 F     c       0.000000      0.000000      0.000000      0.000000
     11 F     c       0.000000      0.000000      0.000000      0.000000
     12 F     c       0.000000      0.000000      0.000000      0.000000
     13 F     s       0.000000      0.000000     -0.000000      0.000000
     14 F     s      -0.000000     -0.000000      0.000000      0.000000
     15 F     s      -0.000000     -0.000000     -0.000000      0.000000
     16 F     s      -0.000000     -0.000000     -0.000000      0.000000
     17 F     s       0.000000      0.000000     -0.000000      0.000000
     18 F     s      -0.000000     -0.000000     -0.000000      0.000000
     19 F     s       0.000000      0.000000     -0.000000      0.000000
     20 F     s       0.000000      0.000000      0.000000      0.000000
     21 F     s       0.000000      0.000000      0.000000      0.000000
--------------------------------------------------------------------------------
  Maximum abs         0.000000      0.000000      0.000000      0.000000
--------------------------------------------------------------------------------


  Born effective charge tensors : 

-------------------------------------------------------------------------------
  Atom             x           y             z
-------------------------------------------------------------------------------
    1 Al    x       0.2445     -0.0979     -0.0529
            y      -0.0982     -0.0361     -0.0884
            z      -0.0529     -0.0883      0.2997
-------------------------------------------------------------------------------
    2 Al    x       1.4122     -0.0008     -0.1535
            y       0.1411      1.9773      0.0922
            z      -0.1370      0.0267      1.6845
-------------------------------------------------------------------------------
    3 Al    x       1.2888      0.3302     -0.0982
            y       0.1898      1.7074      0.1018
            z      -0.1146      0.1666      1.5515
-------------------------------------------------------------------------------
    4 F     x      -0.1096      0.0943      0.2064
            y       0.0807     -0.5173      0.0391
            z       0.2048      0.0453     -0.4333
-------------------------------------------------------------------------------
    5 F     x      -0.4689      0.1571      0.0142
            y       0.1532      0.0638      0.1317
            z       0.0138      0.1334     -0.4382
-------------------------------------------------------------------------------
    6 F     x      -0.0988      0.1186     -0.0067
            y       0.0083     -0.5318     -0.1305
            z      -0.1073     -0.2329     -0.4743
-------------------------------------------------------------------------------
    7 F     x      -0.5037      0.0224     -0.0400
            y       0.0305     -0.4774      0.0747
            z      -0.0621      0.0632     -0.4448
-------------------------------------------------------------------------------
    8 F     x      -0.2987     -0.2763      0.0754
            y      -0.2595     -0.2363     -0.0854
            z       0.0774     -0.0931     -0.5069
-------------------------------------------------------------------------------
    9 F     x      -0.2561     -0.2738     -0.0541
            y      -0.1557     -0.4922      0.0587
            z      -0.0308      0.1827     -0.3131
-------------------------------------------------------------------------------
   10 F     x      -0.3232     -0.0351      0.0415
            y      -0.0495     -0.4009     -0.1840
            z       0.0302     -0.3558     -0.3372
-------------------------------------------------------------------------------
   11 F     x      -0.5325      0.0650     -0.0331
            y       0.0746     -0.4537     -0.0350
            z      -0.0090     -0.0317     -0.4398
-------------------------------------------------------------------------------
   12 F     x      -0.3540     -0.1037      0.1010
            y      -0.1154     -0.6028      0.0251
            z       0.1875      0.1838     -0.1480
-------------------------------------------------------------------------------




  Moment of inertia tensor (10^-46 x kgm^2): 

-------------------------------------------------------------------------------
                x           y           z           Principal axis system
-------------------------------------------------------------------------------
       x        131.61        2.31      -23.22          119.465142
       y          2.31      120.33       -6.17          121.043970
       z        -23.22       -6.17      171.07          182.504073
-------------------------------------------------------------------------------
  Centre of mass (Ang) =     0.660122    -0.848306    -1.477480
-------------------------------------------------------------------------------


  Vibrational Frequency Calculation : 

--------------------------------------------------------------------------------

  Frequencies (cm-1) and Eigenvectors : 

  Frequency    -355.7201 -294.3312 -152.2544 -143.5762  -97.3950    0.0000
  IR Intensity    0.0046    0.0259    0.0014    0.0000    0.0057    0.0000
     in X         0.0008    0.0045    0.0010    0.0000    0.0010    0.0000
     in Y         0.0001    0.0003    0.0002    0.0000    0.0001    0.0000
     in Z         0.0038    0.0211    0.0003    0.0000    0.0047    0.0000
  Raman Intsty    0.0000    0.0000    0.0085    0.0000    0.0000    0.0000

     1 x      -0.035372  0.113761 -0.066869 -0.001689  0.158864  0.122767
     1 y      -0.008921  0.028691  0.019236 -0.000426  0.040066 -0.270313
     1 z       0.076657 -0.246543 -0.028617  0.003661 -0.344291 -0.137651
     2 x       0.061868 -0.080663  0.053940  0.032183 -0.089113  0.122767
     2 y       0.015603 -0.020344  0.003632  0.008117 -0.022474 -0.270313
     2 z      -0.134081  0.174813  0.025312 -0.069749  0.193126 -0.137651
     3 x      -0.000239 -0.090312  0.064509 -0.028213 -0.107979  0.122767
     3 y      -0.000060 -0.022776 -0.011062 -0.007115 -0.027233 -0.270313
     3 z       0.000518  0.195725  0.028479  0.061142  0.234013 -0.137651
     4 x       0.007378 -0.007348  0.053914  0.040042 -0.071479  0.103024
     4 y       0.001861 -0.001853 -0.057937  0.010099 -0.018027 -0.226842
     4 z      -0.015991  0.015924  0.018135 -0.086779  0.154910 -0.115515
     5 x       0.046358 -0.171812 -0.697884 -0.005627  0.261260  0.103024
     5 y       0.011692 -0.043332  0.250048 -0.001421  0.065891 -0.226842
     5 z      -0.100467  0.372353 -0.292920  0.012202 -0.566205 -0.115515
     6 x       0.025156  0.112569 -0.015333 -0.162846  0.206366  0.103024
     6 y       0.390612 -0.156478 -0.274825  0.308161  0.072039 -0.226842
     6 z       0.415116 -0.100086 -0.029604 -0.312733  0.020858 -0.115515
     7 x      -0.120885 -0.136035  0.139999 -0.141259 -0.093197  0.103024
     7 y       0.114650 -0.169062 -0.054567  0.056265 -0.044401 -0.226842
     7 z      -0.092687  0.030909  0.060496 -0.082311  0.193441 -0.115515
     8 x      -0.004631 -0.007710  0.090049 -0.044191 -0.077852  0.103024
     8 y      -0.001168 -0.001944  0.034805 -0.011145 -0.019635 -0.226842
     8 z       0.010035  0.016709  0.045601  0.095770  0.168722 -0.115515
     9 x       0.069583  0.276958  0.110469  0.255271  0.153331  0.103024
     9 y       0.307463  0.376356  0.206103  0.041023 -0.148316 -0.226842
     9 z      -0.133071 -0.146899  0.092742  0.410313 -0.017162 -0.115515
    10 x       0.081628 -0.037309  0.123847 -0.471791 -0.100168  0.103024
    10 y      -0.269328 -0.315917  0.209477 -0.095631  0.161724 -0.226842
    10 z      -0.194635 -0.372470  0.063741  0.058927 -0.098052 -0.115515
    11 x       0.158696  0.050742  0.141692  0.159075 -0.088603  0.103024
    11 y      -0.105114  0.147551 -0.054141 -0.051771 -0.001450 -0.226842
    11 z       0.010744  0.153937  0.056832  0.043698  0.200559 -0.115515
    12 x      -0.294572 -0.011878 -0.008218  0.368607 -0.144102  0.103024
    12 y      -0.458560  0.181873 -0.273033 -0.256266 -0.056336 -0.226842
    12 z       0.168766 -0.118134 -0.045021 -0.133193 -0.155796 -0.115515


  Frequency       0.0000    0.0000   43.6336   99.7016  116.9663  155.3557
  IR Intensity    0.0000    0.0000    0.0034    0.0009    0.0146    0.0025
     in X         0.0000    0.0000    0.0028    0.0001    0.0025    0.0007
     in Y         0.0000    0.0000    0.0000    0.0000    0.0002    0.0016
     in Z         0.0000    0.0000    0.0006    0.0007    0.0119    0.0003
  Raman Intsty    0.0000    0.0000    0.0101    0.0000    0.0000    0.0958

     1 x       0.031413 -0.301713 -0.313968 -0.007014  0.109719  0.009048
     1 y       0.159028 -0.093433  0.124738 -0.001769  0.027672 -0.084812
     1 z      -0.284275 -0.085608 -0.130355  0.015200 -0.237783 -0.005694
     2 x       0.031413 -0.301713 -0.010413 -0.176776 -0.023292 -0.027764
     2 y       0.159028 -0.093433 -0.393521 -0.044584 -0.005875  0.047820
     2 z      -0.284275 -0.085608 -0.050601  0.383111  0.050479 -0.007246
     3 x       0.031413 -0.301713  0.152392  0.167040  0.009430 -0.014387
     3 y       0.159028 -0.093433  0.315527  0.042128  0.002378 -0.070725
     3 z      -0.284275 -0.085608  0.107037 -0.362012 -0.020436 -0.014868
     4 x       0.026361 -0.253192 -0.002134 -0.233363 -0.065759 -0.106767
     4 y       0.133453 -0.078407 -0.365485 -0.058856 -0.016585  0.456143
     4 z      -0.238558 -0.071841 -0.043517  0.505747  0.142514  0.003819
     5 x       0.026361 -0.253192  0.292002  0.024954 -0.205338 -0.028034
     5 y       0.133453 -0.078407 -0.097860  0.006293 -0.051787 -0.065133
     5 z      -0.238558 -0.071841  0.123348 -0.054077  0.445012 -0.020516
     6 x       0.026361 -0.253192 -0.167447 -0.042578  0.068227 -0.003964
     6 y       0.133453 -0.078407 -0.131175  0.091399  0.324514 -0.094098
     6 z      -0.238558 -0.071841 -0.008470 -0.018207 -0.126209 -0.022909
     7 x       0.026361 -0.253192  0.080288  0.081869  0.019842 -0.028945
     7 y       0.133453 -0.078407 -0.030186 -0.015241  0.245595 -0.138936
     7 z      -0.238558 -0.071841  0.027685  0.002150  0.142793 -0.063200
     8 x       0.026361 -0.253192  0.151612  0.215625 -0.045500  0.506895
     8 y       0.133453 -0.078407  0.291782  0.054381 -0.011475  0.511675
     8 z      -0.238558 -0.071841  0.103913 -0.467305  0.098608  0.293437
     9 x       0.026361 -0.253192 -0.087921  0.087284 -0.071279 -0.096576
     9 y       0.133453 -0.078407  0.204963  0.078552 -0.233725 -0.144837
     9 z      -0.238558 -0.071841  0.056081  0.075528 -0.238641 -0.115530
    10 x       0.026361 -0.253192 -0.033144 -0.106932  0.205630 -0.137293
    10 y       0.133453 -0.078407  0.218778 -0.083507  0.267609 -0.155107
    10 z      -0.238558 -0.071841 -0.062631 -0.032947 -0.052527 -0.027287
    11 x       0.026361 -0.253192  0.075887 -0.056396 -0.098892 -0.054286
    11 y       0.133453 -0.078407 -0.031296  0.021666 -0.265532 -0.145326
    11 z      -0.238558 -0.071841  0.037223 -0.057354  0.028525 -0.008284
    12 x       0.026361 -0.253192 -0.104196  0.049498  0.078843 -0.011584
    12 y       0.133453 -0.078407 -0.115223 -0.089654 -0.287423 -0.096021
    12 z      -0.238558 -0.071841 -0.145547  0.003209 -0.192523 -0.006391


  Frequency     164.7743  164.9143  186.5457  210.0994  214.9990  231.5224
  IR Intensity    0.0028    0.0008    0.0447    0.0138    0.0271    0.0343
     in X         0.0019    0.0001    0.0078    0.0024    0.0046    0.0231
     in Y         0.0005    0.0000    0.0005    0.0002    0.0201    0.0075
     in Z         0.0003    0.0006    0.0365    0.0113    0.0023    0.0036
  Raman Intsty    0.0242    0.0000    0.0000    0.0000    0.0811    0.0075

     1 x       0.137557  0.057717 -0.094741  0.006144  0.088521  0.117786
     1 y      -0.030017  0.014550 -0.023893  0.001549  0.356156  0.002668
     1 z       0.059993 -0.125053  0.205323 -0.013316  0.082292  0.054660
     2 x       0.032632  0.024133 -0.000496  0.253916  0.168507 -0.192494
     2 y       0.017972  0.006087 -0.000126  0.064037 -0.039333  0.221334
     2 z       0.017154 -0.052293  0.001076 -0.550289  0.073175 -0.063065
     3 x      -0.001673 -0.092997 -0.114096 -0.176990 -0.081996 -0.286334
     3 y      -0.049183 -0.023459 -0.028774 -0.044637  0.109664 -0.019661
     3 z      -0.006518  0.201543  0.247270  0.383578 -0.025073 -0.134408
     4 x       0.158868  0.161179  0.047241 -0.249426  0.166035 -0.091973
     4 y      -0.634486  0.040588  0.011915 -0.062905 -0.032170 -0.320055
     4 z      -0.000491 -0.349276 -0.102381  0.540556  0.072870 -0.079684
     5 x      -0.251426 -0.078335  0.103070 -0.018948  0.053953  0.112458
     5 y       0.110736 -0.019741  0.025995 -0.004778  0.336913  0.001785
     5 z      -0.103146  0.169710 -0.223375  0.041060  0.064103  0.052098
     6 x       0.018097  0.136669 -0.229547  0.014482  0.203247  0.190844
     6 y       0.324233  0.040358  0.065474  0.001664 -0.201366 -0.242488
     6 z      -0.057480  0.193359 -0.256358 -0.034277  0.182287  0.157753
     7 x      -0.032512 -0.012137 -0.066708  0.052529 -0.031445 -0.261199
     7 y       0.047389 -0.024345  0.076485 -0.118824 -0.182778  0.086382
     7 z       0.000572  0.162811  0.331124 -0.093726 -0.034761 -0.104274
     8 x       0.233837  0.274452  0.124938  0.073264 -0.173972 -0.003022
     8 y       0.215867  0.069232  0.031509  0.018477  0.004948  0.304216
     8 z       0.133085 -0.594735 -0.270770 -0.158780 -0.079699  0.034008
     9 x      -0.085554  0.086391 -0.165065 -0.015882 -0.296739  0.204653
     9 y      -0.163255 -0.171995  0.197637 -0.030715 -0.024218  0.023203
     9 z      -0.154027  0.180132 -0.213821  0.006646 -0.258963  0.184625
    10 x      -0.157414 -0.207026  0.285950  0.002679 -0.386449  0.270488
    10 y      -0.181414  0.141544 -0.167150  0.027383 -0.046842  0.039806
    10 z       0.001776  0.081247 -0.048163  0.021971 -0.064544  0.041949
    11 x      -0.024922 -0.116721 -0.198910  0.025828 -0.030677 -0.256536
    11 y       0.049299 -0.008144 -0.143475  0.138587 -0.182583  0.087558
    11 z      -0.015852  0.116438  0.244526 -0.076091 -0.036423 -0.114379
    12 x      -0.059785 -0.231189  0.348481  0.016484  0.287473  0.264518
    12 y       0.304591 -0.064137 -0.035479  0.006148 -0.180123 -0.223907
    12 z       0.111398  0.011480 -0.001392 -0.032832 -0.000252 -0.001914


  Frequency     254.2024  263.4119  274.6754  291.6601  333.7291  341.2367
  IR Intensity    0.0303    0.0016    0.0099    0.0005    0.0004    0.0127
     in X         0.0075    0.0003    0.0017    0.0004    0.0003    0.0032
     in Y         0.0223    0.0000    0.0001    0.0000    0.0000    0.0082
     in Z         0.0005    0.0013    0.0081    0.0001    0.0001    0.0013
  Raman Intsty    0.1834    0.0000    0.0000    0.5490    0.0104    2.1505

     1 x      -0.032008  0.004517  0.011706  0.045403  0.317929 -0.044907
     1 y       0.026742  0.001139  0.002952  0.162094 -0.105657 -0.199689
     1 z      -0.011657 -0.009789 -0.025368  0.039813  0.134404 -0.043959
     2 x       0.044146  0.001721  0.093134  0.018210 -0.109143 -0.146972
     2 y       0.537343  0.000430  0.023490  0.009661 -0.195870  0.116698
     2 z       0.082900 -0.003731 -0.201839  0.009526 -0.073155 -0.054236
     3 x      -0.154301 -0.007779  0.028567 -0.074319  0.002647  0.098362
     3 y      -0.328404 -0.001960  0.007204 -0.075956  0.254115 -0.072048
     3 z      -0.109413  0.016860 -0.061912 -0.043132  0.030793  0.037002
     4 x       0.195322 -0.054196 -0.026168  0.026895 -0.206394 -0.159635
     4 y      -0.160783 -0.013667 -0.006600 -0.008966  0.011225 -0.065380
     4 z       0.071418  0.117452  0.056713  0.011367 -0.093929 -0.081268
     5 x       0.244271  0.014769  0.007746  0.070500  0.028208 -0.041604
     5 y      -0.076002  0.003726  0.001953  0.168147  0.000972 -0.229200
     5 z       0.103867 -0.032012 -0.016785  0.052098  0.013129 -0.045870
     6 x      -0.136893  0.053364  0.059542 -0.031631  0.147861  0.060425
     6 y      -0.163737 -0.250641 -0.169581  0.221232 -0.061492  0.108967
     6 z      -0.257527 -0.008460  0.045143 -0.154409 -0.375749  0.360840
     7 x       0.123384 -0.452401  0.340456 -0.052124  0.032585  0.076512
     7 y       0.008505  0.425534  0.389770 -0.496578 -0.004011 -0.095783
     7 z       0.092196 -0.154049  0.265210 -0.243606  0.010413 -0.169147
     8 x       0.103294  0.065940 -0.047949 -0.000645 -0.184098  0.103392
     8 y      -0.058561  0.016631 -0.012093  0.006955  0.136584 -0.135611
     8 z       0.040845 -0.142906  0.103916  0.000512 -0.069052  0.031926
     9 x      -0.068043 -0.027225  0.201658  0.116763  0.199429  0.060625
     9 y       0.189013 -0.044711  0.177923  0.154116  0.101254  0.317721
     9 z      -0.147971  0.013771  0.136657  0.199780 -0.318292 -0.309003
    10 x      -0.172308  0.003498 -0.218892  0.213053 -0.118178 -0.220754
    10 y       0.162717  0.038725 -0.182269  0.178400  0.021154  0.246757
    10 z       0.077998  0.037655 -0.099310 -0.008900  0.370028  0.300805
    11 x       0.149181  0.448503 -0.387677 -0.173847  0.029459 -0.068940
    11 y       0.015007 -0.426518 -0.401679 -0.527277 -0.004799 -0.132467
    11 z       0.036310  0.162495 -0.162872  0.020190  0.017190  0.146079
    12 x      -0.268802 -0.050414 -0.087687 -0.156206 -0.180824  0.301419
    12 y      -0.197003  0.251386  0.162480  0.189814 -0.144388  0.169746
    12 z       0.028349  0.002074  0.015852  0.115571  0.336580 -0.161443


  Frequency     382.4479  393.3291  399.1533  495.0251  516.2871  535.8347
  IR Intensity    0.1081    0.1007    0.0148    0.1818    0.1494    0.0001
     in X         0.0284    0.0242    0.0067    0.0316    0.0134    0.0000
     in Y         0.0680    0.0749    0.0059    0.0020    0.1271    0.0000
     in Z         0.0117    0.0016    0.0022    0.1482    0.0090    0.0001
  Raman Intsty    6.3957    0.5019    0.0314    0.0000    1.1119    0.0000

     1 x       0.052548 -0.011688 -0.046220 -0.005330  0.004553 -0.003288
     1 y       0.188554 -0.009819 -0.175591 -0.001344  0.001651 -0.000829
     1 z       0.046189 -0.006536 -0.041761  0.011551  0.002293  0.007126
     2 x      -0.196268 -0.212873  0.159148  0.172809  0.087277  0.004409
     2 y      -0.233478  0.325032 -0.099567  0.043579 -0.386548  0.001112
     2 z      -0.117734 -0.060400  0.061847 -0.374512 -0.004709 -0.009554
     3 x      -0.149062 -0.071483 -0.314544  0.228056 -0.348975 -0.014197
     3 y      -0.368722  0.198326  0.006781  0.057515 -0.350269 -0.003581
     3 z      -0.111690 -0.009905 -0.144349 -0.494251 -0.201782  0.030767
     4 x      -0.407611 -0.243185  0.252863 -0.029318  0.126544 -0.001276
     4 y      -0.013135 -0.105169  0.081864 -0.007394  0.079170 -0.000322
     4 z      -0.189609 -0.124450  0.126204  0.063541  0.067603  0.002765
     5 x       0.079867 -0.001893 -0.059047 -0.018988  0.007335 -0.000487
     5 y       0.251253 -0.021643 -0.247028 -0.004789  0.008384 -0.000122
     5 z       0.066091 -0.003392 -0.055993  0.041152  0.004360  0.001056
     6 x       0.104520 -0.007366 -0.042429  0.026476  0.050439 -0.456686
     6 y       0.082749  0.016679  0.114505 -0.026474  0.039633 -0.092716
     6 z       0.034855  0.073186  0.130268  0.016978 -0.000901  0.147724
     7 x       0.051112  0.463252 -0.066111 -0.300183  0.293457 -0.000021
     7 y      -0.024564 -0.144419 -0.173245 -0.195273  0.225638  0.006374
     7 z       0.368475  0.028055  0.372507  0.353800 -0.302456 -0.011324
     8 x       0.198554 -0.245420 -0.274384 -0.030046 -0.109665  0.002583
     8 y      -0.123519  0.205429  0.346755 -0.007576  0.197159  0.000652
     8 z       0.077244 -0.089336 -0.086254  0.065115 -0.027659 -0.005598
     9 x      -0.061809 -0.051461  0.098601  0.044319 -0.028011  0.390932
     9 y       0.094349 -0.221886  0.084886 -0.025155  0.074481 -0.238869
     9 z       0.043699  0.090436 -0.051531  0.016912  0.024086 -0.224214
    10 x      -0.015729  0.053884  0.018159 -0.043860 -0.006683 -0.107408
    10 y       0.105970 -0.195317  0.064599  0.025272  0.079858  0.310375
    10 z      -0.056166 -0.137869  0.122803 -0.017908 -0.022134 -0.390243
    11 x       0.312776  0.336167  0.252305 -0.087359 -0.055771  0.009093
    11 y       0.041429 -0.176471 -0.092939  0.097537  0.137561 -0.004086
    11 z      -0.198605  0.303474 -0.317569  0.486085  0.454389 -0.008336
    12 x       0.087211  0.048800  0.060295 -0.032377  0.028778  0.178851
    12 y       0.078384  0.030845  0.140412  0.024986  0.034169  0.022646
    12 z       0.072366 -0.048537 -0.092358 -0.004189  0.046042  0.454400


  Frequency     580.5292  747.5412  800.1760  801.1294  836.8267  897.9227
  IR Intensity    0.0009    0.0568    0.0088    0.0069    0.0002    0.0156
     in X         0.0001    0.0450    0.0015    0.0001    0.0002    0.0015
     in Y         0.0007    0.0035    0.0001    0.0066    0.0000    0.0132
     in Z         0.0001    0.0083    0.0071    0.0002    0.0000    0.0010
  Raman Intsty    1.5317    0.0204    0.0000    0.6854    0.0006    2.1293

     1 x       0.010966 -0.169870  0.301579 -0.036703 -0.657064 -0.144381
     1 y       0.060991  0.040880  0.076066 -0.344601  0.192203 -0.653129
     1 z       0.012157 -0.073624 -0.653575 -0.057057 -0.280820 -0.142627
     2 x       0.012761 -0.501775  0.017049 -0.399109  0.152540  0.283772
     2 y      -0.058163 -0.060625  0.004297  0.005495  0.075760  0.043598
     2 z      -0.000880 -0.238585 -0.036925 -0.183520  0.079202  0.136013
     3 x      -0.048722 -0.294647  0.018002  0.417059  0.104480 -0.245945
     3 y      -0.052213  0.299644  0.004551 -0.308002 -0.171403  0.255683
     3 z      -0.028557 -0.101087 -0.039040  0.156597  0.028263 -0.083730
     4 x      -0.005778  0.430318 -0.001344  0.256487 -0.092850 -0.129184
     4 y       0.006187  0.076849 -0.000339  0.044827 -0.018279 -0.022655
     4 z      -0.001946  0.207502  0.002899  0.123566 -0.044970 -0.062245
     5 x       0.115772  0.005206  0.003031  0.093247  0.009426  0.113611
     5 y       0.437873  0.030735  0.000756  0.350910  0.038265  0.428608
     5 z       0.104376  0.005979 -0.006576  0.083862  0.008803  0.102301
     6 x      -0.406547  0.124273 -0.332860  0.050799  0.283187  0.085151
     6 y      -0.048518  0.019710 -0.038691  0.002819  0.055088  0.018665
     6 z       0.164764 -0.028913  0.114759 -0.002873 -0.098054 -0.022000
     7 x       0.020443  0.076200 -0.003055 -0.037168 -0.014376  0.012288
     7 y       0.016049 -0.023530  0.004397 -0.006650  0.003983 -0.000776
     7 z      -0.016760  0.031053  0.008241  0.029429 -0.004073 -0.009034
     8 x       0.007600  0.261633 -0.001410 -0.246908 -0.078097  0.115249
     8 y       0.002618 -0.280772 -0.000364  0.262112  0.085593 -0.122811
     8 z       0.003812  0.088049  0.003072 -0.083426 -0.026075  0.038887
     9 x       0.348915  0.089020 -0.269859 -0.085611  0.219953 -0.084274
     9 y      -0.159752 -0.060634  0.132601  0.052467 -0.126605  0.051247
     9 z      -0.205381 -0.041749  0.142401  0.030244 -0.131133  0.046439
    10 x       0.087222  0.032008  0.080627 -0.037720  0.056001 -0.024558
    10 y      -0.225752 -0.075012 -0.180328  0.064535 -0.167956  0.066307
    10 z       0.361763  0.081808  0.267709 -0.073524  0.224187 -0.082976
    11 x      -0.000672  0.075169 -0.003821 -0.001537 -0.012798  0.001292
    11 y       0.010724 -0.023790 -0.006131  0.002336  0.004381 -0.003549
    11 z       0.028998  0.033285  0.006664 -0.047790 -0.007492  0.014796
    12 x      -0.137170  0.057644  0.127552  0.030759  0.106261  0.037399
    12 y       0.019420  0.002906 -0.013088 -0.002238  0.010466  0.006621
    12 z      -0.419035  0.115485  0.330180  0.040587  0.285385  0.081490




--------------------------------------------------------------------------------
  Vibrational properties (for cluster):  Temperature  =       0.000 K
--------------------------------------------------------------------------------
  Zero point energy            =        0.665405 eV
--------------------------------------------------------------------------------

  Phonon density of states : 

--------------------------------------------------------------------------------
 Frequency (cm-1) Density of States                                             
--------------------------------------------------------------------------------
    0.00000 |************************************************************  0.097
   14.03004 |                                                              0.000
   28.06009 |                                                              0.000
   42.09013 |********************                                          0.032
   56.12017 |                                                              0.000
   70.15021 |                                                              0.000
   84.18026 |                                                              0.000
   98.21030 |********************                                          0.032
  112.24034 |********************                                          0.032
  126.27039 |                                                              0.000
  140.30043 |                                                              0.000
  154.33047 |************************************************************  0.097
  168.36051 |                                                              0.000
  182.39056 |********************                                          0.032
  196.42060 |********************                                          0.032
  210.45064 |********************                                          0.032
  224.48069 |********************                                          0.032
  238.51073 |                                                              0.000
  252.54077 |****************************************                      0.065
  266.57081 |********************                                          0.032
  280.60086 |********************                                          0.032
  294.63090 |                                                              0.000
  308.66094 |                                                              0.000
  322.69099 |********************                                          0.032
  336.72103 |********************                                          0.032
  350.75107 |                                                              0.000
  364.78111 |                                                              0.000
  378.81116 |********************                                          0.032
  392.84120 |****************************************                      0.065
  406.87124 |                                                              0.000
  420.90129 |                                                              0.000
  434.93133 |                                                              0.000
  448.96137 |                                                              0.000
  462.99142 |                                                              0.000
  477.02146 |                                                              0.000
  491.05150 |********************                                          0.032
  505.08154 |********************                                          0.032
  519.11159 |                                                              0.000
  533.14163 |********************                                          0.032
  547.17167 |                                                              0.000
  561.20172 |                                                              0.000
  575.23176 |********************                                          0.032
  589.26180 |                                                              0.000
  603.29184 |                                                              0.000
  617.32189 |                                                              0.000
  631.35193 |                                                              0.000
  645.38197 |                                                              0.000
  659.41202 |                                                              0.000
  673.44206 |                                                              0.000
  687.47210 |                                                              0.000
  701.50214 |                                                              0.000
  715.53219 |                                                              0.000
  729.56223 |                                                              0.000
  743.59227 |********************                                          0.032
  757.62232 |                                                              0.000
  771.65236 |                                                              0.000
  785.68240 |                                                              0.000
  799.71244 |****************************************                      0.065
  813.74249 |                                                              0.000
  827.77253 |********************                                          0.032
  841.80257 |                                                              0.000
  855.83262 |                                                              0.000
  869.86266 |                                                              0.000
  883.89270 |********************                                          0.032
--------------------------------------------------------------------------------



  Time to end of optimisation =       0.0315 seconds


  Peak dynamic memory used =       0.65 MB 


  Timing analysis for GULP :

--------------------------------------------------------------------------------
  Task / Subroutine                                          Time (Seconds)
--------------------------------------------------------------------------------
  Calculation of real space energy and derivatives                0.0020
  Calculation of phonons                                          0.0018
  Calculation and manipulation of Hessian matrix                  0.0012
--------------------------------------------------------------------------------
  Total CPU time                                                  0.0315
--------------------------------------------------------------------------------


  Job Finished at 14:40.24 25th May        2022                               

