------------------------------------------------------------
          Invoking FHI-aims ...

          When using FHI-aims, please cite the following reference:

            Volker Blum, Ralf Gehrke, Felix Hanke, Paula Havu,
            Ville Havu, Xinguo Ren, Karsten Reuter, and Matthias Scheffler,
            'Ab Initio Molecular Simulations with Numeric Atom-Centered Orbitals',
            Computer Physics Communications 180, 2175-2196 (2009)

          In addition, many other developments in FHI-aims are likely important for
          your particular application. A partial list of references is given at the end of
          this file. Thank you for giving credit to the authors of these developments.

          For any questions about FHI-aims, please visit our slack channel at

            https://fhi-aims.slack.com

          and our main development and support site at

            https://aims-git.rz-berlin.mpg.de .

          The latter site, in particular, has a wiki to collect information, as well
          as an issue tracker to log discussions, suggest improvements, and report issues
          or bugs. https://aims-git.rz-berlin.mpg.de is also the main development site
          of the project and all new and updated code versions can be obtained there.
          Please send an email to aims-coordinators@fhi-berlin.mpg.de and we will add
          you to these sites. They are for you and everyone is welcome there.

------------------------------------------------------------



  Date     :  20220517, Time     :  122200.902
  Time zero on CPU 1             :   0.411480000000000E-01  s.
  Internal wall clock time zero  :           422022120.902  s.

  FHI-aims created a unique identifier for this run for later identification
  aims_uuid : D6E90629-B4E1-435C-A6F0-AEBE23F4EF93

  Build configuration of the current instance of FHI-aims
  -------------------------------------------------------
  FHI-aims version      : 210914
  Commit number         : GITDIR-NOTFOUND
  CMake host system     : Linux-3.10.0-693.17.1.el7.x86_64
  CMake version         : 3.21.1
  Fortran compiler      : /shared/ucl/apps/intel/2018.Update3/impi/2018.3.222/intel64/bin/mpiifort (Intel) version 18.0.3.20180410
  Fortran compiler flags: -O3 -ip -fp-model precise
  C compiler            : /shared/ucl/apps/intel/2018.Update3/compilers_and_libraries_2018.3.222/linux/bin/intel64/icc (Intel) version 18.0.3.20180410
  C compiler flags      : -O3 -ip -fp-model precise -std=gnu99
  ELPA2 kernel          : AVX2
  Using MPI
  Using ScaLAPACK
  Using LibXC
  Using i-PI
  Using RLSY
  Linking against: /shared/ucl/apps/intel/2019.Update5/compilers_and_libraries_2019.5.281/linux/mkl/lib/intel64/libmkl_intel_lp64.so
                   /shared/ucl/apps/intel/2019.Update5/compilers_and_libraries_2019.5.281/linux/mkl/lib/intel64/libmkl_sequential.so
                   /shared/ucl/apps/intel/2019.Update5/compilers_and_libraries_2019.5.281/linux/mkl/lib/intel64/libmkl_core.so
                   /shared/ucl/apps/intel/2019.Update5/compilers_and_libraries_2019.5.281/linux/mkl/lib/intel64/libmkl_blacs_intelmpi_lp64.so
                   /shared/ucl/apps/intel/2019.Update5/compilers_and_libraries_2019.5.281/linux/mkl/lib/intel64/libmkl_scalapack_lp64.so

  Using       24 parallel tasks.
  Task        0 on host node-k98a-019 reporting.
  Task        1 on host node-k98a-019 reporting.
  Task        2 on host node-k98a-019 reporting.
  Task        3 on host node-k98a-019 reporting.
  Task        4 on host node-k98a-019 reporting.
  Task        5 on host node-k98a-019 reporting.
  Task        6 on host node-k98a-019 reporting.
  Task        7 on host node-k98a-019 reporting.
  Task        8 on host node-k98a-019 reporting.
  Task        9 on host node-k98a-019 reporting.
  Task       10 on host node-k98a-019 reporting.
  Task       11 on host node-k98a-019 reporting.
  Task       12 on host node-k98a-019 reporting.
  Task       13 on host node-k98a-019 reporting.
  Task       14 on host node-k98a-019 reporting.
  Task       15 on host node-k98a-019 reporting.
  Task       16 on host node-k98a-019 reporting.
  Task       17 on host node-k98a-019 reporting.
  Task       18 on host node-k98a-019 reporting.
  Task       19 on host node-k98a-019 reporting.
  Task       20 on host node-k98a-019 reporting.
  Task       21 on host node-k98a-019 reporting.
  Task       22 on host node-k98a-019 reporting.
  Task       23 on host node-k98a-019 reporting.

  Performing system and environment tests:
  | Environment variable OMP_NUM_THREADS correctly set to 1.
  | Checking for ScaLAPACK...
  | Testing pdtran()...
  | All pdtran() tests passed.

  Obtaining array dimensions for all initial allocations:
  
  -----------------------------------------------------------------------
  Parsing control.in (first pass over file, find array dimensions only).
  The contents of control.in will be repeated verbatim below
  unless switched off by setting 'verbatim_writeout .false.' .
  in the first line of control.in .
  -----------------------------------------------------------------------
  
  #########################################################################################  Physical model
  #########################################################################################
  xc                 pbesol
  spin               none
  relativistic       atomic_zora scalar
  charge             0.0
  #  SCF convergence
  occupation_type    gaussian 0.01
  mixer              pulay
  n_max_pulay        10
  charge_mix_param   0.5
  sc_accuracy_rho    1E-5
  sc_accuracy_eev    1E-3
  sc_accuracy_etot   1E-6
  sc_accuracy_forces 1E-4
  sc_iter_limit      1500
  #  Relaxation
  #relax_geometry   bfgs 1.e-3
  
  ################################################################################
  #
  #  FHI-aims code project
  #  VB, Fritz-Haber Institut, 2009
  #
  #  Suggested "light" defaults for Al atom (to be pasted into control.in file)
  #  Be sure to double-check any results obtained with these settings for post-processing,
  #  e.g., with the "tight" defaults and larger basis sets.
  #
  ################################################################################
    species        Al
  #     global species definitions
      nucleus             13
      mass                26.9815386
  #
      l_hartree           4
  #
      cut_pot             3.5          1.5  1.0
      basis_dep_cutoff    1e-4
  #
      radial_base         41 5.0
      radial_multiplier   1
      angular_grids       specified
        division   0.6594  110
        division   0.8170  194
        division   0.9059  302
  #      division   1.0363  434
  #      division   1.1443  590
  #      division   1.2621  770
  #      division   2.8177  974
  #      outer_grid   974
        outer_grid   302
  ################################################################################
  #
  #  Definition of "minimal" basis
  #
  ################################################################################
  #     valence basis states
      valence      3  s   2.
      valence      3  p   1.
  #     ion occupancy
      ion_occ      3  s   1.
      ion_occ      2  p   6.
  ################################################################################
  #
  #  Suggested additional basis functions. For production calculations,
  #  uncomment them one after another (the most important basis functions are
  #  listed first).
  #
  #  Constructed for dimers: 2.0 A, 2.5 A, 3.0 A, 3.75 A, 4.5 A
  #
  ################################################################################
  #  "First tier" - improvements: -199.47 meV to -10.63 meV
       ionic 3 d auto
       ionic 3 p auto
  #     hydro 4 f 4.7
       ionic 3 s auto
  #  "Second tier" - improvements: -5.35 meV to -1.57 meV
  #     hydro 5 g 7
  #     hydro 3 d 6
  #     hydro 2 s 11.6
  #     hydro 2 p 0.9
  #  "Third tier" - improvements: -0.63 meV to -0.20 meV
  #     hydro 5 f 7.6
  #     hydro 4 p 7.2
  #     hydro 4 s 3.7
  #     hydro 4 d 7.6
  #  "Fourth tier" - improvements: -0.17 meV to -0.08 meV
  #     hydro 4 d 13.6
  #     hydro 5 g 11.2
  #     hydro 4 d 0.9
  #     hydro 1 s 0.4
  #     hydro 4 p 0.1
  #     hydro 5 f 9.8
  #  Further basis functions that fell out of the optimization - noise level...
  #     hydro 4 p 5
  
  ################################################################################
  #
  #  FHI-aims code project
  #  VB, Fritz-Haber Institut, 2009
  #
  #  Suggested "light" defaults for F atom (to be pasted into control.in file)
  #  Be sure to double-check any results obtained with these settings for post-processing,
  #  e.g., with the "tight" defaults and larger basis sets.
  #
  ################################################################################
    species        F
  #     global species definitions
      nucleus             9
      mass                18.9984032
  #
      l_hartree           4
  #
      cut_pot             3.5  1.5  1.0
      basis_dep_cutoff    1e-4
  #
      radial_base         37 5.0
      radial_multiplier   1
      angular_grids specified
        division   0.4014  110
        division   0.5291  194
        division   0.6019  302
  #      division   0.6814  434
  #      division   0.7989  590
  #      division   0.8965  770
  #      division   1.3427  974
  #      outer_grid   974
        outer_grid   302
  ################################################################################
  #
  #  Definition of "minimal" basis
  #
  ################################################################################
  #     valence basis states
      valence      2  s   2.
      valence      2  p   5.
  #     ion occupancy
      ion_occ      2  s   1.
      ion_occ      2  p   4.
  ################################################################################
  #
  #  Suggested additional basis functions. For production calculations,
  #  uncomment them one after another (the most important basis functions are
  #  listed first).
  #
  #  Constructed for dimers: 1.2 A, 1.418 A, 1.75 A, 2.25 A, 3.25 A
  #
  ################################################################################
  #  "First tier" - improvements: -149.44 meV to -45.88 meV
       hydro 2 p 1.7
       hydro 3 d 7.4
       hydro 3 s 6.8
  #  "Second tier" - improvements: -12.96 meV to -1.56 meV
  #     hydro 4 f 11.2
  #     ionic 2 p auto
  #     hydro 1 s 0.75
  #     hydro 4 d 8.8
  #     hydro 5 g 16.8
  #  "Third tier" - improvements: -0.58 meV to -0.05 meV
  #     hydro 3 p 6.2
  #     hydro 3 s 3.2
  #     hydro 4 f 9.6
  #     hydro 3 s 19.6
  #     hydro 4 d 8.6
  #     hydro 5 g 14.4
  # Further basis functions: -0.05 meV and below
  #     hydro 3 p 4.2
  
  -----------------------------------------------------------------------
  Completed first pass over input file control.in .
  -----------------------------------------------------------------------
  
  
  -----------------------------------------------------------------------
  Parsing geometry.in (first pass over file, find array dimensions only).
  The contents of geometry.in will be repeated verbatim below
  unless switched off by setting 'verbatim_writeout .false.' .
  in the first line of geometry.in .
  -----------------------------------------------------------------------
  
  atom -1.722811589 2.528929685 -1.256065206 Al
  atom -0.515738370 -0.000034596 -2.340271356 Al
  atom -2.192192786 -0.341134512 -0.500683249 Al
  atom -0.732153480 3.593279711 -0.155904173 F
  atom -3.038768570 3.139460066 -2.342118119 F
  atom -1.387810288 -1.672654637 -1.729837354 F
  atom -2.534605280 1.445438710 0.056981385 F
  atom -3.290649330 -1.213924746 0.646784164 F
  atom 0.643816690 -0.413398260 -3.670539400 F
  atom -0.331905693 1.893611122 -2.360059922 F
  atom -2.439727557 0.482105151 -2.288931428 F
  atom -0.287628563 0.131455780 -0.392697588 F
  
  -----------------------------------------------------------------------
  Completed first pass over input file geometry.in .
  -----------------------------------------------------------------------
  

  Basic array size parameters:
  | Number of species                 :        2
  | Number of atoms                   :       12
  | Max. basis fn. angular momentum   :        2
  | Max. atomic/ionic basis occupied n:        3
  | Max. number of basis fn. types    :        3
  | Max. radial fns per species/type  :        5
  | Max. logarithmic grid size        :     1340
  | Max. radial integration grid size :       41
  | Max. angular integration grid size:      302
  | Max. angular grid division number :        8
  | Radial grid for Hartree potential :     1340
  | Number of spin channels           :        1

------------------------------------------------------------
          Reading file control.in.
------------------------------------------------------------
  XC: Using PBEsol gradient-corrected functionals.
  Spin treatment: No spin polarisation.
  Scalar relativistic treatment of kinetic energy: on-site free-atom approximation to ZORA.
  Charge =   0.000000E+00: Neutral system requested explicitly.
  Occupation type: Gaussian broadening, width =   0.100000E-01 eV.
  Using pulay charge density mixing.
  Pulay mixing - number of memorized iterations:   10
  Charge density mixing - mixing parameter:     0.5000
  Convergence accuracy of self-consistent charge density:  0.1000E-04
  Convergence accuracy of sum of eigenvalues:  0.1000E-02
  Convergence accuracy of total energy:  0.1000E-05
  Convergence accuracy of forces:  0.1000E-03
  Maximum number of s.-c. iterations  :  1500
 
  Reading configuration options for species Al                  .
  | Found nuclear charge :  13.0000
  | Found atomic mass :    26.9815386000000      amu
  | Found l_max for Hartree potential  :   4
  | Found cutoff potl. onset [A], width [A], scale factor :    3.50000    1.50000    1.00000
  | Threshold for basis-dependent cutoff potential is   0.100000E-03
  | Found data for basic radial integration grid :    41 points, outermost radius =    5.000 A
  | Found multiplier for basic radial grid :   1
  | Found angular grid specification: user-specified.
  | Specified grid contains     4 separate shells.
  | Check grid settings after all constraints further below.
  | Found free-atom valence shell :  3 s   2.000
  | Found free-atom valence shell :  3 p   1.000
  | Found free-ion valence shell :  3 s   1.000
  | Found free-ion valence shell :  2 p   6.000
  | Found ionic basis function :  3 d , default cutoff radius.
  | Found ionic basis function :  3 p , default cutoff radius.
  | Found ionic basis function :  3 s , default cutoff radius.
  Species Al                  : Missing cutoff potential type.
  Defaulting to exp(1/x)/(1-x)^2 type cutoff potential.
  Species Al: No 'logarithmic' tag. Using default grid for free atom:
  | Default logarithmic grid data [bohr] : 0.1000E-03 0.1000E+03 0.1012E+01
  | Will include ionic basis functions of  2.0-fold positive Al                   ion.
  Species Al: On-site basis accuracy parameter (for Gram-Schmidt orthonormalisation) not specified.
  Using default value basis_acc =  0.1000000E-03.
  Species Al                  : Using default innermost maximum threshold i_radial=  2 for radial functions.
  Species Al                  : Default cutoff onset for free atom density etc. : 0.35000000E+01 AA.
  Species Al                  : Basic radial grid will be enhanced according to radial_multiplier =   1, to contain    41 grid points.
 
  Reading configuration options for species F                   .
  | Found nuclear charge :   9.0000
  | Found atomic mass :    18.9984032000000      amu
  | Found l_max for Hartree potential  :   4
  | Found cutoff potl. onset [A], width [A], scale factor :    3.50000    1.50000    1.00000
  | Threshold for basis-dependent cutoff potential is   0.100000E-03
  | Found data for basic radial integration grid :    37 points, outermost radius =    5.000 A
  | Found multiplier for basic radial grid :   1
  | Found angular grid specification: user-specified.
  | Specified grid contains     4 separate shells.
  | Check grid settings after all constraints further below.
  | Found free-atom valence shell :  2 s   2.000
  | Found free-atom valence shell :  2 p   5.000
  | Found free-ion valence shell :  2 s   1.000
  | Found free-ion valence shell :  2 p   4.000
  | Found hydrogenic basis function :  2 p   1.700
  | Found hydrogenic basis function :  3 d   7.400
  | Found hydrogenic basis function :  3 s   6.800
  Species F                   : Missing cutoff potential type.
  Defaulting to exp(1/x)/(1-x)^2 type cutoff potential.
  Species F : No 'logarithmic' tag. Using default grid for free atom:
  | Default logarithmic grid data [bohr] : 0.1000E-03 0.1000E+03 0.1012E+01
  Species F : On-site basis accuracy parameter (for Gram-Schmidt orthonormalisation) not specified.
  Using default value basis_acc =  0.1000000E-03.
  Species F                   : Using default innermost maximum threshold i_radial=  2 for radial functions.
  Species F                   : Default cutoff onset for free atom density etc. : 0.35000000E+01 AA.
  Species F                   : Basic radial grid will be enhanced according to radial_multiplier =   1, to contain    37 grid points.
 
  Finished reading input file 'control.in'.
 
------------------------------------------------------------


------------------------------------------------------------
          Reading geometry description geometry.in.
------------------------------------------------------------
  | The smallest distance between any two atoms is         1.81218130 AA.
  | The first atom of this pair is atom number                      1 .
  | The second atom of this pair is atom number                     5 .
  Input structure read successfully.
  The structure contains       12 atoms,  and a total of        120.000 electrons.

  Input geometry:
  | No unit cell requested.
  | Atomic structure:
  |       Atom                x [A]            y [A]            z [A]
  |    1: Species Al           -1.72281159        2.52892969       -1.25606521
  |    2: Species Al           -0.51573837       -0.00003460       -2.34027136
  |    3: Species Al           -2.19219279       -0.34113451       -0.50068325
  |    4: Species F            -0.73215348        3.59327971       -0.15590417
  |    5: Species F            -3.03876857        3.13946007       -2.34211812
  |    6: Species F            -1.38781029       -1.67265464       -1.72983735
  |    7: Species F            -2.53460528        1.44543871        0.05698139
  |    8: Species F            -3.29064933       -1.21392475        0.64678416
  |    9: Species F             0.64381669       -0.41339826       -3.67053940
  |   10: Species F            -0.33190569        1.89361112       -2.36005992
  |   11: Species F            -2.43972756        0.48210515       -2.28893143
  |   12: Species F            -0.28762856        0.13145578       -0.39269759

 
  Finished reading input file 'control.in'.
 

------------------------------------------------------------
          Reading geometry description geometry.in.
------------------------------------------------------------
 
  Consistency checks for stacksize environment parameter are next.
 
  | Maximum stacksize for task 0: unlimited
  | Maximum stacksize for task 1: unlimited
  | Maximum stacksize for task 2: unlimited
  | Maximum stacksize for task 3: unlimited
  | Maximum stacksize for task 4: unlimited
  | Maximum stacksize for task 5: unlimited
  | Maximum stacksize for task 6: unlimited
  | Maximum stacksize for task 7: unlimited
  | Maximum stacksize for task 8: unlimited
  | Maximum stacksize for task 9: unlimited
  | Maximum stacksize for task 10: unlimited
  | Maximum stacksize for task 11: unlimited
  | Maximum stacksize for task 12: unlimited
  | Maximum stacksize for task 13: unlimited
  | Maximum stacksize for task 14: unlimited
  | Maximum stacksize for task 15: unlimited
  | Maximum stacksize for task 16: unlimited
  | Maximum stacksize for task 17: unlimited
  | Maximum stacksize for task 18: unlimited
  | Maximum stacksize for task 19: unlimited
  | Maximum stacksize for task 20: unlimited
  | Maximum stacksize for task 21: unlimited
  | Maximum stacksize for task 22: unlimited
  | Maximum stacksize for task 23: unlimited
  | Current stacksize for task 0: unlimited
  | Current stacksize for task 1: unlimited
  | Current stacksize for task 2: unlimited
  | Current stacksize for task 3: unlimited
  | Current stacksize for task 4: unlimited
  | Current stacksize for task 5: unlimited
  | Current stacksize for task 6: unlimited
  | Current stacksize for task 7: unlimited
  | Current stacksize for task 8: unlimited
  | Current stacksize for task 9: unlimited
  | Current stacksize for task 10: unlimited
  | Current stacksize for task 11: unlimited
  | Current stacksize for task 12: unlimited
  | Current stacksize for task 13: unlimited
  | Current stacksize for task 14: unlimited
  | Current stacksize for task 15: unlimited
  | Current stacksize for task 16: unlimited
  | Current stacksize for task 17: unlimited
  | Current stacksize for task 18: unlimited
  | Current stacksize for task 19: unlimited
  | Current stacksize for task 20: unlimited
  | Current stacksize for task 21: unlimited
  | Current stacksize for task 22: unlimited
  | Current stacksize for task 23: unlimited
 
  Consistency checks for the contents of control.in are next.
 
  MPI_IN_PLACE appears to work with this MPI implementation.
  | Keeping use_mpi_in_place .true. (see manual).
  Target number of points in a grid batch is not set. Defaulting to  100
  Method for grid partitioning is not set. Defaulting to parallel hash+maxmin partitioning.
  Batch size limit is not set. Defaulting to    200
  By default, will store active basis functions for each batch.
  If in need of memory, prune_basis_once .false. can be used to disable this option.
  communication_type for Hartree potential was not specified.
  Defaulting to calc_hartree .
  Pulay mixer: Number of initial linear mixing iterations not set.
  Defaulting to    0 iterations.
  Work space size for distributed Hartree potential not set.
  Defaulting to   0.200000E+03 MB.
  Algorithm-dependent basis array size parameters:
  | n_max_pulay                         :       10
  Presetting      1001 iterations before the initial mixing cycle
  is restarted anyway using the sc_init_iter criterion / keyword.
  Presetting a factor      1.000 between actual scf density residual
  and density convergence criterion sc_accuracy_rho below which sc_init_iter
  takes no effect.
  Geometry relaxation not requested: no relaxation will be performed.
  Forces evaluation will include force correction term due to incomplete self-consistency (default).
  Handling of forces: Unphysical translation and rotation will be removed from forces.
  No accuracy limit for integral partition fn. given. Defaulting to  0.1000E-14.
  No threshold value for u(r) in integrations given. Defaulting to  0.1000E-05.
  No accuracy for occupation numbers given. Defaulting to  0.1000E-12.
  No threshold value for occupation numbers given. Defaulting to  0.0000E+00.
  No accuracy for fermi level given. Defaulting to  0.1000E-19.
  Maximum # of iterations to find E_F not set. Defaulting to  200.
  Preferred method for the eigenvalue solver ('KS_method') not specified in 'control.in'.
  Calling BLACS routine to test compilation state
  Since ScaLAPACK support is enabled, defaulting to ELPA (via ELSI).
  Will not use alltoall communication since running on < 1024 CPUs.
  Threshold for basis singularities not set.
  Default threshold for basis singularities:  0.1000E-04
  partition_type (choice of integration weights) for integrals was not specified.
  | Using a version of the partition function of Stratmann and coworkers ('stratmann_sparse').
  | At each grid point, the set of atoms used to build the partition table is smoothly restricted to
  | only those atoms whose free-atom density would be non-zero at that grid point.
  Partitioning for Hartree potential was not defined. Using partition_type for integrals.
  | Adjusted default value of keyword multip_moments_threshold to:       0.10000000E-11
  | This value may affect high angular momentum components of the Hartree potential in periodic systems.
  No q(lm)/r^(l+1) cutoff set for long-range Hartree potential.
  | Using default value of  0.100000E-09 .
  | Verify using the multipole_threshold keyword.
  Defaulting to new monopole extrapolation.
  Density update method: automatic selection selected.
  Charge integration errors on the 3D integration grid will be compensated
  by explicit normalization and distribution of residual charges.
  Use the "compensate_multipole_errors" flag to change this behaviour.
  Set 'collect_eigenvectors' to be '.true.' for use_density_matrix .false.
 
  Consistency checks for the contents of geometry.in are next.
 
  Number of empty states per atom not set in control.in - providing a guess from actual geometry.
  | Total number of empty states used during s.c.f. cycle:       36
  If you use a very high smearing, use empty_states (per atom!) in control.in to increase this value.

  Structure-dependent array size parameters: 
  | Maximum number of distinct radial functions  :       14
  | Maximum number of basis functions            :      180
  | Number of Kohn-Sham states (occupied + empty):       96
------------------------------------------------------------

------------------------------------------------------------
          Preparing all fixed parts of the calculation.
------------------------------------------------------------
  Determining machine precision:
    2.225073858507201E-308
  Setting up grids for atomic and cluster calculations.

  Creating wave function, potential, and density for free atoms.

  Species: Al

  List of occupied orbitals and eigenvalues:
    n    l              occ      energy [Ha]    energy [eV]
    1    0           2.0000       -55.621123     -1513.5278
    2    0           2.0000        -3.957030      -107.6763
    3    0           2.0000        -0.272233        -7.4078
    2    1           6.0000        -2.540949       -69.1427
    3    1           1.0000        -0.083300        -2.2667


  Species: F

  List of occupied orbitals and eigenvalues:
    n    l              occ      energy [Ha]    energy [eV]
    1    0           2.0000       -24.399611      -663.9472
    2    0           2.0000        -1.098702       -29.8972
    2    1           5.0000        -0.408210       -11.1080


  Adding cutoff potential to free-atom effective potential.
  Creating fixed part of basis set: Ionic, confined, hydrogenic.
 
  Al                   ion:

  List of free ionic orbitals and eigenvalues:
    n    l      energy [Ha]    energy [eV]
    1    0       -56.418846     -1535.2349
    2    0        -4.732717      -128.7838
    3    0        -0.872690       -23.7471
    2    1        -3.317230       -90.2664


  List of ionic basis orbitals and eigenvalues:
    n    l      energy [Ha]    energy [eV]    outer radius [A]
    3    2        -0.346815        -9.4373       4.594041
    3    1        -0.631870       -17.1940       4.538221
    3    0        -0.872657       -23.7462       4.538221

 
  F                    hydrogenic:
 
  List of hydrogenic basis orbitals: 
    n    l      effective z      eigenvalue [eV]  inner max. [A]     outer max. [A]     outer radius [A]   
    2    1         1.700000        -9.7616           1.243167           1.243167           4.598524
    3    2         7.400000       -82.7828           0.642437           0.642437           3.305741
    3    0         6.800000       -69.9026           0.057798           1.022307           3.781556
 
  Creating atomic-like basis functions for current effective potential.

  Species Al                  :

  List of atomic basis orbitals and eigenvalues:
    n    l      energy [Ha]    energy [eV]    outer radius [A]
    1    0       -55.621123     -1513.5278       0.850197
    2    0        -3.957030      -107.6763       3.144911
    3    0        -0.272233        -7.4078       4.594041
    2    1        -2.540949       -69.1427       3.731966
    3    1        -0.083300        -2.2667       4.594041


  Species F                   :

  List of atomic basis orbitals and eigenvalues:
    n    l      energy [Ha]    energy [eV]    outer radius [A]
    1    0       -24.399611      -663.9472       1.258458
    2    0        -1.098702       -29.8972       4.325857
    2    1        -0.408210       -11.1080       4.487453

  Assembling full basis from fixed parts.
  | Species Al :   atomic orbital   1 s accepted.
  | Species Al :   atomic orbital   2 s accepted.
  | Species Al :    ionic orbital   3 s accepted.
  | Species Al :   atomic orbital   3 s accepted.
  | Species Al :   atomic orbital   2 p accepted.
  | Species Al :    ionic orbital   3 p accepted.
  | Species Al :   atomic orbital   3 p accepted.
  | Species Al :    ionic orbital   3 d accepted.
  | Species F :   atomic orbital   1 s accepted.
  | Species F :    hydro orbital   3 s accepted.
  | Species F :   atomic orbital   2 s accepted.
  | Species F :   atomic orbital   2 p accepted.
  | Species F :    hydro orbital   2 p accepted.
  | Species F :    hydro orbital   3 d accepted.
 
  Basis size parameters after reduction:
  | Total number of radial functions:       14
  | Total number of basis functions :      180
 
  Per-task memory consumption for arrays in subroutine allocate_ext:
  |           4.807768MB.
  Testing on-site integration grid accuracy.
  |  Species  Function  <phi|h_atom|phi> (log., in eV)  <phi|h_atom|phi> (rad., in eV)
           1        1              -1513.5277717935              -1513.5271881332
           1        2               -107.6762691836               -107.6762662489
           1        3                 -6.9467474784                 -6.9471269649
           1        4                  5.5771951849                  5.4862107220 ***
           1        5                -69.1427313144                -69.1427312731
           1        6                 -1.5197375330                 -1.5230432022
           1        7                  6.8210948310                  6.5529872240 ***
           1        8                  4.3216540965                  4.2851170187 ***
           2        9               -663.9471986398               -663.9470363334
           2       10                 16.8514011578                 16.8512525338
           2       11                -28.4490593856                -28.4490661472
           2       12                -11.1080115307                -11.1080620173
           2       13                  7.1940182175                  7.1685154137
           2       14                 44.8544281765                 44.8543763625
 * Note: Onsite integrals marked "***" above are less accurate than
 * onsite_accuracy_threshold =    0.03000 eV. Usually, this is harmless.
 * When in doubt, tighten the "radial" and/or "radial_multiplier" flags to check.

  Preparing densities etc. for the partition functions (integrals / Hartree potential).

  Preparations completed.
  max(cpu_time)          :      0.184 s.
  Wall clock time (cpu1) :      0.184 s.
------------------------------------------------------------

------------------------------------------------------------
          Begin self-consistency loop: Initialization.

          Date     :  20220517, Time     :  122201.130
------------------------------------------------------------

  Initializing index lists of integration centers etc. from given atomic structure:
  | Number of centers in hartree potential         :        12
  | Number of centers in hartree multipole         :        12
  | Number of centers in electron density summation:        12
  | Number of centers in basis integrals           :        12
  | Number of centers in integrals                 :        12
  | Number of centers in hamiltonian               :        12
  * Using 24 tasks for Scalapack Eigenvalue solver.
  Detailed listing of tasks and assigned k-points:
  (for non-periodic systems, the "k-point" denotes an internal label only)
   Task     0 k-point     1 on node-k98a-019
   Task     1 k-point     1 on node-k98a-019
   Task     2 k-point     1 on node-k98a-019
   Task     3 k-point     1 on node-k98a-019
   Task     4 k-point     1 on node-k98a-019
   Task     5 k-point     1 on node-k98a-019
   Task     6 k-point     1 on node-k98a-019
   Task     7 k-point     1 on node-k98a-019
   Task     8 k-point     1 on node-k98a-019
   Task     9 k-point     1 on node-k98a-019
   Task    10 k-point     1 on node-k98a-019
   Task    11 k-point     1 on node-k98a-019
   Task    12 k-point     1 on node-k98a-019
   Task    13 k-point     1 on node-k98a-019
   Task    14 k-point     1 on node-k98a-019
   Task    15 k-point     1 on node-k98a-019
   Task    16 k-point     1 on node-k98a-019
   Task    17 k-point     1 on node-k98a-019
   Task    18 k-point     1 on node-k98a-019
   Task    19 k-point     1 on node-k98a-019
   Task    20 k-point     1 on node-k98a-019
   Task    21 k-point     1 on node-k98a-019
   Task    22 k-point     1 on node-k98a-019
   Task    23 k-point     1 on node-k98a-019
  Tasks:    24 split into      6 X      4 BLACS grid
  Calculating block size based on n_basis =          180  max_nprow =            6  max_npcol =            4
  ScaLAPACK block size set to:           16
  Allocating        0.012 MB for ovlp
  Allocating        0.012 MB for ham
  Allocating        0.012 MB for eigenvec
  Required Scalapack workspace - INTEGER:            1  REAL:             1
  Partitioning the integration grid into batches with parallel hashing+maxmin method.
  | Number of batches:     1076
  | Maximal batch size:     190
  | Minimal batch size:      45
  | Average batch size:      85.428
  | Standard deviation of batch sizes:      20.351

  Integration load balanced across    24 MPI tasks.
  Work distribution over tasks is as follows:
  Task     0 has       3777 integration points.
  Task     1 has       3870 integration points.
  Task     2 has       3809 integration points.
  Task     3 has       3889 integration points.
  Task     4 has       3790 integration points.
  Task     5 has       3790 integration points.
  Task     6 has       3870 integration points.
  Task     7 has       3805 integration points.
  Task     8 has       3801 integration points.
  Task     9 has       3777 integration points.
  Task    10 has       3776 integration points.
  Task    11 has       3877 integration points.
  Task    12 has       3786 integration points.
  Task    13 has       3859 integration points.
  Task    14 has       3864 integration points.
  Task    15 has       3861 integration points.
  Task    16 has       3864 integration points.
  Task    17 has       3886 integration points.
  Task    18 has       3869 integration points.
  Task    19 has       3890 integration points.
  Task    20 has       3771 integration points.
  Task    21 has       3795 integration points.
  Task    22 has       3795 integration points.
  Task    23 has       3849 integration points.
  Initializing partition tables, free-atom densities, potentials, etc. across the integration grid (initialize_grid_storage).
  | initialize_grid_storage: Actual outermost partition radius vs. multipole_radius_free
  | (-- VB: in principle, multipole_radius_free should be larger, hence this output)
  | Species        1: Confinement radius =              4.999999999999999 AA, multipole_radius_free =              5.004487022111096 AA.
  | Species        1: outer_partition_radius set to              5.004487022111096 AA .
  | Species        2: Confinement radius =              4.999999999999999 AA, multipole_radius_free =              5.009370088163274 AA.
  | Species        2: outer_partition_radius set to              5.009370088163274 AA .
  | The sparse table of interatomic distances needs          1.64 kbyte instead of         1.15 kbyte of memory.
  | Using the partition_type stratmann_smoother will reduce your memory usage.
  | Net number of integration points:    91920
  | of which are non-zero points    :    84943
  Renormalizing the initial density to the exact electron count on the 3D integration grid.
  | Initial density: Formal number of electrons (from input files) :     120.0000000000
  | Integrated number of electrons on 3D grid     :     119.9999475786
  | Charge integration error                      :      -0.0000524214
  | Normalization factor for density and gradient :       1.0000004368
  Renormalizing the free-atom superposition density to the exact electron count on the 3D integration grid.
  | Formal number of electrons (from input files) :     120.0000000000
  | Integrated number of electrons on 3D grid     :     119.9999475786
  | Charge integration error                      :      -0.0000524214
  | Normalization factor for density and gradient :       1.0000004368
  Obtaining max. number of non-zero basis functions in each batch (get_n_compute_maxes).
  | Maximal number of non-zero basis functions:      165 in task     0
  | Maximal number of non-zero basis functions:      165 in task     1
  | Maximal number of non-zero basis functions:      170 in task     2
  | Maximal number of non-zero basis functions:      166 in task     3
  | Maximal number of non-zero basis functions:      165 in task     4
  | Maximal number of non-zero basis functions:      172 in task     5
  | Maximal number of non-zero basis functions:      166 in task     6
  | Maximal number of non-zero basis functions:      169 in task     7
  | Maximal number of non-zero basis functions:      167 in task     8
  | Maximal number of non-zero basis functions:      172 in task     9
  | Maximal number of non-zero basis functions:      170 in task    10
  | Maximal number of non-zero basis functions:      165 in task    11
  | Maximal number of non-zero basis functions:      171 in task    12
  | Maximal number of non-zero basis functions:      166 in task    13
  | Maximal number of non-zero basis functions:      171 in task    14
  | Maximal number of non-zero basis functions:      173 in task    15
  | Maximal number of non-zero basis functions:      166 in task    16
  | Maximal number of non-zero basis functions:      170 in task    17
  | Maximal number of non-zero basis functions:      172 in task    18
  | Maximal number of non-zero basis functions:      169 in task    19
  | Maximal number of non-zero basis functions:      165 in task    20
  | Maximal number of non-zero basis functions:      170 in task    21
  | Maximal number of non-zero basis functions:      169 in task    22
  | Maximal number of non-zero basis functions:      166 in task    23
  Selecting the method for density update.
  Loop over occupied states selected for charge density update.
  Allocating        0.132 MB for KS_eigenvector
  Integrating Hamiltonian matrix: batch-based integration.
  Time summed over all CPUs for integration: real work        0.767 s, elapsed        0.805 s
  Integrating overlap matrix.
  Time summed over all CPUs for integration: real work        0.295 s, elapsed        0.315 s
  Deallocating overlap matrix.

  Updating Kohn-Sham eigenvalues and eigenvectors using ELSI and the ELPA eigensolver.
  Overlap matrix is not singular
  | Lowest and highest eigenvalues :  0.2193E-02,  0.5806E+01
  Finished singularity check of overlap matrix
  | Time :     0.015 s
  Starting ELPA eigensolver
  Finished Cholesky decomposition
  | Time :     0.011 s
  Finished transformation to standard eigenproblem
  | Time :     0.003 s
  Finished solving standard eigenproblem
  | Time :     0.013 s
  Finished back-transformation of eigenvectors
  | Time :     0.003 s

  Obtaining occupation numbers and chemical potential using ELSI.
  | Chemical potential (Fermi level):    -7.56842699 eV
  Writing Kohn-Sham eigenvalues.

  State    Occupation    Eigenvalue [Ha]    Eigenvalue [eV]
      1       2.00000         -55.486921        -1509.87593
      2       2.00000         -55.486920        -1509.87593
      3       2.00000         -55.483867        -1509.79285
      4       2.00000         -24.363331         -662.95998
      5       2.00000         -24.363331         -662.95998
      6       2.00000         -24.354805         -662.72796
      7       2.00000         -24.352219         -662.65760
      8       2.00000         -24.348773         -662.56382
      9       2.00000         -24.341043         -662.35348
     10       2.00000         -24.340988         -662.35198
     11       2.00000         -24.340988         -662.35198
     12       2.00000         -24.339737         -662.31794
     13       2.00000          -3.952673         -107.55770
     14       2.00000          -3.952549         -107.55434
     15       2.00000          -3.949118         -107.46097
     16       2.00000          -2.546909          -69.30491
     17       2.00000          -2.545801          -69.27478
     18       2.00000          -2.544209          -69.23146
     19       2.00000          -2.544055          -69.22726
     20       2.00000          -2.542944          -69.19704
     21       2.00000          -2.542815          -69.19351
     22       2.00000          -2.541492          -69.15751
     23       2.00000          -2.540756          -69.13748
     24       2.00000          -2.540743          -69.13715
     25       2.00000          -1.194758          -32.51101
     26       2.00000          -1.183781          -32.21232
     27       2.00000          -1.176119          -32.00382
     28       2.00000          -1.170343          -31.84665
     29       2.00000          -1.158211          -31.51654
     30       2.00000          -1.150062          -31.29479
     31       2.00000          -1.149590          -31.28194
     32       2.00000          -1.149256          -31.27283
     33       2.00000          -1.147168          -31.21604
     34       2.00000          -0.568718          -15.47559
     35       2.00000          -0.552861          -15.04412
     36       2.00000          -0.548774          -14.93290
     37       2.00000          -0.530202          -14.42754
     38       2.00000          -0.521604          -14.19357
     39       2.00000          -0.510087          -13.88016
     40       2.00000          -0.508722          -13.84303
     41       2.00000          -0.502200          -13.66554
     42       2.00000          -0.498388          -13.56183
     43       2.00000          -0.496645          -13.51439
     44       2.00000          -0.487109          -13.25491
     45       2.00000          -0.482020          -13.11644
     46       2.00000          -0.479625          -13.05126
     47       2.00000          -0.475003          -12.92550
     48       2.00000          -0.472128          -12.84726
     49       2.00000          -0.469438          -12.77407
     50       2.00000          -0.466443          -12.69255
     51       2.00000          -0.460989          -12.54414
     52       2.00000          -0.452718          -12.31909
     53       2.00000          -0.452086          -12.30189
     54       2.00000          -0.452066          -12.30133
     55       2.00000          -0.451561          -12.28759
     56       2.00000          -0.450138          -12.24888
     57       2.00000          -0.448887          -12.21484
     58       2.00000          -0.446975          -12.16282
     59       2.00000          -0.446133          -12.13990
     60       2.00000          -0.440977          -11.99959
     61       0.00000          -0.139837           -3.80515
     62       0.00000          -0.081071           -2.20607
     63       0.00000          -0.077779           -2.11648
     64       0.00000          -0.028786           -0.78331
     65       0.00000          -0.018604           -0.50624
     66       0.00000           0.006385            0.17373
     67       0.00000           0.021170            0.57605
     68       0.00000           0.031933            0.86894
     69       0.00000           0.054637            1.48675
     70       0.00000           0.063478            1.72732
     71       0.00000           0.090954            2.47499
     72       0.00000           0.125449            3.41365
     73       0.00000           0.141751            3.85725
     74       0.00000           0.165427            4.50149
     75       0.00000           0.173962            4.73375
     76       0.00000           0.174651            4.75250
     77       0.00000           0.185320            5.04281
     78       0.00000           0.195893            5.33052
     79       0.00000           0.208932            5.68533
     80       0.00000           0.223963            6.09433
     81       0.00000           0.224283            6.10305
     82       0.00000           0.234941            6.39307
     83       0.00000           0.238909            6.50104
     84       0.00000           0.247446            6.73334
     85       0.00000           0.259584            7.06363
     86       0.00000           0.261435            7.11401
     87       0.00000           0.267870            7.28910
     88       0.00000           0.270675            7.36545
     89       0.00000           0.273039            7.42978
     90       0.00000           0.303823            8.26744
     91       0.00000           0.315139            8.57537
     92       0.00000           0.331465            9.01961
     93       0.00000           0.349429            9.50844
     94       0.00000           0.362530            9.86494
     95       0.00000           0.370991           10.09519
     96       0.00000           0.376515           10.24550

  Highest occupied state (VBM) at    -11.99958939 eV
  | Occupation number:      2.00000000

  Lowest unoccupied state (CBM) at    -3.80514977 eV
  | Occupation number:      0.00000000

  Overall HOMO-LUMO gap:      8.19443962 eV.
  Calculating total energy contributions from superposition of free atom densities.

  Total energy components:
  | Sum of eigenvalues            :        -887.79754702 Ha      -24158.20041015 eV
  | XC energy correction          :        -144.42507274 Ha       -3930.00618583 eV
  | XC potential correction       :         188.05447532 Ha        5117.22263493 eV
  | Free-atom electrostatic energy:        -781.17619387 Ha      -21256.88577366 eV
  | Hartree energy correction     :           0.00000000 Ha           0.00000000 eV
  | Entropy correction            :           0.00000000 Ha           0.00000000 eV
  | ---------------------------
  | Total energy                  :       -1625.34433831 Ha      -44227.86973471 eV
  | Total energy, T -> 0          :       -1625.34433831 Ha      -44227.86973471 eV  <-- do not rely on this value for anything but (periodic) metals
  | Electronic free energy        :       -1625.34433831 Ha      -44227.86973471 eV

  Derived energy quantities:
  | Kinetic energy                :        1627.82084127 Ha       44295.25880893 eV
  | Electrostatic energy          :       -3108.74010684 Ha      -84593.12235781 eV
  | Energy correction for multipole
  | error in Hartree potential    :           0.00000000 Ha           0.00000000 eV
  | Sum of eigenvalues per atom                           :       -2013.18336751 eV
  | Total energy (T->0) per atom                          :       -3685.65581123 eV  <-- do not rely on this value for anything but (periodic) metals
  | Electronic free energy per atom                       :       -3685.65581123 eV
  Initialize hartree_potential_storage
  Max. number of atoms included in rho_multipole:           12

  End scf initialization - timings             :  max(cpu_time)    wall_clock(cpu1)
  | Time for scf. initialization                :        0.180 s           0.181 s
  | Boundary condition initialization           :        0.000 s           0.000 s
  | Integration                                 :        0.059 s           0.060 s
  | Solution of K.-S. eqns.                     :        0.051 s           0.051 s
  | Grid partitioning                           :        0.045 s           0.045 s
  | Preloading free-atom quantities on grid     :        0.016 s           0.016 s
  | Free-atom superposition energy              :        0.006 s           0.007 s
  | Total energy evaluation                     :        0.000 s           0.000 s

  Partial memory accounting:
  | Current value for overall tracked memory usage:
  |   Minimum:        0.273 MB (on task 23)
  |   Maximum:        0.292 MB (on task  0)
  |   Average:        0.287 MB
  | Peak value for overall tracked memory usage:
  |   Minimum:        1.332 MB (on task 20 after allocating wave)
  |   Maximum:        1.394 MB (on task  5 after allocating wave)
  |   Average:        1.364 MB
  | Largest tracked array allocation so far:
  |   Minimum:        0.239 MB (H_times_psi on task  0)
  |   Maximum:        0.523 MB (all_coords on task 10)
  |   Average:        0.278 MB
  Note:  These values currently only include a subset of arrays which are explicitly tracked.
  The "true" memory usage will be greater.
------------------------------------------------------------
  Evaluating new KS density.
  Integration grid: deviation in total charge (<rho> - N_e) =   7.105427E-14

  Time for density update prior                :  max(cpu_time)    wall_clock(cpu1)
  | self-consistency iterative process          :        0.032 s           0.032 s

------------------------------------------------------------
          Begin self-consistency iteration #    1

  Date     :  20220517, Time     :  122201.345
------------------------------------------------------------
  Pulay mixing of updated and previous charge densities.
  Renormalizing the density to the exact electron count on the 3D integration grid.
  | Formal number of electrons (from input files) :     120.0000000000
  | Integrated number of electrons on 3D grid     :     120.0000000000
  | Charge integration error                      :       0.0000000000
  | Normalization factor for density and gradient :       1.0000000000

  Evaluating partitioned Hartree potential by multipole expansion.
  | Original multipole sum: apparent total charge =  -0.918726E-14
  | Sum of charges compensated after spline to logarithmic grids =   0.770599E-04
  | Analytical far-field extrapolation by fixed multipoles:
  | Hartree multipole sum: apparent total charge =  -0.978990E-14
  Summing up the Hartree potential.
  Time summed over all CPUs for potential: real work        0.383 s, elapsed        0.419 s
  | RMS charge density error from multipole expansion :   0.111405E-01

  Integrating Hamiltonian matrix: batch-based integration.
  Time summed over all CPUs for integration: real work        0.719 s, elapsed        0.756 s

  Updating Kohn-Sham eigenvalues and eigenvectors using ELSI and the ELPA eigensolver.
  Starting ELPA eigensolver
  Finished transformation to standard eigenproblem
  | Time :     0.005 s
  Finished solving standard eigenproblem
  | Time :     0.013 s
  Finished back-transformation of eigenvectors
  | Time :     0.002 s

  Obtaining occupation numbers and chemical potential using ELSI.
  | Chemical potential (Fermi level):    -7.51728150 eV
  Writing Kohn-Sham eigenvalues.

  State    Occupation    Eigenvalue [Ha]    Eigenvalue [eV]
      1       2.00000         -55.670580        -1514.87354
      2       2.00000         -55.670577        -1514.87347
      3       2.00000         -55.627072        -1513.68964
      4       2.00000         -24.253867         -659.98130
      5       2.00000         -24.228703         -659.29656
      6       2.00000         -24.219868         -659.05615
      7       2.00000         -24.219864         -659.05603
      8       2.00000         -24.187781         -658.18302
      9       2.00000         -24.075492         -655.12746
     10       2.00000         -24.075489         -655.12740
     11       2.00000         -24.057524         -654.63853
     12       2.00000         -24.049572         -654.42216
     13       2.00000          -4.108534         -111.79889
     14       2.00000          -4.108414         -111.79562
     15       2.00000          -4.066521         -110.65565
     16       2.00000          -2.702255          -73.53210
     17       2.00000          -2.701312          -73.50643
     18       2.00000          -2.701305          -73.50624
     19       2.00000          -2.701115          -73.50109
     20       2.00000          -2.700566          -73.48615
     21       2.00000          -2.700430          -73.48243
     22       2.00000          -2.660643          -72.39978
     23       2.00000          -2.659403          -72.36604
     24       2.00000          -2.657386          -72.31115
     25       2.00000          -1.174932          -31.97154
     26       2.00000          -1.147931          -31.23678
     27       2.00000          -1.142227          -31.08158
     28       2.00000          -1.138416          -30.97787
     29       2.00000          -1.109462          -30.19000
     30       2.00000          -1.021830          -27.80540
     31       2.00000          -1.021604          -27.79925
     32       2.00000          -1.006398          -27.38548
     33       2.00000          -0.997650          -27.14745
     34       2.00000          -0.571172          -15.54237
     35       2.00000          -0.537378          -14.62281
     36       2.00000          -0.531308          -14.45762
     37       2.00000          -0.505422          -13.75322
     38       2.00000          -0.501961          -13.65906
     39       2.00000          -0.485377          -13.20777
     40       2.00000          -0.482897          -13.14030
     41       2.00000          -0.468424          -12.74648
     42       2.00000          -0.459972          -12.51646
     43       2.00000          -0.438644          -11.93610
     44       2.00000          -0.436985          -11.89096
     45       2.00000          -0.427746          -11.63956
     46       2.00000          -0.426755          -11.61261
     47       2.00000          -0.416343          -11.32927
     48       2.00000          -0.394533          -10.73578
     49       2.00000          -0.389650          -10.60290
     50       2.00000          -0.380088          -10.34271
     51       2.00000          -0.375599          -10.22058
     52       2.00000          -0.349924           -9.52191
     53       2.00000          -0.333363           -9.07127
     54       2.00000          -0.333246           -9.06808
     55       2.00000          -0.329232           -8.95887
     56       2.00000          -0.327376           -8.90836
     57       2.00000          -0.317765           -8.64681
     58       2.00000          -0.315799           -8.59333
     59       2.00000          -0.304963           -8.29846
     60       2.00000          -0.303252           -8.25191
     61       0.00000          -0.155569           -4.23326
     62       0.00000          -0.091071           -2.47816
     63       0.00000          -0.080857           -2.20023
     64       0.00000          -0.053774           -1.46326
     65       0.00000          -0.040902           -1.11300
     66       0.00000          -0.017386           -0.47311
     67       0.00000           0.015257            0.41516
     68       0.00000           0.024738            0.67315
     69       0.00000           0.035639            0.96978
     70       0.00000           0.064000            1.74153
     71       0.00000           0.091290            2.48411
     72       0.00000           0.104993            2.85699
     73       0.00000           0.145547            3.96053
     74       0.00000           0.151921            4.13398
     75       0.00000           0.156627            4.26203
     76       0.00000           0.166219            4.52306
     77       0.00000           0.176031            4.79006
     78       0.00000           0.200462            5.45486
     79       0.00000           0.210406            5.72543
     80       0.00000           0.210644            5.73192
     81       0.00000           0.217960            5.93099
     82       0.00000           0.221818            6.03599
     83       0.00000           0.223748            6.08848
     84       0.00000           0.227297            6.18507
     85       0.00000           0.242175            6.58990
     86       0.00000           0.253244            6.89113
     87       0.00000           0.253866            6.90803
     88       0.00000           0.265032            7.21189
     89       0.00000           0.271499            7.38785
     90       0.00000           0.292405            7.95674
     91       0.00000           0.319323            8.68923
     92       0.00000           0.327589            8.91416
     93       0.00000           0.362947            9.87628
     94       0.00000           0.363506            9.89150
     95       0.00000           0.371018           10.09591
     96       0.00000           0.380595           10.35651

  Highest occupied state (VBM) at     -8.25190806 eV
  | Occupation number:      2.00000000

  Lowest unoccupied state (CBM) at    -4.23325966 eV
  | Occupation number:      0.00000000

  Overall HOMO-LUMO gap:      4.01864840 eV.

  Total energy components:
  | Sum of eigenvalues            :        -883.41978613 Ha      -24039.07547525 eV
  | XC energy correction          :        -145.68686339 Ha       -3964.34125635 eV
  | XC potential correction       :         189.71279927 Ha        5162.34792564 eV
  | Free-atom electrostatic energy:        -781.17619387 Ha      -21256.88577366 eV
  | Hartree energy correction     :          -4.56944884 Ha        -124.34102929 eV
  | Entropy correction            :           0.00000000 Ha           0.00000000 eV
  | ---------------------------
  | Total energy                  :       -1625.13949295 Ha      -44222.29560890 eV
  | Total energy, T -> 0          :       -1625.13949295 Ha      -44222.29560890 eV  <-- do not rely on this value for anything but (periodic) metals
  | Electronic free energy        :       -1625.13949295 Ha      -44222.29560890 eV

  Derived energy quantities:
  | Kinetic energy                :        1633.80135213 Ha       44457.99678941 eV
  | Electrostatic energy          :       -3113.25398169 Ha      -84715.95114197 eV
  | Energy correction for multipole
  | error in Hartree potential    :           0.03106581 Ha           0.84534376 eV
  | Sum of eigenvalues per atom                           :       -2003.25628960 eV
  | Total energy (T->0) per atom                          :       -3685.19130074 eV  <-- do not rely on this value for anything but (periodic) metals
  | Electronic free energy per atom                       :       -3685.19130074 eV
  Evaluating new KS density.
  Integration grid: deviation in total charge (<rho> - N_e) =   4.263256E-14

  Self-consistency convergence accuracy:
  | Change of charge density      :  0.5844E+00
  | Change of sum of eigenvalues  :  0.1191E+03 eV
  | Change of total energy        :  0.5574E+01 eV


------------------------------------------------------------
  End self-consistency iteration #     1       :  max(cpu_time)    wall_clock(cpu1)
  | Time for this iteration                     :        0.117 s           0.117 s
  | Charge density update                       :        0.030 s           0.030 s
  | Density mixing                              :        0.001 s           0.001 s
  | Hartree multipole update                    :        0.007 s           0.007 s
  | Hartree multipole summation                 :        0.019 s           0.019 s
  | Integration                                 :        0.036 s           0.036 s
  | Solution of K.-S. eqns.                     :        0.022 s           0.022 s
  | Total energy evaluation                     :        0.001 s           0.000 s

  Partial memory accounting:
  | Current value for overall tracked memory usage:
  |   Minimum:        0.273 MB (on task 23)
  |   Maximum:        0.292 MB (on task  0)
  |   Average:        0.287 MB
  | Peak value for overall tracked memory usage:
  |   Minimum:        1.332 MB (on task 20 after allocating wave)
  |   Maximum:        1.394 MB (on task  5 after allocating wave)
  |   Average:        1.364 MB
  | Largest tracked array allocation so far:
  |   Minimum:        0.718 MB (gradient_basis_wave on task  0)
  |   Maximum:        0.752 MB (gradient_basis_wave on task 15)
  |   Average:        0.732 MB
  Note:  These values currently only include a subset of arrays which are explicitly tracked.
  The "true" memory usage will be greater.
------------------------------------------------------------

------------------------------------------------------------
          Begin self-consistency iteration #    2

  Date     :  20220517, Time     :  122201.466
------------------------------------------------------------
  Pulay mixing of updated and previous charge densities.
  Renormalizing the density to the exact electron count on the 3D integration grid.
  | Formal number of electrons (from input files) :     120.0000000000
  | Integrated number of electrons on 3D grid     :     120.0000000000
  | Charge integration error                      :      -0.0000000000
  | Normalization factor for density and gradient :       1.0000000000

  Evaluating partitioned Hartree potential by multipole expansion.
  | Original multipole sum: apparent total charge =  -0.122681E-12
  | Sum of charges compensated after spline to logarithmic grids =   0.376471E-04
  | Analytical far-field extrapolation by fixed multipoles:
  | Hartree multipole sum: apparent total charge =  -0.122079E-12
  Summing up the Hartree potential.
  Time summed over all CPUs for potential: real work        0.381 s, elapsed        0.395 s
  | RMS charge density error from multipole expansion :   0.128963E-01

  Integrating Hamiltonian matrix: batch-based integration.
  Time summed over all CPUs for integration: real work        0.720 s, elapsed        0.759 s

  Updating Kohn-Sham eigenvalues and eigenvectors using ELSI and the ELPA eigensolver.
  Starting ELPA eigensolver
  Finished transformation to standard eigenproblem
  | Time :     0.007 s
  Finished solving standard eigenproblem
  | Time :     0.012 s
  Finished back-transformation of eigenvectors
  | Time :     0.003 s

  Obtaining occupation numbers and chemical potential using ELSI.
  | Chemical potential (Fermi level):    -7.70735139 eV
  Highest occupied state (VBM) at     -9.30410876 eV
  | Occupation number:      2.00000000

  Lowest unoccupied state (CBM) at    -4.42548044 eV
  | Occupation number:      0.00000000

  Overall HOMO-LUMO gap:      4.87862832 eV.

  Checking to see if s.c.f. parameters should be adjusted.

  Total energy components:
  | Sum of eigenvalues            :        -886.18054526 Ha      -24114.19955341 eV
  | XC energy correction          :        -145.22716890 Ha       -3951.83233282 eV
  | XC potential correction       :         189.10802775 Ha        5145.89125521 eV
  | Free-atom electrostatic energy:        -781.17619387 Ha      -21256.88577366 eV
  | Hartree energy correction     :          -1.60635098 Ha         -43.71103420 eV
  | Entropy correction            :           0.00000000 Ha           0.00000000 eV
  | ---------------------------
  | Total energy                  :       -1625.08223126 Ha      -44220.73743888 eV
  | Total energy, T -> 0          :       -1625.08223126 Ha      -44220.73743888 eV  <-- do not rely on this value for anything but (periodic) metals
  | Electronic free energy        :       -1625.08223126 Ha      -44220.73743888 eV

  Derived energy quantities:
  | Kinetic energy                :        1630.11239364 Ha       44357.61512168 eV
  | Electrostatic energy          :       -3109.96745600 Ha      -84626.52022774 eV
  | Energy correction for multipole
  | error in Hartree potential    :           0.03503787 Ha           0.95342900 eV
  | Sum of eigenvalues per atom                           :       -2009.51662945 eV
  | Total energy (T->0) per atom                          :       -3685.06145324 eV  <-- do not rely on this value for anything but (periodic) metals
  | Electronic free energy per atom                       :       -3685.06145324 eV
  Evaluating new KS density.
  Integration grid: deviation in total charge (<rho> - N_e) =   2.842171E-14

  Self-consistency convergence accuracy:
  | Change of charge density      :  0.4505E+00
  | Change of sum of eigenvalues  : -0.7512E+02 eV
  | Change of total energy        :  0.1558E+01 eV


------------------------------------------------------------
  End self-consistency iteration #     2       :  max(cpu_time)    wall_clock(cpu1)
  | Time for this iteration                     :        0.117 s           0.116 s
  | Charge density update                       :        0.031 s           0.031 s
  | Density mixing                              :        0.007 s           0.006 s
  | Hartree multipole update                    :        0.002 s           0.003 s
  | Hartree multipole summation                 :        0.018 s           0.017 s
  | Integration                                 :        0.033 s           0.034 s
  | Solution of K.-S. eqns.                     :        0.025 s           0.025 s
  | Total energy evaluation                     :        0.000 s           0.000 s

  Partial memory accounting:
  | Current value for overall tracked memory usage:
  |   Minimum:        0.274 MB (on task 23)
  |   Maximum:        0.293 MB (on task  0)
  |   Average:        0.288 MB
  | Peak value for overall tracked memory usage:
  |   Minimum:        1.332 MB (on task 20 after allocating wave)
  |   Maximum:        1.394 MB (on task  5 after allocating wave)
  |   Average:        1.364 MB
  | Largest tracked array allocation so far:
  |   Minimum:        0.718 MB (gradient_basis_wave on task  0)
  |   Maximum:        0.752 MB (gradient_basis_wave on task 15)
  |   Average:        0.732 MB
  Note:  These values currently only include a subset of arrays which are explicitly tracked.
  The "true" memory usage will be greater.
------------------------------------------------------------

------------------------------------------------------------
          Begin self-consistency iteration #    3

  Date     :  20220517, Time     :  122201.589
------------------------------------------------------------
  Pulay mixing of updated and previous charge densities.
  Renormalizing the density to the exact electron count on the 3D integration grid.
  | Formal number of electrons (from input files) :     120.0000000000
  | Integrated number of electrons on 3D grid     :     120.0000000000
  | Charge integration error                      :       0.0000000000
  | Normalization factor for density and gradient :       1.0000000000

  Evaluating partitioned Hartree potential by multipole expansion.
  | Original multipole sum: apparent total charge =  -0.130860E-13
  | Sum of charges compensated after spline to logarithmic grids =   0.439817E-04
  | Analytical far-field extrapolation by fixed multipoles:
  | Hartree multipole sum: apparent total charge =  -0.139223E-13
  Summing up the Hartree potential.
  Time summed over all CPUs for potential: real work        0.381 s, elapsed        0.412 s
  | RMS charge density error from multipole expansion :   0.172904E-01

  Integrating Hamiltonian matrix: batch-based integration.
  Time summed over all CPUs for integration: real work        0.721 s, elapsed        0.774 s

  Updating Kohn-Sham eigenvalues and eigenvectors using ELSI and the ELPA eigensolver.
  Starting ELPA eigensolver
  Finished transformation to standard eigenproblem
  | Time :     0.002 s
  Finished solving standard eigenproblem
  | Time :     0.018 s
  Finished back-transformation of eigenvectors
  | Time :     0.002 s

  Obtaining occupation numbers and chemical potential using ELSI.
  | Chemical potential (Fermi level):    -7.71232691 eV
  Highest occupied state (VBM) at     -8.99848868 eV
  | Occupation number:      2.00000000

  Lowest unoccupied state (CBM) at    -4.62265576 eV
  | Occupation number:      0.00000000

  Overall HOMO-LUMO gap:      4.37583293 eV.

  Total energy components:
  | Sum of eigenvalues            :        -887.11249293 Ha      -24139.55913991 eV
  | XC energy correction          :        -145.19227157 Ha       -3950.88272819 eV
  | XC potential correction       :         189.06099462 Ha        5144.61141865 eV
  | Free-atom electrostatic energy:        -781.17619387 Ha      -21256.88577366 eV
  | Hartree energy correction     :          -0.66156514 Ha         -18.00210329 eV
  | Entropy correction            :           0.00000000 Ha           0.00000000 eV
  | ---------------------------
  | Total energy                  :       -1625.08152889 Ha      -44220.71832640 eV
  | Total energy, T -> 0          :       -1625.08152889 Ha      -44220.71832640 eV  <-- do not rely on this value for anything but (periodic) metals
  | Electronic free energy        :       -1625.08152889 Ha      -44220.71832640 eV

  Derived energy quantities:
  | Kinetic energy                :        1628.49750782 Ha       44313.67184248 eV
  | Electrostatic energy          :       -3108.38676513 Ha      -84583.50744068 eV
  | Energy correction for multipole
  | error in Hartree potential    :           0.04716724 Ha           1.28348586 eV
  | Sum of eigenvalues per atom                           :       -2011.62992833 eV
  | Total energy (T->0) per atom                          :       -3685.05986053 eV  <-- do not rely on this value for anything but (periodic) metals
  | Electronic free energy per atom                       :       -3685.05986053 eV
  Evaluating new KS density.
  Integration grid: deviation in total charge (<rho> - N_e) =  -1.421085E-14

  Self-consistency convergence accuracy:
  | Change of charge density      :  0.1210E+00
  | Change of sum of eigenvalues  : -0.2536E+02 eV
  | Change of total energy        :  0.1911E-01 eV


------------------------------------------------------------
  End self-consistency iteration #     3       :  max(cpu_time)    wall_clock(cpu1)
  | Time for this iteration                     :        0.129 s           0.129 s
  | Charge density update                       :        0.029 s           0.030 s
  | Density mixing                              :        0.008 s           0.007 s
  | Hartree multipole update                    :        0.010 s           0.010 s
  | Hartree multipole summation                 :        0.021 s           0.021 s
  | Integration                                 :        0.036 s           0.036 s
  | Solution of K.-S. eqns.                     :        0.025 s           0.025 s
  | Total energy evaluation                     :        0.000 s           0.000 s

  Partial memory accounting:
  | Current value for overall tracked memory usage:
  |   Minimum:        0.274 MB (on task 23)
  |   Maximum:        0.293 MB (on task  0)
  |   Average:        0.288 MB
  | Peak value for overall tracked memory usage:
  |   Minimum:        1.332 MB (on task 20 after allocating wave)
  |   Maximum:        1.394 MB (on task  5 after allocating wave)
  |   Average:        1.364 MB
  | Largest tracked array allocation so far:
  |   Minimum:        0.718 MB (gradient_basis_wave on task  0)
  |   Maximum:        0.752 MB (gradient_basis_wave on task 15)
  |   Average:        0.732 MB
  Note:  These values currently only include a subset of arrays which are explicitly tracked.
  The "true" memory usage will be greater.
------------------------------------------------------------

------------------------------------------------------------
          Begin self-consistency iteration #    4

  Date     :  20220517, Time     :  122201.723
------------------------------------------------------------
  Pulay mixing of updated and previous charge densities.
  Renormalizing the density to the exact electron count on the 3D integration grid.
  | Formal number of electrons (from input files) :     120.0000000000
  | Integrated number of electrons on 3D grid     :     120.0000000000
  | Charge integration error                      :      -0.0000000000
  | Normalization factor for density and gradient :       1.0000000000

  Evaluating partitioned Hartree potential by multipole expansion.
  | Original multipole sum: apparent total charge =  -0.468587E-14
  | Sum of charges compensated after spline to logarithmic grids =   0.465087E-04
  | Analytical far-field extrapolation by fixed multipoles:
  | Hartree multipole sum: apparent total charge =  -0.544840E-14
  Summing up the Hartree potential.
  Time summed over all CPUs for potential: real work        0.381 s, elapsed        0.396 s
  | RMS charge density error from multipole expansion :   0.194338E-01

  Integrating Hamiltonian matrix: batch-based integration.
  Time summed over all CPUs for integration: real work        0.720 s, elapsed        0.756 s

  Updating Kohn-Sham eigenvalues and eigenvectors using ELSI and the ELPA eigensolver.
  Starting ELPA eigensolver
  Finished transformation to standard eigenproblem
  | Time :     0.004 s
  Finished solving standard eigenproblem
  | Time :     0.017 s
  Finished back-transformation of eigenvectors
  | Time :     0.003 s

  Obtaining occupation numbers and chemical potential using ELSI.
  | Chemical potential (Fermi level):    -7.68512955 eV
  Highest occupied state (VBM) at     -9.01437582 eV
  | Occupation number:      2.00000000

  Lowest unoccupied state (CBM) at    -4.59193960 eV
  | Occupation number:      0.00000000

  Overall HOMO-LUMO gap:      4.42243622 eV.

  Total energy components:
  | Sum of eigenvalues            :        -887.23990168 Ha      -24143.02610847 eV
  | XC energy correction          :        -145.17700238 Ha       -3950.46723226 eV
  | XC potential correction       :         189.04024741 Ha        5144.04685824 eV
  | Free-atom electrostatic energy:        -781.17619387 Ha      -21256.88577366 eV
  | Hartree energy correction     :          -0.52663017 Ha         -14.33033612 eV
  | Entropy correction            :           0.00000000 Ha           0.00000000 eV
  | ---------------------------
  | Total energy                  :       -1625.07948070 Ha      -44220.66259227 eV
  | Total energy, T -> 0          :       -1625.07948070 Ha      -44220.66259227 eV  <-- do not rely on this value for anything but (periodic) metals
  | Electronic free energy        :       -1625.07948070 Ha      -44220.66259227 eV

  Derived energy quantities:
  | Kinetic energy                :        1627.81853323 Ha       44295.19600405 eV
  | Electrostatic energy          :       -3107.72101155 Ha      -84565.39136406 eV
  | Energy correction for multipole
  | error in Hartree potential    :           0.05245743 Ha           1.42743924 eV
  | Sum of eigenvalues per atom                           :       -2011.91884237 eV
  | Total energy (T->0) per atom                          :       -3685.05521602 eV  <-- do not rely on this value for anything but (periodic) metals
  | Electronic free energy per atom                       :       -3685.05521602 eV
  Evaluating new KS density.
  Integration grid: deviation in total charge (<rho> - N_e) =  -4.263256E-14

  Self-consistency convergence accuracy:
  | Change of charge density      :  0.8166E-01
  | Change of sum of eigenvalues  : -0.3467E+01 eV
  | Change of total energy        :  0.5573E-01 eV


------------------------------------------------------------
  End self-consistency iteration #     4       :  max(cpu_time)    wall_clock(cpu1)
  | Time for this iteration                     :        0.123 s           0.126 s
  | Charge density update                       :        0.029 s           0.029 s
  | Density mixing                              :        0.010 s           0.012 s
  | Hartree multipole update                    :        0.002 s           0.002 s
  | Hartree multipole summation                 :        0.020 s           0.020 s
  | Integration                                 :        0.035 s           0.035 s
  | Solution of K.-S. eqns.                     :        0.026 s           0.028 s
  | Total energy evaluation                     :        0.000 s           0.000 s

  Partial memory accounting:
  | Current value for overall tracked memory usage:
  |   Minimum:        0.274 MB (on task 23)
  |   Maximum:        0.293 MB (on task  0)
  |   Average:        0.288 MB
  | Peak value for overall tracked memory usage:
  |   Minimum:        1.332 MB (on task 20 after allocating wave)
  |   Maximum:        1.394 MB (on task  5 after allocating wave)
  |   Average:        1.364 MB
  | Largest tracked array allocation so far:
  |   Minimum:        0.718 MB (gradient_basis_wave on task  0)
  |   Maximum:        0.752 MB (gradient_basis_wave on task 15)
  |   Average:        0.732 MB
  Note:  These values currently only include a subset of arrays which are explicitly tracked.
  The "true" memory usage will be greater.
------------------------------------------------------------

------------------------------------------------------------
          Begin self-consistency iteration #    5

  Date     :  20220517, Time     :  122201.860
------------------------------------------------------------
  Pulay mixing of updated and previous charge densities.
  Renormalizing the density to the exact electron count on the 3D integration grid.
  | Formal number of electrons (from input files) :     120.0000000000
  | Integrated number of electrons on 3D grid     :     120.0000000000
  | Charge integration error                      :      -0.0000000000
  | Normalization factor for density and gradient :       1.0000000000

  Evaluating partitioned Hartree potential by multipole expansion.
  | Original multipole sum: apparent total charge =  -0.489126E-13
  | Sum of charges compensated after spline to logarithmic grids =   0.473057E-04
  | Analytical far-field extrapolation by fixed multipoles:
  | Hartree multipole sum: apparent total charge =  -0.501548E-13
  Summing up the Hartree potential.
  Time summed over all CPUs for potential: real work        0.381 s, elapsed        0.396 s
  | RMS charge density error from multipole expansion :   0.192767E-01

  Integrating Hamiltonian matrix: batch-based integration.
  Time summed over all CPUs for integration: real work        0.720 s, elapsed        0.756 s

  Updating Kohn-Sham eigenvalues and eigenvectors using ELSI and the ELPA eigensolver.
  Starting ELPA eigensolver
  Finished transformation to standard eigenproblem
  | Time :     0.005 s
  Finished solving standard eigenproblem
  | Time :     0.018 s
  Finished back-transformation of eigenvectors
  | Time :     0.002 s

  Obtaining occupation numbers and chemical potential using ELSI.
  | Chemical potential (Fermi level):    -7.67727460 eV
  Highest occupied state (VBM) at     -9.08191104 eV
  | Occupation number:      2.00000000

  Lowest unoccupied state (CBM) at    -4.54023773 eV
  | Occupation number:      0.00000000

  Overall HOMO-LUMO gap:      4.54167331 eV.

  Total energy components:
  | Sum of eigenvalues            :        -887.06341894 Ha      -24138.22376859 eV
  | XC energy correction          :        -145.17494949 Ha       -3950.41137027 eV
  | XC potential correction       :         189.03769538 Ha        5143.97741406 eV
  | Free-atom electrostatic energy:        -781.17619387 Ha      -21256.88577366 eV
  | Hartree energy correction     :          -0.70249408 Ha         -19.11583659 eV
  | Entropy correction            :           0.00000000 Ha           0.00000000 eV
[...]
   Total forces(   7)            :  0.762299E+00 -0.780143E+00 -0.116761E+01
  atom #    8
   Hellmann-Feynman              : -0.208955E+01 -0.159735E+01  0.219241E+01
   Ionic forces                  :  0.000000E+00  0.000000E+00  0.000000E+00
   Multipole                     : -0.533997E+00 -0.398335E+00  0.566146E+00
   Hartree pot. SCF incomplete   : -0.233710E-05 -0.118985E-05  0.241412E-05
   Pulay + GGA                   :  0.474529E+01  0.347468E+01 -0.498784E+01
   ----------------------------------------------------------------
   Total forces(   8)            :  0.212174E+01  0.147898E+01 -0.222927E+01
  atom #    9
   Hellmann-Feynman              :  0.220454E+01 -0.724054E+00 -0.251637E+01
   Ionic forces                  :  0.000000E+00  0.000000E+00  0.000000E+00
   Multipole                     :  0.567475E+00 -0.174242E+00 -0.642593E+00
   Hartree pot. SCF incomplete   :  0.232362E-05 -0.240010E-06 -0.269817E-05
   Pulay + GGA                   : -0.498775E+01  0.149551E+01  0.568783E+01
   ----------------------------------------------------------------
   Total forces(   9)            : -0.221573E+01  0.597209E+00  0.252887E+01
  atom #   10
   Hellmann-Feynman              :  0.902465E+00  0.391376E+00 -0.472640E+00
   Ionic forces                  :  0.000000E+00  0.000000E+00  0.000000E+00
   Multipole                     :  0.786199E-01  0.147820E+00 -0.890428E-01
   Hartree pot. SCF incomplete   :  0.425325E-05  0.725525E-05 -0.261259E-05
   Pulay + GGA                   : -0.189699E+01 -0.166084E+01  0.123646E+01
   ----------------------------------------------------------------
   Total forces(  10)            : -0.915902E+00 -0.112164E+01  0.674770E+00
  atom #   11
   Hellmann-Feynman              :  0.907496E+00  0.879903E+00  0.987942E+00
   Ionic forces                  :  0.000000E+00  0.000000E+00  0.000000E+00
   Multipole                     : -0.388069E+00  0.226325E+00 -0.311670E+00
   Hartree pot. SCF incomplete   : -0.524259E-05  0.149884E-05 -0.449485E-05
   Pulay + GGA                   :  0.111325E+01 -0.178943E+01  0.684333E+00
   ----------------------------------------------------------------
   Total forces(  11)            :  0.163267E+01 -0.683198E+00  0.136060E+01
  atom #   12
   Hellmann-Feynman              : -0.956721E-01  0.105605E+01  0.107909E+00
   Ionic forces                  :  0.000000E+00  0.000000E+00  0.000000E+00
   Multipole                     :  0.428953E+00  0.811544E-01  0.405522E+00
   Hartree pot. SCF incomplete   :  0.483106E-05  0.212902E-05  0.479462E-05
   Pulay + GGA                   : -0.209838E+01 -0.145043E+01 -0.217963E+01
   ----------------------------------------------------------------
   Total forces(  12)            : -0.176509E+01 -0.313219E+00 -0.166619E+01


  Self-consistency convergence accuracy:
  | Change of charge density      :  0.1721E-06
  | Change of sum of eigenvalues  :  0.1525E-05 eV
  | Change of total energy        :  0.1708E-08 eV
  | Change of forces              :  0.4449E-06 eV/A

  Writing Kohn-Sham eigenvalues.

  State    Occupation    Eigenvalue [Ha]    Eigenvalue [eV]
      1       2.00000         -55.656104        -1514.47964
      2       2.00000         -55.656096        -1514.47944
      3       2.00000         -55.601865        -1513.00373
      4       2.00000         -24.318744         -661.74670
      5       2.00000         -24.308331         -661.46335
      6       2.00000         -24.291856         -661.01504
      7       2.00000         -24.291852         -661.01494
      8       2.00000         -24.282469         -660.75960
      9       2.00000         -24.222453         -659.12647
     10       2.00000         -24.222452         -659.12645
     11       2.00000         -24.188916         -658.21389
     12       2.00000         -24.182021         -658.02627
     13       2.00000          -4.107040         -111.75825
     14       2.00000          -4.106921         -111.75501
     15       2.00000          -4.054727         -110.33474
     16       2.00000          -2.700561          -73.48599
     17       2.00000          -2.700447          -73.48291
     18       2.00000          -2.698225          -73.42245
     19       2.00000          -2.697789          -73.41057
     20       2.00000          -2.697648          -73.40675
     21       2.00000          -2.696932          -73.38726
     22       2.00000          -2.648290          -72.06364
     23       2.00000          -2.647451          -72.04081
     24       2.00000          -2.642904          -71.91708
     25       2.00000          -1.191705          -32.42794
     26       2.00000          -1.169221          -31.81612
     27       2.00000          -1.161022          -31.59301
     28       2.00000          -1.158374          -31.52095
     29       2.00000          -1.137588          -30.95535
     30       2.00000          -1.068912          -29.08658
     31       2.00000          -1.068711          -29.08110
     32       2.00000          -1.037899          -28.24266
     33       2.00000          -1.028885          -27.99739
     34       2.00000          -0.585789          -15.94013
     35       2.00000          -0.553782          -15.06918
     36       2.00000          -0.545320          -14.83891
     37       2.00000          -0.523021          -14.23213
     38       2.00000          -0.520019          -14.15043
     39       2.00000          -0.505674          -13.76010
     40       2.00000          -0.502545          -13.67496
     41       2.00000          -0.487239          -13.25844
     42       2.00000          -0.485216          -13.20339
     43       2.00000          -0.461433          -12.55622
     44       2.00000          -0.459522          -12.50424
     45       2.00000          -0.448249          -12.19749
     46       2.00000          -0.445562          -12.12437
     47       2.00000          -0.441394          -12.01093
     48       2.00000          -0.429825          -11.69613
     49       2.00000          -0.423455          -11.52279
     50       2.00000          -0.420980          -11.45546
     51       2.00000          -0.403282          -10.97386
     52       2.00000          -0.380433          -10.35210
     53       2.00000          -0.376899          -10.25594
     54       2.00000          -0.376476          -10.24442
     55       2.00000          -0.371701          -10.11450
     56       2.00000          -0.370376          -10.07845
     57       2.00000          -0.345416           -9.39924
     58       2.00000          -0.344584           -9.37661
     59       2.00000          -0.333864           -9.08490
     60       2.00000          -0.332969           -9.06055
     61       0.00000          -0.166818           -4.53935
     62       0.00000          -0.103936           -2.82825
     63       0.00000          -0.088038           -2.39563
     64       0.00000          -0.058744           -1.59851
     65       0.00000          -0.044187           -1.20238
     66       0.00000          -0.022442           -0.61067
     67       0.00000           0.015256            0.41513
     68       0.00000           0.022523            0.61288
     69       0.00000           0.030647            0.83394
     70       0.00000           0.063140            1.71812
     71       0.00000           0.087057            2.36894
     72       0.00000           0.101558            2.76352
     73       0.00000           0.138471            3.76800
     74       0.00000           0.147376            4.01032
     75       0.00000           0.156052            4.24638
     76       0.00000           0.158317            4.30802
     77       0.00000           0.173669            4.72577
     78       0.00000           0.196431            5.34515
     79       0.00000           0.208215            5.66582
     80       0.00000           0.208391            5.67061
     81       0.00000           0.214801            5.84503
     82       0.00000           0.215122            5.85376
     83       0.00000           0.222273            6.04837
     84       0.00000           0.222642            6.05839
     85       0.00000           0.236875            6.44569
     86       0.00000           0.246657            6.71188
     87       0.00000           0.249634            6.79289
     88       0.00000           0.257498            7.00688
     89       0.00000           0.266246            7.24493
     90       0.00000           0.291703            7.93764
     91       0.00000           0.305872            8.32321
     92       0.00000           0.326387            8.88144
     93       0.00000           0.358022            9.74228
     94       0.00000           0.358255            9.74862
     95       0.00000           0.363798            9.89945
     96       0.00000           0.374592           10.19316

  Highest occupied state (VBM) at     -9.06055311 eV
  | Occupation number:      2.00000000

  Lowest unoccupied state (CBM) at    -4.53935369 eV
  | Occupation number:      0.00000000

  Overall HOMO-LUMO gap:      4.52119941 eV.
  | Chemical Potential                          :    -7.67409823 eV

  Self-consistency cycle converged.


------------------------------------------------------------
  End self-consistency iteration #    14       :  max(cpu_time)    wall_clock(cpu1)
  | Time for this iteration                     :        0.275 s           0.274 s
  | Charge density & force component update     :        0.151 s           0.151 s
  | Density mixing                              :        0.005 s           0.004 s
  | Hartree multipole update                    :        0.001 s           0.001 s
  | Hartree multipole summation                 :        0.049 s           0.049 s
  | Hartree pot. SCF incomplete forces          :        0.031 s           0.031 s
  | Integration                                 :        0.032 s           0.032 s
  | Solution of K.-S. eqns.                     :        0.004 s           0.005 s
  | Total energy evaluation                     :        0.000 s           0.000 s

  Partial memory accounting:
  | Current value for overall tracked memory usage:
  |   Minimum:        0.274 MB (on task 23)
  |   Maximum:        0.293 MB (on task  0)
  |   Average:        0.289 MB
  | Peak value for overall tracked memory usage:
  |   Minimum:        2.932 MB (on task 20 after allocating hessian_basis_wave)
  |   Maximum:        3.053 MB (on task 15 after allocating hessian_basis_wave)
  |   Average:        2.990 MB
  | Largest tracked array allocation so far:
  |   Minimum:        1.435 MB (hessian_basis_wave on task  0)
  |   Maximum:        1.505 MB (hessian_basis_wave on task 15)
  |   Average:        1.464 MB
  Note:  These values currently only include a subset of arrays which are explicitly tracked.
  The "true" memory usage will be greater.
------------------------------------------------------------
  Removing unitary transformations (pure translations, rotations) from forces on atoms.
  Atomic forces before filtering:
  | Net force on center of mass :   0.351020E-02  0.145626E-03 -0.298013E-03 eV/A
  | Net torque on center of mass:   0.438067E-02  0.260688E-02 -0.147370E-01 eV
  Atomic forces after filtering:
  | Net force on center of mass :   0.356812E-15 -0.312211E-15 -0.356812E-15 eV/A
  | Net torque on center of mass:   0.240742E-14  0.755268E-15 -0.377634E-15 eV

  Energy and forces in a compact form:
  | Total energy uncorrected      :         -0.442206591104155E+05 eV
  | Total energy corrected        :         -0.442206591104155E+05 eV  <-- do not rely on this value for anything but (periodic) metals
  | Electronic free energy        :         -0.442206591104155E+05 eV
  Total atomic forces (unitary forces cleaned) [eV/Ang]:
  |    1         -0.488778069712181E+00          0.334054092050363E+01          0.172288913701960E+00
  |    2          0.230348504037004E+01         -0.591860056716605E+00         -0.245237831287347E+01
  |    3         -0.203908967790794E+01         -0.147574395617914E+01          0.231194227049879E+01
  |    4         -0.168105554692067E+01         -0.179585319214444E+01         -0.186596710000943E+01
  |    5          0.219118715043178E+01         -0.932018513902066E+00          0.182400127486712E+01
  |    6          0.952303098259835E-01          0.227676991842764E+01          0.508406481971202E+00
  |    7          0.761701067588341E+00         -0.780297525014043E+00         -0.116774296033057E+01
  |    8          0.212196588506373E+01          0.147866670502057E+01         -0.222909213536114E+01
  |    9         -0.221547302384020E+01          0.597565722512141E+00          0.252920770216070E+01
  |   10         -0.916481489832967E+00         -0.112141339004523E+01          0.674721227308797E+00
  |   11          0.163254366508675E+01         -0.683647831638669E+00          0.136060452602697E+01
  |   12         -0.176523531015266E+01         -0.312708800823780E+00         -0.166599188796094E+01

  ------------------------------------ 
  Start decomposition of the XC Energy 
  ------------------------------------ 
  X and C from original XC functional choice 
  Hartree-Fock Energy :          0.000000000 Ha              0.000000000 eV
  X Energy            :       -140.217846655 Ha          -3815.521739082 eV
  C Energy            :         -4.960349886 Ha           -134.977988000 eV
  Total XC Energy     :       -145.178196541 Ha          -3950.499727083 eV
  ------------------------------------ 
  LDA X and C from self-consistent density 
  X Energy LDA        :       -132.810096610 Ha          -3613.946604324 eV
  C Energy LDA        :         -8.829111680 Ha           -240.252352717 eV
  ------------------------------------ 
  End decomposition of the XC Energy 
  ------------------------------------ 

------------------------------------------------------------

------------------------------------------------------------------------------
  Final output of selected total energy values:

  The following output summarizes some interesting total energy values
  at the end of a run (AFTER all relaxation, molecular dynamics, etc.).

  | Total energy of the DFT / Hartree-Fock s.c.f. calculation      :         -44220.659110416 eV
  | Final zero-broadening corrected energy (caution - metals only) :         -44220.659110416 eV
  | For reference only, the value of 1 Hartree used in FHI-aims is :             27.211384500 eV

  Before relying on these values, please be sure to understand exactly which
  total energy value is referred to by a given number. Different objects may
  all carry the same name 'total energy'. Definitions:

  Total energy of the DFT / Hartree-Fock s.c.f. calculation:
  | Note that this energy does not include ANY quantities calculated after the
  | s.c.f. cycle, in particular not ANY RPA, MP2, etc. many-body perturbation terms.

  Final zero-broadening corrected energy:
  | For metallic systems only, a broadening of the occupation numbers at the Fermi
  | level can be extrapolated back to zero broadening by an electron-gas inspired
  | formula. For all systems that are not real metals, this value can be
  | meaningless and should be avoided.

------------------------------------------------------------------------------
  Methods described in the following list of references were used in this FHI-aims run.
  If you publish the results, please make sure to cite these reference if they apply.
  FHI-aims is an academic code, and for our developers (often, Ph.D. students
  and postdocs), scientific credit in the community is essential.
  Thank you for helping us!

  For any use of FHI-aims, please cite:

    Volker Blum, Ralf Gehrke, Felix Hanke, Paula Havu, Ville Havu,
    Xinguo Ren, Karsten Reuter, and Matthias Scheffler
    'Ab initio molecular simulations with numeric atom-centered orbitals'
    Computer Physics Communications 180, 2175-2196 (2009)
    http://dx.doi.org/10.1016/j.cpc.2009.06.022


  The ELSI infrastructure was used in your run to solve the Kohn-Sham electronic structure.
  Please check out http://elsi-interchange.org to learn more.
  If scalability is important for your project, please acknowledge ELSI by citing:

    V. W-z. Yu, F. Corsetti, A. Garcia, W. P. Huhn, M. Jacquelin, W. Jia,
    B. Lange, L. Lin, J. Lu, W. Mi, A. Seifitokaldani, A. Vazquez-Mayagoitia,
    C. Yang, H. Yang, and V. Blum
    'ELSI: A unified software interface for Kohn-Sham electronic structure solvers'
    Computer Physics Communications 222, 267-285 (2018).
    http://dx.doi.org/10.1016/j.cpc.2017.09.007


  For the real-space grid partitioning and parallelization used in this calculation, please cite:

    Ville Havu, Volker Blum, Paula Havu, and Matthias Scheffler,
    'Efficient O(N) integration for all-electron electronic structure calculation'
    'using numerically tabulated basis functions'
    Journal of Computational Physics 228, 8367-8379 (2009).
    http://dx.doi.org/10.1016/j.jcp.2009.08.008

  Of course, there are many other important community references, e.g., those cited in the
  above references. Our list is limited to references that describe implementations in the
  FHI-aims code. The reason is purely practical (length of this list) - please credit others as well.

------------------------------------------------------------
          Leaving FHI-aims.
          Date     :  20220517, Time     :  122203.380

          Computational steps:
          | Number of self-consistency cycles          :           14
          | Number of SCF (re)initializations          :            1

          Detailed time accounting                     :  max(cpu_time)    wall_clock(cpu1)
          | Total time                                  :        2.398 s           2.478 s
          | Preparation time                            :        0.184 s           0.184 s
          | Boundary condition initalization            :        0.000 s           0.000 s
          | Grid partitioning                           :        0.045 s           0.045 s
          | Preloading free-atom quantities on grid     :        0.016 s           0.016 s
          | Free-atom superposition energy              :        0.006 s           0.007 s
          | Total time for integrations                 :        0.550 s           0.552 s
          | Total time for solution of K.-S. equations  :        0.263 s           0.277 s
          | Total time for density & force components   :        0.704 s           0.707 s
          | Total time for mixing                       :        0.101 s           0.072 s
          | Total time for Hartree multipole update     :        0.044 s           0.046 s
          | Total time for Hartree multipole sum        :        0.347 s           0.345 s
          | Total time for total energy evaluation      :        0.005 s           0.004 s
          | Total time NSC force correction             :        0.062 s           0.062 s
          | Total time for scaled ZORA corrections      :        0.000 s           0.000 s

          Partial memory accounting:
          | Residual value for overall tracked memory usage across tasks:     0.000000 MB (should be 0.000000 MB)
          | Peak values for overall tracked memory usage:
          |   Minimum:        2.932 MB (on task 20 after allocating hessian_basis_wave)
          |   Maximum:        3.053 MB (on task 15 after allocating hessian_basis_wave)
          |   Average:        2.990 MB
          | Largest tracked array allocation:
          |   Minimum:        1.435 MB (hessian_basis_wave on task  0)
          |   Maximum:        1.505 MB (hessian_basis_wave on task 15)
          |   Average:        1.464 MB
          Note:  These values currently only include a subset of arrays which are explicitly tracked.
          The "true" memory usage will be greater.

          Have a nice day.
------------------------------------------------------------
