********************************************************************************
*                       GENERAL UTILITY LATTICE PROGRAM                        *
*                                 Julian Gale                                  *
*                       Curtin Institute for Computation                       *
*                           Department of Chemistry                            *
*                    Curtin University, Western Australia                      *
********************************************************************************
* Version = 5.1.1 * Last modified =  24th November 2018                        *
********************************************************************************
*  optimise     - perform optimisation run                                     *
*  conp         - constant pressure calculation                                *
*  shell        - only shells and radii to be optimised                        *
*  phonon       - calculate phonons for final geometry                         *
*  eigenvectors - output phonon eigenvectors                                   *
********************************************************************************

  Job Started  at 14:39.10 25th May        2022                               

  Number of CPUs =     1

  Host name      = login03                                 


  Total number of configurations input =      1

********************************************************************************
*  Input for Configuration =   1                                               *
********************************************************************************

  Formula = Al3F9                                                       

  Number of irreducible atoms/shells =      21


  Total number atoms/shells =      21

  Dimensionality = 0               :  Cluster


  Charge on cluster =  -0.000000


  Initial cluster dipoles : x =      1.385668 e.Angs
                            y =      0.306080 e.Angs
                            z =      0.346581 e.Angs

  Temperature of configuration =  0.000     K 

  Symmetry number =      1

  Cartesian coordinates of cluster :

--------------------------------------------------------------------------------
   No.  Atomic       x           y          z         Charge      Occupancy
        Label      (Angs)      (Angs)     (Angs)        (e)         (Frac)  
--------------------------------------------------------------------------------
      1 Al    c     -0.2545      1.0583     -1.7500     3.00000    1.000000    
      2 Al    c     -0.4313      1.0781      1.2915     3.00000    1.000000    
      3 Al    c     -2.8777      0.4905     -1.7976     3.00000    1.000000    
      4 F     c     -3.5740      0.3031     -3.7313     0.59000    1.000000    
      5 F     c     -1.4361     -0.5800     -1.8462     0.59000    1.000000    
      6 F     c     -2.0062      2.0580     -1.8965     0.59000    1.000000    
      7 F     c     -2.0560      0.7108      0.4456     0.59000    1.000000    
      8 F     c      0.5530      1.2588     -0.3860     0.59000    1.000000    
      9 F     c     -0.3035      2.7283      1.9876     0.59000    1.000000    
     10 F     c      0.3608     -0.3457      2.0463     0.59000    1.000000    
     11 F     c     -4.3430      0.1982     -0.5183     0.59000    1.000000    
     12 F     c      0.7288      1.2428     -3.2161     0.59000    1.000000    
     13 F     s     -3.5740 *    0.3031 *   -3.7313 *  -1.59000    1.000000    
     14 F     s     -1.4361 *   -0.5800 *   -1.8462 *  -1.59000    1.000000    
     15 F     s     -2.0062 *    2.0580 *   -1.8965 *  -1.59000    1.000000    
     16 F     s     -2.0560 *    0.7108 *    0.4456 *  -1.59000    1.000000    
     17 F     s      0.5530 *    1.2588 *   -0.3860 *  -1.59000    1.000000    
     18 F     s     -0.3035 *    2.7283 *    1.9876 *  -1.59000    1.000000    
     19 F     s      0.3608 *   -0.3457 *    2.0463 *  -1.59000    1.000000    
     20 F     s     -4.3430 *    0.1982 *   -0.5183 *  -1.59000    1.000000    
     21 F     s      0.7288 *    1.2428 *   -3.2161 *  -1.59000    1.000000    
--------------------------------------------------------------------------------


  Brillouin zone sampling points :

--------------------------------------------------------------------------------
  Point number          x          y          z            Weight
--------------------------------------------------------------------------------
        1           0.000000   0.000000   0.000000     1.00000000
--------------------------------------------------------------------------------


********************************************************************************
*  General input information                                                   *
********************************************************************************

  Species output for all configurations : 

--------------------------------------------------------------------------------
  Species    Type    Atomic    Atomic    Charge       Radii (Angs)     Library
                     Number     Mass       (e)     Cova   Ionic  VDW   Symbol
--------------------------------------------------------------------------------
    Al       Core       13      26.98   3.000000   1.350  0.000  2.050          
    F        Core        9      19.00   0.590000   0.710  0.000  1.300          
    F        Shell       9       0.00  -1.590000   0.710  0.000  1.300          
--------------------------------------------------------------------------------


  Accuracy factor for short range sums = 12.000

  Time limit = Infinity

  Maximum range for interatomic potentials =    100000.000000 Angstroms

  General interatomic potentials :

--------------------------------------------------------------------------------
Atom  Types   Potential      Parameter       Value         Units   Cutoffs(Ang)
  1     2                                                            Min /  Max 
--------------------------------------------------------------------------------
Al   c F    s Buckingham    Buckingham A     3760.0008    eV        0.000 10.000
                            Buckingham rho  0.22200000    Ang       
                            Buckingham C     0.0000000    eV*Ang^6  
--------------------------------------------------------------------------------
F    s F    s Buck 4 range  Buck4 A          1127.7000    eV        0.000 12.000
                            Buck4 rho       0.27530000    Ang       
                            Buck4 C          15.830000    eV*Ang^6  
                            Buck4 minimum    2.7900000    Ang       
--------------------------------------------------------------------------------
F    c F    s Spring (c-s)  Spring k 2       20.770000    eV*Ang^-2 0.000  0.800
                            Spring k 4       0.0000000    eV*Ang^-4 
--------------------------------------------------------------------------------

********************************************************************************
*  Output for configuration   1                                                *
********************************************************************************


  Components of energy : 

--------------------------------------------------------------------------------
  Interatomic potentials     =          11.52426616 eV    
  Monopole - monopole (real) =        -177.76011489 eV    
--------------------------------------------------------------------------------
  Total lattice energy       =        -166.23584873 eV    
--------------------------------------------------------------------------------
  Total lattice energy       =          -16039.2183 kJ/mol
--------------------------------------------------------------------------------


  Number of variables =       27

  Maximum number of calculations  =          2000
  Maximum Hessian update interval =            10
  Maximum step size               =   1.000000000
  Maximum parameter tolerance     =   0.000001000
  Maximum function  tolerance     =   0.000010000
  Maximum gradient  tolerance     =   0.000000010
  Maximum gradient  component     =   0.010000000

  Symmetry not applied to optimisation

  Newton-Raphson optimiser to be used

  BFGS hessian update to be used

  Lower half triangular hessian to be used

  Minimiser to switch to RFO
  When gradient norm is less than     0.010000

  Shell only optimisation

  Start of cluster optimisation :

  Cycle:      0 Energy:      -166.235849  Gnorm:      1.401086  CPU:    0.004
  ** Hessian calculated **
  Cycle:      1 Energy:      -183.345663  Gnorm:      0.460237  CPU:    0.005
  ** Hessian calculated **
  Cycle:      2 Energy:      -184.744123  Gnorm:      0.019985  CPU:    0.008
  Cycle:      3 Energy:      -184.747745  Gnorm:      0.004008  CPU:    0.009
  ** Hessian has required structure
  Cycle:      4 Energy:      -184.747764  Gnorm:      0.003726  CPU:    0.011
  ** Hessian has required structure
  Cycle:      5 Energy:      -184.747768  Gnorm:      0.003664  CPU:    0.012
  ** Hessian has required structure
  Cycle:      6 Energy:      -184.747769  Gnorm:      0.003621  CPU:    0.014
  ** Hessian has required structure
  Cycle:      7 Energy:      -184.747770  Gnorm:      0.003592  CPU:    0.015
  ** Hessian has required structure
  Cycle:      8 Energy:      -184.747770  Gnorm:      0.003579  CPU:    0.016
  ** Hessian has required structure
  Cycle:      9 Energy:      -184.747771  Gnorm:      0.003549  CPU:    0.018
  ** Hessian has required structure
  Cycle:     10 Energy:      -184.747779  Gnorm:      0.003550  CPU:    0.019
  ** Hessian has required structure
  Cycle:     11 Energy:      -184.747828  Gnorm:      0.002496  CPU:    0.021
  ** Hessian has required structure
  Cycle:     12 Energy:      -184.747893  Gnorm:      0.000002  CPU:    0.023
  ** Hessian has required structure
  Cycle:     13 Energy:      -184.747893  Gnorm:      0.000000  CPU:    0.024
  ** Hessian has required structure
  Cycle:     14 Energy:      -184.747893  Gnorm:      0.000000  CPU:    0.025
  ** Hessian has required structure
  Cycle:     15 Energy:      -184.747893  Gnorm:      0.000000  CPU:    0.027
  ** Hessian calculated **
  Cycle:     16 Energy:      -184.747893  Gnorm:      0.000000  CPU:    0.029
  ** Hessian has required structure
  Cycle:     17 Energy:      -184.747893  Gnorm:      0.000000  CPU:    0.031
  ** Hessian has required structure
  Cycle:     18 Energy:      -184.747893  Gnorm:      0.000000  CPU:    0.032
  ** Hessian calculated **
  Cycle:     19 Energy:      -184.747893  Gnorm:      0.000000  CPU:    0.034
  ** Hessian has required structure
  Cycle:     20 Energy:      -184.747893  Gnorm:      0.000000  CPU:    0.036
  ** Hessian has required structure
  Cycle:     21 Energy:      -184.747893  Gnorm:      0.000000  CPU:    0.037
  ** Hessian calculated **

  XYZ File written as 003/5/sp_mod_-30/sp_mod_-30_eig.xyz



  **** Optimisation achieved ****


  Final energy =    -184.74789261 eV
  Final Gnorm  =       0.00000001

  Components of energy : 

--------------------------------------------------------------------------------
  Interatomic potentials     =          39.46046339 eV    
  Monopole - monopole (real) =        -224.20835599 eV    
--------------------------------------------------------------------------------
  Total lattice energy       =        -184.74789261 eV    
--------------------------------------------------------------------------------
  Total lattice energy       =          -17825.3475 kJ/mol
--------------------------------------------------------------------------------

  Final cartesian coordinates of atoms :

--------------------------------------------------------------------------------
   No.  Atomic        x           y          z          Radius
        Label       (Angs)      (Angs)     (Angs)       (Angs) 
--------------------------------------------------------------------------------
     1  Al    c    -0.254499    1.058288   -1.749999    0.000000
     2  Al    c    -0.431344    1.078076    1.291467    0.000000
     3  Al    c    -2.877728    0.490452   -1.797579    0.000000
     4  F     c    -3.574043    0.303085   -3.731282    0.000000
     5  F     c    -1.436130   -0.579961   -1.846238    0.000000
     6  F     c    -2.006232    2.057951   -1.896550    0.000000
     7  F     c    -2.056023    0.710822    0.445644    0.000000
     8  F     c     0.552972    1.258812   -0.386005    0.000000
     9  F     c    -0.303510    2.728310    1.987634    0.000000
    10  F     c     0.360830   -0.345656    2.046260    0.000000
    11  F     c    -4.343040    0.198171   -0.518250    0.000000
    12  F     c     0.728796    1.242834   -3.216128    0.000000
    13  F     s    -3.423603    0.342712   -3.358258    0.000000
    14  F     s    -1.396014   -0.276582   -1.812403    0.000000
    15  F     s    -1.844724    1.799643   -1.852001    0.000000
    16  F     s    -1.796917    0.767481    0.480331    0.000000
    17  F     s     0.368199    1.219586   -0.348964    0.000000
    18  F     s    -0.321222    2.493021    1.882015    0.000000
    19  F     s     0.248401   -0.142681    1.932282    0.000000
    20  F     s    -4.058162    0.255194   -0.756486    0.000000
    21  F     s     0.594000    1.218078   -2.986700    0.000000
--------------------------------------------------------------------------------


  Final Cartesian derivatives :

--------------------------------------------------------------------------------
   No.  Atomic          x             y             z           Radius
        Label       (eV/Angs)     (eV/Angs)    (eV/Angs)      (eV/Angs)
--------------------------------------------------------------------------------
      1 Al    c       0.000000      0.000000      0.000000      0.000000
      2 Al    c       0.000000      0.000000      0.000000      0.000000
      3 Al    c       0.000000      0.000000      0.000000      0.000000
      4 F     c       0.000000      0.000000      0.000000      0.000000
      5 F     c       0.000000      0.000000      0.000000      0.000000
      6 F     c       0.000000      0.000000      0.000000      0.000000
      7 F     c       0.000000      0.000000      0.000000      0.000000
      8 F     c       0.000000      0.000000      0.000000      0.000000
      9 F     c       0.000000      0.000000      0.000000      0.000000
     10 F     c       0.000000      0.000000      0.000000      0.000000
     11 F     c       0.000000      0.000000      0.000000      0.000000
     12 F     c       0.000000      0.000000      0.000000      0.000000
     13 F     s      -0.000000     -0.000000     -0.000000      0.000000
     14 F     s      -0.000000     -0.000000      0.000000      0.000000
     15 F     s      -0.000000      0.000000      0.000000      0.000000
     16 F     s      -0.000000     -0.000000      0.000000      0.000000
     17 F     s       0.000000      0.000000      0.000000      0.000000
     18 F     s       0.000000     -0.000000     -0.000000      0.000000
     19 F     s       0.000000      0.000000     -0.000000      0.000000
     20 F     s      -0.000000     -0.000000      0.000000      0.000000
     21 F     s       0.000000      0.000000      0.000000      0.000000
--------------------------------------------------------------------------------
  Maximum abs         0.000000      0.000000      0.000000      0.000000
--------------------------------------------------------------------------------


  Born effective charge tensors : 

-------------------------------------------------------------------------------
  Atom             x           y             z
-------------------------------------------------------------------------------
    1 Al    x       1.4615     -0.0021      0.1053
            y      -0.0043      1.4795      0.0062
            z      -0.0117     -0.0191      0.6131
-------------------------------------------------------------------------------
    2 Al    x       0.9975      0.1374     -0.3343
            y       0.1378      0.3610     -0.0518
            z      -0.3126     -0.0471      1.4050
-------------------------------------------------------------------------------
    3 Al    x       0.8730     -0.0174      0.3533
            y      -0.0164      0.9829      0.0807
            z       0.4085      0.0926      1.2114
-------------------------------------------------------------------------------
    4 F     x      -0.5162     -0.0104      0.0225
            y      -0.0109     -0.4681      0.0073
            z      -0.0014      0.0022     -0.3371
-------------------------------------------------------------------------------
    5 F     x      -0.2623     -0.0784     -0.0141
            y      -0.1232     -0.2812     -0.0103
            z      -0.0240     -0.0226     -0.3532
-------------------------------------------------------------------------------
    6 F     x      -0.3410      0.0504     -0.0188
            y       0.0947     -0.2018     -0.0013
            z      -0.0346      0.0055     -0.3540
-------------------------------------------------------------------------------
    7 F     x      -0.2370      0.0273      0.1163
            y       0.0288     -0.3464      0.0189
            z       0.1964      0.0362     -0.6787
-------------------------------------------------------------------------------
    8 F     x      -0.3187      0.0012      0.1895
            y       0.0024     -0.3060      0.0454
            z       0.2520      0.0589     -0.0765
-------------------------------------------------------------------------------
    9 F     x      -0.5399      0.0367      0.0231
            y       0.0319     -0.0268      0.1742
            z      -0.0218      0.2232     -0.4948
-------------------------------------------------------------------------------
   10 F     x      -0.4280     -0.2127      0.1013
            y      -0.2092     -0.1538     -0.1632
            z       0.0805     -0.2264     -0.4797
-------------------------------------------------------------------------------
   11 F     x      -0.3306      0.0299     -0.2278
            y       0.0301     -0.4834     -0.0464
            z      -0.2161     -0.0439     -0.3429
-------------------------------------------------------------------------------
   12 F     x      -0.3583      0.0382     -0.3162
            y       0.0382     -0.5557     -0.0598
            z      -0.3152     -0.0595     -0.1127
-------------------------------------------------------------------------------




  Moment of inertia tensor (10^-46 x kgm^2): 

-------------------------------------------------------------------------------
                x           y           z           Principal axis system
-------------------------------------------------------------------------------
       x        167.68      -17.39      -39.62          106.001576
       y        -17.39      240.67      -10.65          192.832870
       z        -39.62      -10.65      135.11          244.629705
-------------------------------------------------------------------------------
  Centre of mass (Ang) =    -1.292357     0.852522    -0.778174
-------------------------------------------------------------------------------


  Vibrational Frequency Calculation : 

--------------------------------------------------------------------------------

  Frequencies (cm-1) and Eigenvectors : 

  Frequency    -158.4810  -88.0039  -54.9844  -40.7038  -27.9155   -0.0000
  IR Intensity    0.0085    0.0074    0.0032    0.0000    0.0023    0.0000
     in X         0.0004    0.0069    0.0009    0.0000    0.0001    0.0000
     in Y         0.0081    0.0003    0.0001    0.0000    0.0021    0.0000
     in Z         0.0000    0.0001    0.0022    0.0000    0.0000    0.0000
  Raman Intsty    0.0000    0.0514    0.7629    0.0000    0.0000    0.0000

     1 x      -0.083755 -0.273147  0.082832 -0.054191  0.005926  0.319951
     1 y       0.387540 -0.054116  0.021282  0.250745 -0.027421 -0.057169
     1 z      -0.007391  0.257791  0.177238 -0.004782  0.000523  0.038107
     2 x       0.040061  0.333573 -0.196861  0.028102 -0.033041  0.319951
     2 y      -0.185364  0.073214 -0.038590 -0.130031  0.152882 -0.057169
     2 z       0.003535  0.058831  0.207364  0.002480 -0.002916  0.038107
     3 x      -0.008163 -0.189050  0.073633  0.034451  0.044165  0.319951
     3 y       0.037771 -0.046500  0.006632 -0.159410 -0.204353 -0.057169
     3 z      -0.000721 -0.295866 -0.486623  0.003040  0.003897  0.038107
     4 x      -0.012252 -0.130122  0.186157  0.032965  0.038025  0.268497
     4 y       0.056689 -0.032249  0.032237 -0.152534 -0.175947 -0.047976
     4 z      -0.001081 -0.216367 -0.419194  0.002909  0.003356  0.031979
     5 x       0.061128 -0.178988  0.063582  0.175819  0.102013  0.268497
     5 y       0.158180 -0.063252  0.012884  0.086458 -0.073925 -0.047976
     5 z      -0.077307  0.088459  0.054856 -0.103650 -0.058841  0.031979
     6 x      -0.121581 -0.189826  0.062796 -0.196640 -0.062858  0.268497
     6 y       0.121540 -0.013100  0.016520  0.009881 -0.107246 -0.047976
     6 z       0.071972  0.087502  0.054786  0.101812  0.062297  0.031979
     7 x      -0.003934  0.292580 -0.105394  0.037326  0.053408  0.268497
     7 y       0.018205  0.062737 -0.022118 -0.172709 -0.247124 -0.047976
     7 z      -0.000347 -0.025953  0.034593  0.003294  0.004713  0.031979
     8 x       0.159585  0.299457 -0.103663 -0.055539  0.002346  0.268497
     8 y      -0.738413  0.063267 -0.017775  0.256986 -0.010857 -0.047976
     8 z       0.014083 -0.076137  0.242701 -0.004901  0.000207  0.031979
     9 x       0.101824  0.212487 -0.131525 -0.167233 -0.357285  0.268497
     9 y      -0.067346  0.065994 -0.035707 -0.215596  0.313668 -0.047976
     9 z      -0.185477  0.042445  0.177107  0.287942 -0.375206  0.031979
    10 x      -0.066399  0.220438 -0.135925  0.243579  0.192971  0.268497
    10 y      -0.096567  0.029202 -0.015346 -0.137667  0.446623 -0.047976
    10 z       0.188604  0.043147  0.176718 -0.281205  0.360706  0.031979
    11 x      -0.003892  0.011598  0.067982  0.038898  0.042372  0.268497
    11 y       0.018009  0.001421  0.007054 -0.179986 -0.196058 -0.047976
    11 z      -0.000343 -0.056930 -0.400498  0.003433  0.003739  0.031979
    12 x      -0.052684 -0.384351  0.144128 -0.119141 -0.031311  0.268497
    12 y       0.243773 -0.081366  0.034973  0.551277  0.144879 -0.047976
    12 z      -0.004649  0.089101  0.200502 -0.010514 -0.002763  0.031979


  Frequency      -0.0000   -0.0000   45.2370  108.3842  121.9406  136.1014
  IR Intensity    0.0000    0.0000    0.0007    0.0014    0.0314    0.0308
     in X         0.0000    0.0000    0.0000    0.0004    0.0014    0.0211
     in Y         0.0000    0.0000    0.0007    0.0000    0.0300    0.0011
     in Z         0.0000    0.0000    0.0000    0.0009    0.0000    0.0086
  Raman Intsty    0.0000    0.0000    0.0000    0.6702    0.0000    0.3358

     1 x      -0.041274 -0.054927 -0.022175 -0.096561 -0.089070 -0.105587
     1 y      -0.014829 -0.321871  0.102605 -0.018450  0.412137 -0.024636
     1 z       0.324292 -0.021709 -0.001957  0.126766 -0.007861 -0.095372
     2 x      -0.041274 -0.054927 -0.046846  0.108406 -0.007782  0.003046
     2 y      -0.014829 -0.321871  0.216761  0.021687  0.036008  0.001145
     2 z       0.324292 -0.021709 -0.004134 -0.091327 -0.000687  0.025527
     3 x      -0.041274 -0.054927  0.059237 -0.062133  0.017186 -0.173557
     3 y      -0.014829 -0.321871 -0.274096 -0.012858 -0.079515 -0.038763
     3 z       0.324292 -0.021709  0.005228  0.029889  0.001517 -0.065736
     4 x      -0.034636 -0.046094  0.074158 -0.185153  0.022897 -0.185496
     4 y      -0.012444 -0.270108 -0.343135 -0.038700 -0.105941 -0.040976
     4 z       0.272140 -0.018218  0.006545  0.068984  0.002021 -0.046493
     5 x      -0.034636 -0.046094  0.166750 -0.044704  0.142551 -0.127482
     5 y      -0.012444 -0.270108 -0.052276 -0.008455  0.162964  0.004672
     5 z       0.272140 -0.018218  0.198842 -0.227390  0.115099 -0.048268
     6 x      -0.034636 -0.046094 -0.128728 -0.042417 -0.196198 -0.113803
     6 y      -0.012444 -0.270108 -0.123655 -0.019043  0.085274 -0.058635
     6 z       0.272140 -0.018218 -0.195486 -0.227190 -0.119831 -0.047060
     7 x      -0.034636 -0.046094 -0.096763  0.247307 -0.032826 -0.135463
     7 y      -0.012444 -0.270108  0.447731  0.046315  0.151885 -0.024513
     7 z       0.272140 -0.018218 -0.008539 -0.374048 -0.002896  0.249752
     8 x      -0.034636 -0.046094 -0.007392  0.218402  0.020881 -0.251771
     8 y      -0.012444 -0.270108  0.034201  0.046278 -0.096615 -0.054772
     8 z       0.272140 -0.018218 -0.000652 -0.048346  0.001843 -0.018895
     9 x      -0.034636 -0.046094  0.329728 -0.275150 -0.302710  0.392149
     9 y      -0.012444 -0.270108  0.151872 -0.027389 -0.013121  0.033577
     9 z       0.272140 -0.018218  0.001232  0.092631  0.161995 -0.117713
    10 x      -0.034636 -0.046094 -0.362996 -0.262636  0.282394  0.371952
    10 y      -0.012444 -0.270108  0.002059 -0.085281  0.107118  0.127036
    10 z       0.272140 -0.018218 -0.004168  0.093733 -0.163787 -0.119496
    11 x      -0.034636 -0.046094  0.067466  0.004672  0.024610 -0.116131
    11 y      -0.012444 -0.270108 -0.312169  0.002929 -0.113869 -0.025489
    11 z       0.272140 -0.018218  0.005954  0.100616  0.002172 -0.020436
    12 x      -0.034636 -0.046094 -0.030565  0.399605  0.133335  0.495055
    12 y      -0.012444 -0.270108  0.141427  0.094812 -0.616969  0.113285
    12 z       0.272140 -0.018218 -0.002697  0.443164  0.011764  0.330173


  Frequency     153.5003  167.0243  169.9745  204.6495  222.8098  261.8869
  IR Intensity    0.0075    0.0019    0.0093    0.0001    0.0136    0.0833
     in X         0.0003    0.0001    0.0003    0.0000    0.0010    0.0000
     in Y         0.0072    0.0018    0.0000    0.0001    0.0001    0.0000
     in Z         0.0000    0.0000    0.0090    0.0000    0.0126    0.0832
  Raman Intsty    0.0000    0.0000    0.1541    0.0000    0.1395    0.2265

     1 x      -0.033465  0.052324  0.042254 -0.028364 -0.118552 -0.078483
     1 y       0.154847 -0.242106  0.005957  0.131242 -0.028769 -0.021834
     1 z      -0.002953  0.004617 -0.166473 -0.002503 -0.165038 -0.255369
     2 x       0.000971 -0.025726  0.011231  0.051124  0.103557  0.164553
     2 y      -0.004490  0.119038  0.003945 -0.236553  0.017279  0.032461
     2 z       0.000086 -0.002270  0.079572  0.004512 -0.267500 -0.162195
     3 x       0.000713 -0.015746 -0.007527 -0.020027 -0.059221 -0.047050
     3 y      -0.003297  0.072858 -0.002614  0.092667 -0.009246 -0.014020
     3 z       0.000063 -0.001390 -0.051786 -0.001767  0.186275 -0.202002
     4 x      -0.073817 -0.089839 -0.204622 -0.057547  0.431334 -0.046765
     4 y       0.341558  0.415693 -0.043850  0.266276  0.092778 -0.013870
     4 z      -0.006514 -0.007928  0.019535 -0.005079 -0.023141 -0.197184
     5 x       0.059042 -0.137758  0.002330 -0.031080 -0.071398 -0.077597
     5 y       0.120529 -0.117096  0.024373  0.061503 -0.054607 -0.048363
     5 z      -0.342043  0.036363 -0.294458  0.530160  0.199879  0.237357
     6 x      -0.106223  0.174092  0.014502  0.007092 -0.089145 -0.092506
     6 y       0.097780 -0.051025 -0.031947  0.049489  0.027506  0.020630
     6 z       0.337879 -0.033156 -0.293384 -0.532277  0.198313  0.236048
     7 x       0.034045 -0.064940  0.081375  0.041752 -0.001270 -0.062649
     7 y      -0.157528  0.300481  0.016591 -0.193189 -0.001330 -0.008346
     7 z       0.003004 -0.005730 -0.052196  0.003684 -0.055299  0.271554
     8 x      -0.053261  0.065876 -0.221800 -0.045194  0.105040 -0.043460
     8 y       0.246447 -0.304816 -0.048130  0.209117  0.017646 -0.014713
     8 z      -0.004700  0.005813 -0.010181 -0.003988 -0.265038 -0.279242
     9 x       0.238447 -0.217289  0.180953  0.005630  0.038509 -0.190399
     9 y       0.024023  0.033396 -0.185114 -0.121653 -0.190597 -0.047313
     9 z      -0.105923  0.201344  0.484932 -0.217944  0.237760  0.086516
    10 x      -0.227926  0.185704  0.084576  0.043375 -0.045478 -0.193615
    10 y      -0.072711  0.112757  0.260835 -0.105100  0.198019 -0.032392
    10 z       0.106852 -0.204132  0.476427  0.222269  0.230348  0.086245
    11 x       0.114054  0.109208  0.091933  0.048728 -0.422867  0.464999
    11 y      -0.527739 -0.505316  0.021206 -0.225467 -0.096150  0.107554
    11 z       0.010065  0.009638  0.070155  0.004300 -0.249622  0.370180
    12 x       0.053510 -0.037984 -0.084013 -0.016013  0.143713  0.195496
    12 y      -0.247600  0.175760 -0.022650  0.074092  0.031445  0.040855
    12 z       0.004722 -0.003352 -0.235564 -0.001413  0.020256 -0.073175


  Frequency     262.0638  266.3693  279.2971  289.8073  300.7933  379.8897
  IR Intensity    0.0128    0.0358    0.0234    0.0240    0.0072    0.0045
     in X         0.0006    0.0257    0.0216    0.0011    0.0047    0.0037
     in Y         0.0122    0.0011    0.0010    0.0229    0.0002    0.0002
     in Z         0.0000    0.0090    0.0008    0.0000    0.0022    0.0007
  Raman Intsty    0.0000    0.2381    0.7226    0.0000    0.0019    0.4013

     1 x      -0.012999 -0.231428  0.001022  0.021909 -0.022459 -0.219014
     1 y       0.060140 -0.048961  0.001703 -0.101374 -0.001681 -0.046832
     1 z      -0.001152  0.055331  0.077685  0.001934  0.166364  0.026290
     2 x      -0.077572 -0.054306 -0.385339 -0.006857 -0.148118  0.085681
     2 y       0.358951 -0.010213 -0.086722  0.031729 -0.035334  0.016473
     2 z      -0.006850  0.079827 -0.180549 -0.000605 -0.174205 -0.107161
     3 x       0.012824 -0.011673  0.041099 -0.095666 -0.007100  0.330025
     3 y      -0.059343 -0.000487  0.007683  0.442653 -0.001540  0.071631
     3 z       0.001127  0.106737 -0.062861 -0.008443 -0.000263  0.016037
     4 x      -0.026022  0.650077 -0.110806  0.120548  0.083446 -0.105395
     4 y       0.120393  0.137413 -0.023547 -0.557785  0.017333 -0.016708
     4 z      -0.002300 -0.161537  0.020962  0.010638 -0.036758  0.318227
     5 x       0.050497 -0.117227  0.018629 -0.304557  0.020165  0.082098
     5 y      -0.009332 -0.123458 -0.050662  0.253610  0.043551 -0.444162
     5 z       0.158691 -0.212006  0.252816  0.004886 -0.254530 -0.035019
     6 x      -0.040894 -0.156064 -0.005937  0.172732  0.038348 -0.108303
     6 y      -0.035119  0.056242  0.063007  0.356353 -0.040584  0.436842
     6 z      -0.157833 -0.215434  0.250649 -0.016520 -0.252925 -0.051822
     7 x       0.135564  0.057530 -0.142373  0.030815 -0.480597 -0.073075
     7 y      -0.627278  0.010020 -0.041697 -0.142585 -0.097205 -0.013595
     7 z       0.011970 -0.126469 -0.572985  0.002720  0.349232  0.115260
     8 x       0.050771 -0.275549  0.067452  0.011047  0.546793 -0.144518
     8 y      -0.234920 -0.058617  0.015835 -0.051113  0.116806 -0.032966
     8 z       0.004474  0.049002  0.065943  0.000975 -0.071662 -0.090872
     9 x       0.158671  0.055994  0.236555  0.015621  0.050800 -0.005455
     9 y       0.217556  0.040007 -0.214447  0.018536 -0.151500 -0.031515
     9 z       0.292326 -0.055742 -0.026952  0.029896  0.028553  0.002231
    10 x      -0.232030  0.067952  0.127139 -0.021644 -0.016497 -0.017996
    10 y       0.121845 -0.015326  0.291835  0.009332  0.159888  0.026511
    10 z      -0.298796 -0.054688 -0.036608 -0.030428  0.022615  0.001124
    11 x      -0.006486  0.186495  0.227012  0.071955  0.073268  0.242091
    11 y       0.030060  0.046760  0.052226 -0.332941  0.017729  0.045308
    11 z      -0.000566  0.338462  0.165921  0.006350  0.099340 -0.367672
    12 x       0.002575 -0.114807 -0.008680 -0.000454 -0.103999 -0.103832
    12 y      -0.011894 -0.021948 -0.000393  0.002100 -0.020077 -0.018896
    12 z       0.000225  0.150160  0.077739 -0.000040  0.125792  0.185803


  Frequency     437.7778  448.9679  498.1591  502.2670  568.9045  624.7597
  IR Intensity    0.0288    0.0530    0.0693    0.0025    0.0265    0.0621
     in X         0.0011    0.0024    0.0586    0.0010    0.0212    0.0114
     in Y         0.0000    0.0506    0.0026    0.0001    0.0009    0.0007
     in Z         0.0277    0.0000    0.0081    0.0014    0.0044    0.0499
  Raman Intsty    3.7691    0.0000    0.0008    1.7273    0.0555    0.2134

     1 x      -0.124514 -0.125636 -0.328657 -0.025215  0.072742 -0.030102
     1 y      -0.024124  0.581330 -0.073686 -0.005692  0.016605 -0.006112
     1 z       0.146048 -0.011087 -0.139314 -0.012705  0.046361  0.020646
     2 x       0.288944 -0.000874 -0.202340 -0.023875  0.315111  0.033305
     2 y       0.054009  0.004044 -0.037649 -0.004899  0.063443  0.006965
     2 z      -0.442363 -0.000077  0.318812  0.013664 -0.244243 -0.012230
     3 x      -0.033583  0.009147 -0.021098 -0.017314  0.013779 -0.245873
     3 y      -0.007692 -0.042324 -0.005030 -0.004911  0.002912 -0.065006
     3 z      -0.022763  0.000807 -0.024656 -0.061314 -0.003434 -0.622242
     4 x      -0.027243  0.014940  0.005034  0.177242  0.000699  0.210446
     4 y      -0.006336 -0.069130  0.002078  0.047135  0.000154  0.056010
     4 z      -0.023519  0.001318  0.051888  0.462964  0.000160  0.552062
     5 x       0.255058 -0.386728  0.310630 -0.330580 -0.056809  0.137262
     5 y       0.296486 -0.404852  0.175743  0.342159 -0.006931 -0.099806
     5 z       0.013265 -0.047736  0.031035  0.005592  0.009103 -0.008438
     6 x       0.354591  0.518975  0.355221 -0.159886 -0.054673  0.083883
     6 y      -0.164057 -0.207069 -0.030581 -0.447657 -0.016812  0.147188
     6 z       0.022048  0.059406  0.034970  0.020656  0.009291 -0.013149
     7 x       0.003680  0.006543 -0.091335  0.007425 -0.529615 -0.005777
     7 y       0.002052 -0.030275 -0.021873  0.001170 -0.120055 -0.001003
     7 z       0.065906  0.000577 -0.111885 -0.022783 -0.293373  0.012885
     8 x      -0.371798 -0.015628  0.015712 -0.004059 -0.052184  0.017268
     8 y      -0.078244  0.072312 -0.006863 -0.001817 -0.008657  0.005502
     8 z       0.110574 -0.001379 -0.537881 -0.049267  0.137424  0.092804
     9 x      -0.024474  0.007287  0.028381 -0.001651  0.023126 -0.010007
     9 y      -0.179639  0.012637  0.215118 -0.005320  0.415891 -0.017931
     9 z      -0.050601  0.009403  0.081829 -0.001878  0.188554 -0.009719
    10 x      -0.096049 -0.011779  0.114006 -0.003685  0.191260 -0.016440
    10 y       0.151542  0.008150 -0.181080  0.004092 -0.362083  0.011834
    10 z      -0.056917 -0.009799  0.089385 -0.002057  0.203392 -0.010287
    11 x      -0.007670  0.005682  0.013465  0.395771 -0.006867 -0.211841
    11 y      -0.001278 -0.026292  0.002707  0.078726 -0.001115 -0.041252
    11 z       0.019927  0.000501 -0.010661 -0.356917  0.019345  0.237571
    12 x      -0.242017  0.000562 -0.093217 -0.001449  0.006462  0.084381
    12 y      -0.046973 -0.002600 -0.016583 -0.000015  0.000748  0.015904
    12 z       0.279541  0.000049  0.186804  0.015614 -0.034002 -0.122271


  Frequency     648.1039  727.2090  749.7892  812.3913  833.2875  865.4057
  IR Intensity    0.0421    0.0448    0.0307    0.0024    0.0001    0.0024
     in X         0.0019    0.0423    0.0069    0.0001    0.0000    0.0008
     in Y         0.0402    0.0019    0.0004    0.0022    0.0000    0.0000
     in Z         0.0000    0.0005    0.0234    0.0000    0.0001    0.0015
  Raman Intsty    0.0000    0.0305    0.0006    0.0000    0.8517    0.0000

     1 x       0.017760  0.519383 -0.044150  0.002780  0.412235 -0.234752
     1 y      -0.082177  0.111012 -0.006917 -0.012860  0.084058 -0.063888
     1 z       0.001567 -0.064825  0.137625  0.000244 -0.263919 -0.689685
     2 x      -0.000645 -0.005281  0.475747  0.157310  0.096586  0.107491
     2 y       0.002983 -0.000564  0.112605 -0.727890  0.022894  0.025881
     2 z      -0.000057  0.030288  0.513226  0.013882  0.105887  0.138940
     3 x       0.150906  0.345317  0.065711  0.000076 -0.650353  0.228756
     3 y      -0.698254  0.070382  0.014561 -0.000357 -0.137712  0.048085
     3 z       0.013318 -0.222689  0.018841  0.000007  0.148982 -0.070978
     4 x      -0.016536 -0.012828 -0.007757 -0.000145  0.055396 -0.015662
     4 y       0.076514 -0.001719 -0.001988  0.000670  0.012193 -0.003253
     4 z      -0.001459  0.055235 -0.016339 -0.000013  0.011575  0.006929
     5 x      -0.367643 -0.189344 -0.012159  0.000856  0.108517 -0.024232
     5 y       0.316813  0.000032  0.018007  0.004774 -0.141038  0.057986
     5 z       0.011467  0.003613 -0.002352  0.002514 -0.001342  0.022892
     6 x       0.204151 -0.172467 -0.003622 -0.002731  0.040624  0.001687
     6 y       0.439675 -0.078060 -0.021493  0.003900  0.173105 -0.061942
     6 z      -0.025895  0.005102 -0.001599 -0.002680 -0.007333  0.025179
     7 x      -0.002983 -0.009581 -0.376714 -0.006549 -0.057540 -0.049261
     7 y       0.013802 -0.002066 -0.085773  0.030304 -0.013587 -0.011399
     7 z      -0.000263  0.000254 -0.228495 -0.000578 -0.060363 -0.039490
     8 x      -0.000650 -0.121628 -0.055560 -0.005658  0.024720  0.222172
     8 y       0.003007 -0.032942 -0.014550  0.026181  0.005481  0.056907
     8 z      -0.000057 -0.348956 -0.133322 -0.000499  0.007240  0.466193
     9 x      -0.000364 -0.006112 -0.038735  0.026768 -0.010776 -0.011563
     9 y      -0.001929 -0.010323 -0.299364  0.437040 -0.038724 -0.040621
     9 z      -0.001201 -0.000721 -0.140237  0.173038 -0.016834 -0.017879
    10 x       0.001118 -0.009822 -0.157755 -0.203430 -0.025668 -0.027159
    10 y      -0.001561  0.006846  0.251351  0.380392  0.030180  0.031544
    10 z       0.001267 -0.001048 -0.150741 -0.188627 -0.018148 -0.019256
    11 x      -0.014196 -0.234311 -0.028334 -0.000006  0.219893 -0.073746
    11 y       0.065685 -0.046827 -0.005988  0.000029  0.044197 -0.014801
    11 z      -0.001253  0.199880  0.007111 -0.000001 -0.174381  0.059620
    12 x      -0.003119 -0.268023  0.088025  0.000034 -0.186512 -0.143180
    12 y       0.014431 -0.050426  0.016505 -0.000161 -0.035152 -0.026430
    12 z      -0.000275  0.393162 -0.132056  0.000004  0.270371  0.236680




--------------------------------------------------------------------------------
  Vibrational properties (for cluster):  Temperature  =       0.000 K
--------------------------------------------------------------------------------
  Zero point energy            =        0.687296 eV
--------------------------------------------------------------------------------

  Phonon density of states : 

--------------------------------------------------------------------------------
 Frequency (cm-1) Density of States                                             
--------------------------------------------------------------------------------
    0.00000 |                                                              0.000
   13.52196 |                                                              0.000
   27.04393 |                                                              0.000
   40.56589 |********************                                          0.036
   54.08786 |                                                              0.000
   67.60982 |                                                              0.000
   81.13179 |                                                              0.000
   94.65375 |                                                              0.000
  108.17572 |********************                                          0.036
  121.69768 |********************                                          0.036
  135.21965 |********************                                          0.036
  148.74161 |********************                                          0.036
  162.26358 |****************************************                      0.071
  175.78554 |                                                              0.000
  189.30751 |                                                              0.000
  202.82947 |********************                                          0.036
  216.35144 |********************                                          0.036
  229.87340 |                                                              0.000
  243.39537 |                                                              0.000
  256.91733 |************************************************************  0.107
  270.43930 |********************                                          0.036
  283.96126 |********************                                          0.036
  297.48323 |********************                                          0.036
  311.00519 |                                                              0.000
  324.52716 |                                                              0.000
  338.04912 |                                                              0.000
  351.57109 |                                                              0.000
  365.09305 |                                                              0.000
  378.61502 |********************                                          0.036
  392.13698 |                                                              0.000
  405.65895 |                                                              0.000
  419.18091 |                                                              0.000
  432.70288 |********************                                          0.036
  446.22484 |********************                                          0.036
  459.74680 |                                                              0.000
  473.26877 |                                                              0.000
  486.79073 |********************                                          0.036
  500.31270 |********************                                          0.036
  513.83466 |                                                              0.000
  527.35663 |                                                              0.000
  540.87859 |                                                              0.000
  554.40056 |                                                              0.000
  567.92252 |********************                                          0.036
  581.44449 |                                                              0.000
  594.96645 |                                                              0.000
  608.48842 |                                                              0.000
  622.01038 |********************                                          0.036
  635.53235 |********************                                          0.036
  649.05431 |                                                              0.000
  662.57628 |                                                              0.000
  676.09824 |                                                              0.000
  689.62021 |                                                              0.000
  703.14217 |                                                              0.000
  716.66414 |********************                                          0.036
  730.18610 |                                                              0.000
  743.70807 |********************                                          0.036
  757.23003 |                                                              0.000
  770.75200 |                                                              0.000
  784.27396 |                                                              0.000
  797.79593 |                                                              0.000
  811.31789 |********************                                          0.036
  824.83986 |********************                                          0.036
  838.36182 |                                                              0.000
  851.88379 |********************                                          0.036
--------------------------------------------------------------------------------



  Time to end of optimisation =       0.0474 seconds


  Peak dynamic memory used =       0.65 MB 


  Timing analysis for GULP :

--------------------------------------------------------------------------------
  Task / Subroutine                                          Time (Seconds)
--------------------------------------------------------------------------------
  Calculation of real space energy and derivatives                0.0034
  Calculation of phonons                                          0.0016
  Calculation and manipulation of Hessian matrix                  0.0020
  Calculation of matrix inversion                                 0.0001
--------------------------------------------------------------------------------
  Total CPU time                                                  0.0474
--------------------------------------------------------------------------------


  Job Finished at 14:39.11 25th May        2022                               

