------------------------------------------------------------
          Invoking FHI-aims ...

          When using FHI-aims, please cite the following reference:

            Volker Blum, Ralf Gehrke, Felix Hanke, Paula Havu,
            Ville Havu, Xinguo Ren, Karsten Reuter, and Matthias Scheffler,
            'Ab Initio Molecular Simulations with Numeric Atom-Centered Orbitals',
            Computer Physics Communications 180, 2175-2196 (2009)

          In addition, many other developments in FHI-aims are likely important for
          your particular application. A partial list of references is given at the end of
          this file. Thank you for giving credit to the authors of these developments.

          For any questions about FHI-aims, please visit our slack channel at

            https://fhi-aims.slack.com

          and our main development and support site at

            https://aims-git.rz-berlin.mpg.de .

          The latter site, in particular, has a wiki to collect information, as well
          as an issue tracker to log discussions, suggest improvements, and report issues
          or bugs. https://aims-git.rz-berlin.mpg.de is also the main development site
          of the project and all new and updated code versions can be obtained there.
          Please send an email to aims-coordinators@fhi-berlin.mpg.de and we will add
          you to these sites. They are for you and everyone is welcome there.

------------------------------------------------------------



  Date     :  20220517, Time     :  114330.345
  Time zero on CPU 1             :   0.410420000000000E-01  s.
  Internal wall clock time zero  :           422019810.345  s.

  FHI-aims created a unique identifier for this run for later identification
  aims_uuid : E552257E-0627-4FA2-ABB7-32D9E893BA59

  Build configuration of the current instance of FHI-aims
  -------------------------------------------------------
  FHI-aims version      : 210914
  Commit number         : GITDIR-NOTFOUND
  CMake host system     : Linux-3.10.0-693.17.1.el7.x86_64
  CMake version         : 3.21.1
  Fortran compiler      : /shared/ucl/apps/intel/2018.Update3/impi/2018.3.222/intel64/bin/mpiifort (Intel) version 18.0.3.20180410
  Fortran compiler flags: -O3 -ip -fp-model precise
  C compiler            : /shared/ucl/apps/intel/2018.Update3/compilers_and_libraries_2018.3.222/linux/bin/intel64/icc (Intel) version 18.0.3.20180410
  C compiler flags      : -O3 -ip -fp-model precise -std=gnu99
  ELPA2 kernel          : AVX2
  Using MPI
  Using ScaLAPACK
  Using LibXC
  Using i-PI
  Using RLSY
  Linking against: /shared/ucl/apps/intel/2019.Update5/compilers_and_libraries_2019.5.281/linux/mkl/lib/intel64/libmkl_intel_lp64.so
                   /shared/ucl/apps/intel/2019.Update5/compilers_and_libraries_2019.5.281/linux/mkl/lib/intel64/libmkl_sequential.so
                   /shared/ucl/apps/intel/2019.Update5/compilers_and_libraries_2019.5.281/linux/mkl/lib/intel64/libmkl_core.so
                   /shared/ucl/apps/intel/2019.Update5/compilers_and_libraries_2019.5.281/linux/mkl/lib/intel64/libmkl_blacs_intelmpi_lp64.so
                   /shared/ucl/apps/intel/2019.Update5/compilers_and_libraries_2019.5.281/linux/mkl/lib/intel64/libmkl_scalapack_lp64.so

  Using       24 parallel tasks.
  Task        0 on host node-k98a-025 reporting.
  Task        1 on host node-k98a-025 reporting.
  Task        2 on host node-k98a-025 reporting.
  Task        3 on host node-k98a-025 reporting.
  Task        4 on host node-k98a-025 reporting.
  Task        5 on host node-k98a-025 reporting.
  Task        6 on host node-k98a-025 reporting.
  Task        7 on host node-k98a-025 reporting.
  Task        8 on host node-k98a-025 reporting.
  Task        9 on host node-k98a-025 reporting.
  Task       10 on host node-k98a-025 reporting.
  Task       11 on host node-k98a-025 reporting.
  Task       12 on host node-k98a-025 reporting.
  Task       13 on host node-k98a-025 reporting.
  Task       14 on host node-k98a-025 reporting.
  Task       15 on host node-k98a-025 reporting.
  Task       16 on host node-k98a-025 reporting.
  Task       17 on host node-k98a-025 reporting.
  Task       18 on host node-k98a-025 reporting.
  Task       19 on host node-k98a-025 reporting.
  Task       20 on host node-k98a-025 reporting.
  Task       21 on host node-k98a-025 reporting.
  Task       22 on host node-k98a-025 reporting.
  Task       23 on host node-k98a-025 reporting.

  Performing system and environment tests:
  | Environment variable OMP_NUM_THREADS correctly set to 1.
  | Checking for ScaLAPACK...
  | Testing pdtran()...
  | All pdtran() tests passed.

  Obtaining array dimensions for all initial allocations:
  
  -----------------------------------------------------------------------
  Parsing control.in (first pass over file, find array dimensions only).
  The contents of control.in will be repeated verbatim below
  unless switched off by setting 'verbatim_writeout .false.' .
  in the first line of control.in .
  -----------------------------------------------------------------------
  
  #########################################################################################  Physical model
  #########################################################################################
  xc                 pbesol
  spin               none
  relativistic       atomic_zora scalar
  charge             0.0
  #  SCF convergence
  occupation_type    gaussian 0.01
  mixer              pulay
  n_max_pulay        10
  charge_mix_param   0.5
  sc_accuracy_rho    1E-5
  sc_accuracy_eev    1E-3
  sc_accuracy_etot   1E-6
  sc_accuracy_forces 1E-4
  sc_iter_limit      1500
  #  Relaxation
  #relax_geometry   bfgs 1.e-3
  
  ################################################################################
  #
  #  FHI-aims code project
  #  VB, Fritz-Haber Institut, 2009
  #
  #  Suggested "light" defaults for Al atom (to be pasted into control.in file)
  #  Be sure to double-check any results obtained with these settings for post-processing,
  #  e.g., with the "tight" defaults and larger basis sets.
  #
  ################################################################################
    species        Al
  #     global species definitions
      nucleus             13
      mass                26.9815386
  #
      l_hartree           4
  #
      cut_pot             3.5          1.5  1.0
      basis_dep_cutoff    1e-4
  #
      radial_base         41 5.0
      radial_multiplier   1
      angular_grids       specified
        division   0.6594  110
        division   0.8170  194
        division   0.9059  302
  #      division   1.0363  434
  #      division   1.1443  590
  #      division   1.2621  770
  #      division   2.8177  974
  #      outer_grid   974
        outer_grid   302
  ################################################################################
  #
  #  Definition of "minimal" basis
  #
  ################################################################################
  #     valence basis states
      valence      3  s   2.
      valence      3  p   1.
  #     ion occupancy
      ion_occ      3  s   1.
      ion_occ      2  p   6.
  ################################################################################
  #
  #  Suggested additional basis functions. For production calculations,
  #  uncomment them one after another (the most important basis functions are
  #  listed first).
  #
  #  Constructed for dimers: 2.0 A, 2.5 A, 3.0 A, 3.75 A, 4.5 A
  #
  ################################################################################
  #  "First tier" - improvements: -199.47 meV to -10.63 meV
       ionic 3 d auto
       ionic 3 p auto
  #     hydro 4 f 4.7
       ionic 3 s auto
  #  "Second tier" - improvements: -5.35 meV to -1.57 meV
  #     hydro 5 g 7
  #     hydro 3 d 6
  #     hydro 2 s 11.6
  #     hydro 2 p 0.9
  #  "Third tier" - improvements: -0.63 meV to -0.20 meV
  #     hydro 5 f 7.6
  #     hydro 4 p 7.2
  #     hydro 4 s 3.7
  #     hydro 4 d 7.6
  #  "Fourth tier" - improvements: -0.17 meV to -0.08 meV
  #     hydro 4 d 13.6
  #     hydro 5 g 11.2
  #     hydro 4 d 0.9
  #     hydro 1 s 0.4
  #     hydro 4 p 0.1
  #     hydro 5 f 9.8
  #  Further basis functions that fell out of the optimization - noise level...
  #     hydro 4 p 5
  
  ################################################################################
  #
  #  FHI-aims code project
  #  VB, Fritz-Haber Institut, 2009
  #
  #  Suggested "light" defaults for F atom (to be pasted into control.in file)
  #  Be sure to double-check any results obtained with these settings for post-processing,
  #  e.g., with the "tight" defaults and larger basis sets.
  #
  ################################################################################
    species        F
  #     global species definitions
      nucleus             9
      mass                18.9984032
  #
      l_hartree           4
  #
      cut_pot             3.5  1.5  1.0
      basis_dep_cutoff    1e-4
  #
      radial_base         37 5.0
      radial_multiplier   1
      angular_grids specified
        division   0.4014  110
        division   0.5291  194
        division   0.6019  302
  #      division   0.6814  434
  #      division   0.7989  590
  #      division   0.8965  770
  #      division   1.3427  974
  #      outer_grid   974
        outer_grid   302
  ################################################################################
  #
  #  Definition of "minimal" basis
  #
  ################################################################################
  #     valence basis states
      valence      2  s   2.
      valence      2  p   5.
  #     ion occupancy
      ion_occ      2  s   1.
      ion_occ      2  p   4.
  ################################################################################
  #
  #  Suggested additional basis functions. For production calculations,
  #  uncomment them one after another (the most important basis functions are
  #  listed first).
  #
  #  Constructed for dimers: 1.2 A, 1.418 A, 1.75 A, 2.25 A, 3.25 A
  #
  ################################################################################
  #  "First tier" - improvements: -149.44 meV to -45.88 meV
       hydro 2 p 1.7
       hydro 3 d 7.4
       hydro 3 s 6.8
  #  "Second tier" - improvements: -12.96 meV to -1.56 meV
  #     hydro 4 f 11.2
  #     ionic 2 p auto
  #     hydro 1 s 0.75
  #     hydro 4 d 8.8
  #     hydro 5 g 16.8
  #  "Third tier" - improvements: -0.58 meV to -0.05 meV
  #     hydro 3 p 6.2
  #     hydro 3 s 3.2
  #     hydro 4 f 9.6
  #     hydro 3 s 19.6
  #     hydro 4 d 8.6
  #     hydro 5 g 14.4
  # Further basis functions: -0.05 meV and below
  #     hydro 3 p 4.2
  
  -----------------------------------------------------------------------
  Completed first pass over input file control.in .
  -----------------------------------------------------------------------
  
  
  -----------------------------------------------------------------------
  Parsing geometry.in (first pass over file, find array dimensions only).
  The contents of geometry.in will be repeated verbatim below
  unless switched off by setting 'verbatim_writeout .false.' .
  in the first line of geometry.in .
  -----------------------------------------------------------------------
  
  atom 0.432762395 -0.520997878 1.715243717 Al
  atom 2.318180563 -1.866882254 -0.564502690 Al
  atom -0.943037382 -1.829638140 -0.921571336 Al
  atom 3.464641511 -0.611729993 -1.229508403 F
  atom -1.870662051 -0.571521089 -1.844579021 F
  atom 2.665158587 -3.636817677 -0.478155392 F
  atom -1.316269573 -3.606812385 -0.937146669 F
  atom 1.930045996 -1.407604132 1.173113000 F
  atom 0.783330164 -1.569600882 -1.492346065 F
  atom 0.214103351 -1.040113841 3.449541081 F
  atom 0.504480379 1.180221166 1.114313072 F
  atom -0.940945869 -1.385967321 0.842136412 F
  
  -----------------------------------------------------------------------
  Completed first pass over input file geometry.in .
  -----------------------------------------------------------------------
  

  Basic array size parameters:
  | Number of species                 :        2
  | Number of atoms                   :       12
  | Max. basis fn. angular momentum   :        2
  | Max. atomic/ionic basis occupied n:        3
  | Max. number of basis fn. types    :        3
  | Max. radial fns per species/type  :        5
  | Max. logarithmic grid size        :     1340
  | Max. radial integration grid size :       41
  | Max. angular integration grid size:      302
  | Max. angular grid division number :        8
  | Radial grid for Hartree potential :     1340
  | Number of spin channels           :        1

------------------------------------------------------------
          Reading file control.in.
------------------------------------------------------------
  XC: Using PBEsol gradient-corrected functionals.
  Spin treatment: No spin polarisation.
  Scalar relativistic treatment of kinetic energy: on-site free-atom approximation to ZORA.
  Charge =   0.000000E+00: Neutral system requested explicitly.
  Occupation type: Gaussian broadening, width =   0.100000E-01 eV.
  Using pulay charge density mixing.
  Pulay mixing - number of memorized iterations:   10
  Charge density mixing - mixing parameter:     0.5000
  Convergence accuracy of self-consistent charge density:  0.1000E-04
  Convergence accuracy of sum of eigenvalues:  0.1000E-02
  Convergence accuracy of total energy:  0.1000E-05
  Convergence accuracy of forces:  0.1000E-03
  Maximum number of s.-c. iterations  :  1500
 
  Reading configuration options for species Al                  .
  | Found nuclear charge :  13.0000
  | Found atomic mass :    26.9815386000000      amu
  | Found l_max for Hartree potential  :   4
  | Found cutoff potl. onset [A], width [A], scale factor :    3.50000    1.50000    1.00000
  | Threshold for basis-dependent cutoff potential is   0.100000E-03
  | Found data for basic radial integration grid :    41 points, outermost radius =    5.000 A
  | Found multiplier for basic radial grid :   1
  | Found angular grid specification: user-specified.
  | Specified grid contains     4 separate shells.
  | Check grid settings after all constraints further below.
  | Found free-atom valence shell :  3 s   2.000
  | Found free-atom valence shell :  3 p   1.000
  | Found free-ion valence shell :  3 s   1.000
  | Found free-ion valence shell :  2 p   6.000
  | Found ionic basis function :  3 d , default cutoff radius.
  | Found ionic basis function :  3 p , default cutoff radius.
  | Found ionic basis function :  3 s , default cutoff radius.
  Species Al                  : Missing cutoff potential type.
  Defaulting to exp(1/x)/(1-x)^2 type cutoff potential.
  Species Al: No 'logarithmic' tag. Using default grid for free atom:
  | Default logarithmic grid data [bohr] : 0.1000E-03 0.1000E+03 0.1012E+01
  | Will include ionic basis functions of  2.0-fold positive Al                   ion.
  Species Al: On-site basis accuracy parameter (for Gram-Schmidt orthonormalisation) not specified.
  Using default value basis_acc =  0.1000000E-03.
  Species Al                  : Using default innermost maximum threshold i_radial=  2 for radial functions.
  Species Al                  : Default cutoff onset for free atom density etc. : 0.35000000E+01 AA.
  Species Al                  : Basic radial grid will be enhanced according to radial_multiplier =   1, to contain    41 grid points.
 
  Reading configuration options for species F                   .
  | Found nuclear charge :   9.0000
  | Found atomic mass :    18.9984032000000      amu
  | Found l_max for Hartree potential  :   4
  | Found cutoff potl. onset [A], width [A], scale factor :    3.50000    1.50000    1.00000
  | Threshold for basis-dependent cutoff potential is   0.100000E-03
  | Found data for basic radial integration grid :    37 points, outermost radius =    5.000 A
  | Found multiplier for basic radial grid :   1
  | Found angular grid specification: user-specified.
  | Specified grid contains     4 separate shells.
  | Check grid settings after all constraints further below.
  | Found free-atom valence shell :  2 s   2.000
  | Found free-atom valence shell :  2 p   5.000
  | Found free-ion valence shell :  2 s   1.000
  | Found free-ion valence shell :  2 p   4.000
  | Found hydrogenic basis function :  2 p   1.700
  | Found hydrogenic basis function :  3 d   7.400
  | Found hydrogenic basis function :  3 s   6.800
  Species F                   : Missing cutoff potential type.
  Defaulting to exp(1/x)/(1-x)^2 type cutoff potential.
  Species F : No 'logarithmic' tag. Using default grid for free atom:
  | Default logarithmic grid data [bohr] : 0.1000E-03 0.1000E+03 0.1012E+01
  Species F : On-site basis accuracy parameter (for Gram-Schmidt orthonormalisation) not specified.
  Using default value basis_acc =  0.1000000E-03.
  Species F                   : Using default innermost maximum threshold i_radial=  2 for radial functions.
  Species F                   : Default cutoff onset for free atom density etc. : 0.35000000E+01 AA.
  Species F                   : Basic radial grid will be enhanced according to radial_multiplier =   1, to contain    37 grid points.
 
  Finished reading input file 'control.in'.
 
------------------------------------------------------------


------------------------------------------------------------
          Reading geometry description geometry.in.
------------------------------------------------------------
  | The smallest distance between any two atoms is         1.80565981 AA.
  | The first atom of this pair is atom number                      1 .
  | The second atom of this pair is atom number                    11 .
  Input structure read successfully.
  The structure contains       12 atoms,  and a total of        120.000 electrons.

  Input geometry:
  | No unit cell requested.
  | Atomic structure:
  |       Atom                x [A]            y [A]            z [A]
  |    1: Species Al            0.43276240       -0.52099788        1.71524372
  |    2: Species Al            2.31818056       -1.86688225       -0.56450269
  |    3: Species Al           -0.94303738       -1.82963814       -0.92157134
  |    4: Species F             3.46464151       -0.61172999       -1.22950840
  |    5: Species F            -1.87066205       -0.57152109       -1.84457902
  |    6: Species F             2.66515859       -3.63681768       -0.47815539
  |    7: Species F            -1.31626957       -3.60681239       -0.93714667
  |    8: Species F             1.93004600       -1.40760413        1.17311300
  |    9: Species F             0.78333016       -1.56960088       -1.49234606
  |   10: Species F             0.21410335       -1.04011384        3.44954108
  |   11: Species F             0.50448038        1.18022117        1.11431307
  |   12: Species F            -0.94094587       -1.38596732        0.84213641

 
  Finished reading input file 'control.in'.
 

------------------------------------------------------------
          Reading geometry description geometry.in.
------------------------------------------------------------
 
  Consistency checks for stacksize environment parameter are next.
 
  | Maximum stacksize for task 0: unlimited
  | Maximum stacksize for task 1: unlimited
  | Maximum stacksize for task 2: unlimited
  | Maximum stacksize for task 3: unlimited
  | Maximum stacksize for task 4: unlimited
  | Maximum stacksize for task 5: unlimited
  | Maximum stacksize for task 6: unlimited
  | Maximum stacksize for task 7: unlimited
  | Maximum stacksize for task 8: unlimited
  | Maximum stacksize for task 9: unlimited
  | Maximum stacksize for task 10: unlimited
  | Maximum stacksize for task 11: unlimited
  | Maximum stacksize for task 12: unlimited
  | Maximum stacksize for task 13: unlimited
  | Maximum stacksize for task 14: unlimited
  | Maximum stacksize for task 15: unlimited
  | Maximum stacksize for task 16: unlimited
  | Maximum stacksize for task 17: unlimited
  | Maximum stacksize for task 18: unlimited
  | Maximum stacksize for task 19: unlimited
  | Maximum stacksize for task 20: unlimited
  | Maximum stacksize for task 21: unlimited
  | Maximum stacksize for task 22: unlimited
  | Maximum stacksize for task 23: unlimited
  | Current stacksize for task 0: unlimited
  | Current stacksize for task 1: unlimited
  | Current stacksize for task 2: unlimited
  | Current stacksize for task 3: unlimited
  | Current stacksize for task 4: unlimited
  | Current stacksize for task 5: unlimited
  | Current stacksize for task 6: unlimited
  | Current stacksize for task 7: unlimited
  | Current stacksize for task 8: unlimited
  | Current stacksize for task 9: unlimited
  | Current stacksize for task 10: unlimited
  | Current stacksize for task 11: unlimited
  | Current stacksize for task 12: unlimited
  | Current stacksize for task 13: unlimited
  | Current stacksize for task 14: unlimited
  | Current stacksize for task 15: unlimited
  | Current stacksize for task 16: unlimited
  | Current stacksize for task 17: unlimited
  | Current stacksize for task 18: unlimited
  | Current stacksize for task 19: unlimited
  | Current stacksize for task 20: unlimited
  | Current stacksize for task 21: unlimited
  | Current stacksize for task 22: unlimited
  | Current stacksize for task 23: unlimited
 
  Consistency checks for the contents of control.in are next.
 
  MPI_IN_PLACE appears to work with this MPI implementation.
  | Keeping use_mpi_in_place .true. (see manual).
  Target number of points in a grid batch is not set. Defaulting to  100
  Method for grid partitioning is not set. Defaulting to parallel hash+maxmin partitioning.
  Batch size limit is not set. Defaulting to    200
  By default, will store active basis functions for each batch.
  If in need of memory, prune_basis_once .false. can be used to disable this option.
  communication_type for Hartree potential was not specified.
  Defaulting to calc_hartree .
  Pulay mixer: Number of initial linear mixing iterations not set.
  Defaulting to    0 iterations.
  Work space size for distributed Hartree potential not set.
  Defaulting to   0.200000E+03 MB.
  Algorithm-dependent basis array size parameters:
  | n_max_pulay                         :       10
  Presetting      1001 iterations before the initial mixing cycle
  is restarted anyway using the sc_init_iter criterion / keyword.
  Presetting a factor      1.000 between actual scf density residual
  and density convergence criterion sc_accuracy_rho below which sc_init_iter
  takes no effect.
  Geometry relaxation not requested: no relaxation will be performed.
  Forces evaluation will include force correction term due to incomplete self-consistency (default).
  Handling of forces: Unphysical translation and rotation will be removed from forces.
  No accuracy limit for integral partition fn. given. Defaulting to  0.1000E-14.
  No threshold value for u(r) in integrations given. Defaulting to  0.1000E-05.
  No accuracy for occupation numbers given. Defaulting to  0.1000E-12.
  No threshold value for occupation numbers given. Defaulting to  0.0000E+00.
  No accuracy for fermi level given. Defaulting to  0.1000E-19.
  Maximum # of iterations to find E_F not set. Defaulting to  200.
  Preferred method for the eigenvalue solver ('KS_method') not specified in 'control.in'.
  Calling BLACS routine to test compilation state
  Since ScaLAPACK support is enabled, defaulting to ELPA (via ELSI).
  Will not use alltoall communication since running on < 1024 CPUs.
  Threshold for basis singularities not set.
  Default threshold for basis singularities:  0.1000E-04
  partition_type (choice of integration weights) for integrals was not specified.
  | Using a version of the partition function of Stratmann and coworkers ('stratmann_sparse').
  | At each grid point, the set of atoms used to build the partition table is smoothly restricted to
  | only those atoms whose free-atom density would be non-zero at that grid point.
  Partitioning for Hartree potential was not defined. Using partition_type for integrals.
  | Adjusted default value of keyword multip_moments_threshold to:       0.10000000E-11
  | This value may affect high angular momentum components of the Hartree potential in periodic systems.
  No q(lm)/r^(l+1) cutoff set for long-range Hartree potential.
  | Using default value of  0.100000E-09 .
  | Verify using the multipole_threshold keyword.
  Defaulting to new monopole extrapolation.
  Density update method: automatic selection selected.
  Charge integration errors on the 3D integration grid will be compensated
  by explicit normalization and distribution of residual charges.
  Use the "compensate_multipole_errors" flag to change this behaviour.
  Set 'collect_eigenvectors' to be '.true.' for use_density_matrix .false.
 
  Consistency checks for the contents of geometry.in are next.
 
  Number of empty states per atom not set in control.in - providing a guess from actual geometry.
  | Total number of empty states used during s.c.f. cycle:       36
  If you use a very high smearing, use empty_states (per atom!) in control.in to increase this value.

  Structure-dependent array size parameters: 
  | Maximum number of distinct radial functions  :       14
  | Maximum number of basis functions            :      180
  | Number of Kohn-Sham states (occupied + empty):       96
------------------------------------------------------------

------------------------------------------------------------
          Preparing all fixed parts of the calculation.
------------------------------------------------------------
  Determining machine precision:
    2.225073858507201E-308
  Setting up grids for atomic and cluster calculations.

  Creating wave function, potential, and density for free atoms.

  Species: Al

  List of occupied orbitals and eigenvalues:
    n    l              occ      energy [Ha]    energy [eV]
    1    0           2.0000       -55.621123     -1513.5278
    2    0           2.0000        -3.957030      -107.6763
    3    0           2.0000        -0.272233        -7.4078
    2    1           6.0000        -2.540949       -69.1427
    3    1           1.0000        -0.083300        -2.2667


  Species: F

  List of occupied orbitals and eigenvalues:
    n    l              occ      energy [Ha]    energy [eV]
    1    0           2.0000       -24.399611      -663.9472
    2    0           2.0000        -1.098702       -29.8972
    2    1           5.0000        -0.408210       -11.1080


  Adding cutoff potential to free-atom effective potential.
  Creating fixed part of basis set: Ionic, confined, hydrogenic.
 
  Al                   ion:

  List of free ionic orbitals and eigenvalues:
    n    l      energy [Ha]    energy [eV]
    1    0       -56.418846     -1535.2349
    2    0        -4.732717      -128.7838
    3    0        -0.872690       -23.7471
    2    1        -3.317230       -90.2664


  List of ionic basis orbitals and eigenvalues:
    n    l      energy [Ha]    energy [eV]    outer radius [A]
    3    2        -0.346815        -9.4373       4.594041
    3    1        -0.631870       -17.1940       4.538221
    3    0        -0.872657       -23.7462       4.538221

 
  F                    hydrogenic:
 
  List of hydrogenic basis orbitals: 
    n    l      effective z      eigenvalue [eV]  inner max. [A]     outer max. [A]     outer radius [A]   
    2    1         1.700000        -9.7616           1.243167           1.243167           4.598524
    3    2         7.400000       -82.7828           0.642437           0.642437           3.305741
    3    0         6.800000       -69.9026           0.057798           1.022307           3.781556
 
  Creating atomic-like basis functions for current effective potential.

  Species Al                  :

  List of atomic basis orbitals and eigenvalues:
    n    l      energy [Ha]    energy [eV]    outer radius [A]
    1    0       -55.621123     -1513.5278       0.850197
    2    0        -3.957030      -107.6763       3.144911
    3    0        -0.272233        -7.4078       4.594041
    2    1        -2.540949       -69.1427       3.731966
    3    1        -0.083300        -2.2667       4.594041


  Species F                   :

  List of atomic basis orbitals and eigenvalues:
    n    l      energy [Ha]    energy [eV]    outer radius [A]
    1    0       -24.399611      -663.9472       1.258458
    2    0        -1.098702       -29.8972       4.325857
    2    1        -0.408210       -11.1080       4.487453

  Assembling full basis from fixed parts.
  | Species Al :   atomic orbital   1 s accepted.
  | Species Al :   atomic orbital   2 s accepted.
  | Species Al :    ionic orbital   3 s accepted.
  | Species Al :   atomic orbital   3 s accepted.
  | Species Al :   atomic orbital   2 p accepted.
  | Species Al :    ionic orbital   3 p accepted.
  | Species Al :   atomic orbital   3 p accepted.
  | Species Al :    ionic orbital   3 d accepted.
  | Species F :   atomic orbital   1 s accepted.
  | Species F :    hydro orbital   3 s accepted.
  | Species F :   atomic orbital   2 s accepted.
  | Species F :   atomic orbital   2 p accepted.
  | Species F :    hydro orbital   2 p accepted.
  | Species F :    hydro orbital   3 d accepted.
 
  Basis size parameters after reduction:
  | Total number of radial functions:       14
  | Total number of basis functions :      180
 
  Per-task memory consumption for arrays in subroutine allocate_ext:
  |           4.807768MB.
  Testing on-site integration grid accuracy.
  |  Species  Function  <phi|h_atom|phi> (log., in eV)  <phi|h_atom|phi> (rad., in eV)
           1        1              -1513.5277717935              -1513.5271881332
           1        2               -107.6762691836               -107.6762662489
           1        3                 -6.9467474784                 -6.9471269649
           1        4                  5.5771951849                  5.4862107220 ***
           1        5                -69.1427313144                -69.1427312731
           1        6                 -1.5197375330                 -1.5230432022
           1        7                  6.8210948310                  6.5529872240 ***
           1        8                  4.3216540965                  4.2851170187 ***
           2        9               -663.9471986398               -663.9470363334
           2       10                 16.8514011578                 16.8512525338
           2       11                -28.4490593856                -28.4490661472
           2       12                -11.1080115307                -11.1080620173
           2       13                  7.1940182175                  7.1685154137
           2       14                 44.8544281765                 44.8543763625
 * Note: Onsite integrals marked "***" above are less accurate than
 * onsite_accuracy_threshold =    0.03000 eV. Usually, this is harmless.
 * When in doubt, tighten the "radial" and/or "radial_multiplier" flags to check.

  Preparing densities etc. for the partition functions (integrals / Hartree potential).

  Preparations completed.
  max(cpu_time)          :      0.184 s.
  Wall clock time (cpu1) :      0.183 s.
------------------------------------------------------------

------------------------------------------------------------
          Begin self-consistency loop: Initialization.

          Date     :  20220517, Time     :  114330.574
------------------------------------------------------------

  Initializing index lists of integration centers etc. from given atomic structure:
  | Number of centers in hartree potential         :        12
  | Number of centers in hartree multipole         :        12
  | Number of centers in electron density summation:        12
  | Number of centers in basis integrals           :        12
  | Number of centers in integrals                 :        12
  | Number of centers in hamiltonian               :        12
  * Using 24 tasks for Scalapack Eigenvalue solver.
  Detailed listing of tasks and assigned k-points:
  (for non-periodic systems, the "k-point" denotes an internal label only)
   Task     0 k-point     1 on node-k98a-025
   Task     1 k-point     1 on node-k98a-025
   Task     2 k-point     1 on node-k98a-025
   Task     3 k-point     1 on node-k98a-025
   Task     4 k-point     1 on node-k98a-025
   Task     5 k-point     1 on node-k98a-025
   Task     6 k-point     1 on node-k98a-025
   Task     7 k-point     1 on node-k98a-025
   Task     8 k-point     1 on node-k98a-025
   Task     9 k-point     1 on node-k98a-025
   Task    10 k-point     1 on node-k98a-025
   Task    11 k-point     1 on node-k98a-025
   Task    12 k-point     1 on node-k98a-025
   Task    13 k-point     1 on node-k98a-025
   Task    14 k-point     1 on node-k98a-025
   Task    15 k-point     1 on node-k98a-025
   Task    16 k-point     1 on node-k98a-025
   Task    17 k-point     1 on node-k98a-025
   Task    18 k-point     1 on node-k98a-025
   Task    19 k-point     1 on node-k98a-025
   Task    20 k-point     1 on node-k98a-025
   Task    21 k-point     1 on node-k98a-025
   Task    22 k-point     1 on node-k98a-025
   Task    23 k-point     1 on node-k98a-025
  Tasks:    24 split into      6 X      4 BLACS grid
  Calculating block size based on n_basis =          180  max_nprow =            6  max_npcol =            4
  ScaLAPACK block size set to:           16
  Allocating        0.012 MB for ovlp
  Allocating        0.012 MB for ham
  Allocating        0.012 MB for eigenvec
  Required Scalapack workspace - INTEGER:            1  REAL:             1
  Partitioning the integration grid into batches with parallel hashing+maxmin method.
  | Number of batches:     1028
  | Maximal batch size:     192
  | Minimal batch size:      18
  | Average batch size:      89.416
  | Standard deviation of batch sizes:      24.596

  Integration load balanced across    24 MPI tasks.
  Work distribution over tasks is as follows:
  Task     0 has       3792 integration points.
  Task     1 has       3812 integration points.
  Task     2 has       3807 integration points.
  Task     3 has       3816 integration points.
  Task     4 has       3925 integration points.
  Task     5 has       3802 integration points.
  Task     6 has       3944 integration points.
  Task     7 has       3792 integration points.
  Task     8 has       3794 integration points.
  Task     9 has       3932 integration points.
  Task    10 has       3820 integration points.
  Task    11 has       3825 integration points.
  Task    12 has       3811 integration points.
  Task    13 has       3804 integration points.
  Task    14 has       3817 integration points.
  Task    15 has       3828 integration points.
  Task    16 has       3820 integration points.
  Task    17 has       3794 integration points.
  Task    18 has       3837 integration points.
  Task    19 has       3809 integration points.
  Task    20 has       3802 integration points.
  Task    21 has       3933 integration points.
  Task    22 has       3808 integration points.
  Task    23 has       3796 integration points.
  Initializing partition tables, free-atom densities, potentials, etc. across the integration grid (initialize_grid_storage).
  | initialize_grid_storage: Actual outermost partition radius vs. multipole_radius_free
  | (-- VB: in principle, multipole_radius_free should be larger, hence this output)
  | Species        1: Confinement radius =              4.999999999999999 AA, multipole_radius_free =              5.004487022111096 AA.
  | Species        1: outer_partition_radius set to              5.004487022111096 AA .
  | Species        2: Confinement radius =              4.999999999999999 AA, multipole_radius_free =              5.009370088163274 AA.
  | Species        2: outer_partition_radius set to              5.009370088163274 AA .
  | The sparse table of interatomic distances needs          1.64 kbyte instead of         1.15 kbyte of memory.
  | Using the partition_type stratmann_smoother will reduce your memory usage.
  | Net number of integration points:    91920
  | of which are non-zero points    :    85828
  Renormalizing the initial density to the exact electron count on the 3D integration grid.
  | Initial density: Formal number of electrons (from input files) :     120.0000000000
  | Integrated number of electrons on 3D grid     :     119.9999820594
  | Charge integration error                      :      -0.0000179406
  | Normalization factor for density and gradient :       1.0000001495
  Renormalizing the free-atom superposition density to the exact electron count on the 3D integration grid.
  | Formal number of electrons (from input files) :     120.0000000000
  | Integrated number of electrons on 3D grid     :     119.9999820594
  | Charge integration error                      :      -0.0000179406
  | Normalization factor for density and gradient :       1.0000001495
  Obtaining max. number of non-zero basis functions in each batch (get_n_compute_maxes).
  | Maximal number of non-zero basis functions:      169 in task     0
  | Maximal number of non-zero basis functions:      164 in task     1
  | Maximal number of non-zero basis functions:      163 in task     2
  | Maximal number of non-zero basis functions:      170 in task     3
  | Maximal number of non-zero basis functions:      171 in task     4
  | Maximal number of non-zero basis functions:      169 in task     5
  | Maximal number of non-zero basis functions:      171 in task     6
  | Maximal number of non-zero basis functions:      163 in task     7
  | Maximal number of non-zero basis functions:      169 in task     8
  | Maximal number of non-zero basis functions:      164 in task     9
  | Maximal number of non-zero basis functions:      165 in task    10
  | Maximal number of non-zero basis functions:      166 in task    11
  | Maximal number of non-zero basis functions:      163 in task    12
  | Maximal number of non-zero basis functions:      164 in task    13
  | Maximal number of non-zero basis functions:      171 in task    14
  | Maximal number of non-zero basis functions:      171 in task    15
  | Maximal number of non-zero basis functions:      164 in task    16
  | Maximal number of non-zero basis functions:      170 in task    17
  | Maximal number of non-zero basis functions:      170 in task    18
  | Maximal number of non-zero basis functions:      166 in task    19
  | Maximal number of non-zero basis functions:      164 in task    20
  | Maximal number of non-zero basis functions:      165 in task    21
  | Maximal number of non-zero basis functions:      167 in task    22
  | Maximal number of non-zero basis functions:      164 in task    23
  Selecting the method for density update.
  Loop over occupied states selected for charge density update.
  Allocating        0.132 MB for KS_eigenvector
  Integrating Hamiltonian matrix: batch-based integration.
  Time summed over all CPUs for integration: real work        0.723 s, elapsed        0.770 s
  Integrating overlap matrix.
  Time summed over all CPUs for integration: real work        0.277 s, elapsed        0.299 s
  Deallocating overlap matrix.

  Updating Kohn-Sham eigenvalues and eigenvectors using ELSI and the ELPA eigensolver.
  Overlap matrix is not singular
  | Lowest and highest eigenvalues :  0.4122E-02,  0.5150E+01
  Finished singularity check of overlap matrix
  | Time :     0.004 s
  Starting ELPA eigensolver
  Finished Cholesky decomposition
  | Time :     0.002 s
  Finished transformation to standard eigenproblem
  | Time :     0.000 s
  Finished solving standard eigenproblem
  | Time :     0.004 s
  Finished back-transformation of eigenvectors
  | Time :     0.000 s

  Obtaining occupation numbers and chemical potential using ELSI.
  | Chemical potential (Fermi level):    -7.68495206 eV
  Writing Kohn-Sham eigenvalues.

  State    Occupation    Eigenvalue [Ha]    Eigenvalue [eV]
      1       2.00000         -55.483501        -1509.78289
      2       2.00000         -55.483498        -1509.78280
      3       2.00000         -55.483486        -1509.78247
      4       2.00000         -24.377069         -663.33379
      5       2.00000         -24.376261         -663.31182
      6       2.00000         -24.376222         -663.31076
      7       2.00000         -24.341800         -662.37407
      8       2.00000         -24.341798         -662.37403
      9       2.00000         -24.340658         -662.34301
     10       2.00000         -24.340573         -662.34069
     11       2.00000         -24.339713         -662.31728
     12       2.00000         -24.339493         -662.31130
     13       2.00000          -3.948793         -107.45212
     14       2.00000          -3.948787         -107.45197
     15       2.00000          -3.948762         -107.45127
     16       2.00000          -2.541161          -69.14851
     17       2.00000          -2.541144          -69.14804
     18       2.00000          -2.541123          -69.14747
     19       2.00000          -2.540620          -69.13378
     20       2.00000          -2.540586          -69.13287
     21       2.00000          -2.540547          -69.13181
     22       2.00000          -2.540421          -69.12838
     23       2.00000          -2.540402          -69.12786
     24       2.00000          -2.540342          -69.12622
     25       2.00000          -1.205380          -32.80006
     26       2.00000          -1.198766          -32.62007
     27       2.00000          -1.198137          -32.60298
     28       2.00000          -1.151198          -31.32570
     29       2.00000          -1.150918          -31.31806
     30       2.00000          -1.150060          -31.29474
     31       2.00000          -1.147915          -31.23635
     32       2.00000          -1.147368          -31.22146
     33       2.00000          -1.147075          -31.21351
     34       2.00000          -0.578169          -15.73277
     35       2.00000          -0.577065          -15.70274
     36       2.00000          -0.553683          -15.06648
     37       2.00000          -0.538066          -14.64153
     38       2.00000          -0.514098          -13.98932
     39       2.00000          -0.504813          -13.73666
     40       2.00000          -0.503843          -13.71026
     41       2.00000          -0.498918          -13.57626
     42       2.00000          -0.494851          -13.46559
     43       2.00000          -0.494219          -13.44837
     44       2.00000          -0.493938          -13.44075
     45       2.00000          -0.493549          -13.43015
     46       2.00000          -0.482420          -13.12732
     47       2.00000          -0.481007          -13.08888
     48       2.00000          -0.478144          -13.01097
     49       2.00000          -0.456483          -12.42154
     50       2.00000          -0.455554          -12.39626
     51       2.00000          -0.455529          -12.39557
     52       2.00000          -0.453234          -12.33313
     53       2.00000          -0.452920          -12.32458
     54       2.00000          -0.451408          -12.28343
     55       2.00000          -0.450006          -12.24528
     56       2.00000          -0.449303          -12.22617
     57       2.00000          -0.448856          -12.21399
     58       2.00000          -0.447704          -12.18265
     59       2.00000          -0.447443          -12.17553
     60       2.00000          -0.447198          -12.16887
     61       0.00000          -0.137297           -3.73604
     62       0.00000          -0.080607           -2.19342
     63       0.00000          -0.079448           -2.16190
     64       0.00000          -0.024590           -0.66914
     65       0.00000          -0.011142           -0.30320
     66       0.00000          -0.002034           -0.05535
     67       0.00000          -0.000372           -0.01013
     68       0.00000           0.039155            1.06547
     69       0.00000           0.053805            1.46412
     70       0.00000           0.054091            1.47188
     71       0.00000           0.081976            2.23067
     72       0.00000           0.082808            2.25331
     73       0.00000           0.138124            3.75854
     74       0.00000           0.161892            4.40530
     75       0.00000           0.163437            4.44734
     76       0.00000           0.182632            4.96966
     77       0.00000           0.185266            5.04135
     78       0.00000           0.190930            5.19547
     79       0.00000           0.194958            5.30508
     80       0.00000           0.200223            5.44834
     81       0.00000           0.204869            5.57477
     82       0.00000           0.213424            5.80757
     83       0.00000           0.214284            5.83095
     84       0.00000           0.228344            6.21356
     85       0.00000           0.238848            6.49939
     86       0.00000           0.253436            6.89634
     87       0.00000           0.273524            7.44297
     88       0.00000           0.295765            8.04818
     89       0.00000           0.299269            8.14353
     90       0.00000           0.302732            8.23776
     91       0.00000           0.304663            8.29031
     92       0.00000           0.317863            8.64949
     93       0.00000           0.349089            9.49919
     94       0.00000           0.351293            9.55917
     95       0.00000           0.356630            9.70440
     96       0.00000           0.372142           10.12649

  Highest occupied state (VBM) at    -12.16887142 eV
  | Occupation number:      2.00000000

  Lowest unoccupied state (CBM) at    -3.73604072 eV
  | Occupation number:      0.00000000

  Overall HOMO-LUMO gap:      8.43283070 eV.
  Calculating total energy contributions from superposition of free atom densities.

  Total energy components:
  | Sum of eigenvalues            :        -887.87200237 Ha      -24160.22644319 eV
  | XC energy correction          :        -144.33106494 Ha       -3927.44810332 eV
  | XC potential correction       :         187.92756584 Ha        5113.76925218 eV
  | Free-atom electrostatic energy:        -781.11315637 Ha      -21255.17043608 eV
  | Hartree energy correction     :           0.00000000 Ha           0.00000000 eV
  | Entropy correction            :           0.00000000 Ha           0.00000000 eV
  | ---------------------------
  | Total energy                  :       -1625.38865784 Ha      -44229.07573041 eV
  | Total energy, T -> 0          :       -1625.38865784 Ha      -44229.07573041 eV  <-- do not rely on this value for anything but (periodic) metals
  | Electronic free energy        :       -1625.38865784 Ha      -44229.07573041 eV

  Derived energy quantities:
  | Kinetic energy                :        1627.58469254 Ha       44288.83287497 eV
  | Electrostatic energy          :       -3108.64228544 Ha      -84590.46050206 eV
  | Energy correction for multipole
  | error in Hartree potential    :           0.00000000 Ha           0.00000000 eV
  | Sum of eigenvalues per atom                           :       -2013.35220360 eV
  | Total energy (T->0) per atom                          :       -3685.75631087 eV  <-- do not rely on this value for anything but (periodic) metals
  | Electronic free energy per atom                       :       -3685.75631087 eV
  Initialize hartree_potential_storage
  Max. number of atoms included in rho_multipole:           12

  End scf initialization - timings             :  max(cpu_time)    wall_clock(cpu1)
  | Time for scf. initialization                :        0.116 s           0.117 s
  | Boundary condition initialization           :        0.000 s           0.001 s
  | Integration                                 :        0.046 s           0.046 s
  | Solution of K.-S. eqns.                     :        0.011 s           0.012 s
  | Grid partitioning                           :        0.036 s           0.036 s
  | Preloading free-atom quantities on grid     :        0.015 s           0.016 s
  | Free-atom superposition energy              :        0.005 s           0.005 s
  | Total energy evaluation                     :        0.000 s           0.000 s

  Partial memory accounting:
  | Current value for overall tracked memory usage:
  |   Minimum:        0.273 MB (on task 23)
  |   Maximum:        0.292 MB (on task  0)
  |   Average:        0.287 MB
  | Peak value for overall tracked memory usage:
  |   Minimum:        1.327 MB (on task 23 after allocating wave)
  |   Maximum:        1.395 MB (on task  4 after allocating wave)
  |   Average:        1.361 MB
  | Largest tracked array allocation so far:
  |   Minimum:        0.239 MB (H_times_psi on task  2)
  |   Maximum:        0.484 MB (all_coords on task  9)
  |   Average:        0.272 MB
  Note:  These values currently only include a subset of arrays which are explicitly tracked.
  The "true" memory usage will be greater.
------------------------------------------------------------
  Evaluating new KS density.
  Integration grid: deviation in total charge (<rho> - N_e) =   1.421085E-14

  Time for density update prior                :  max(cpu_time)    wall_clock(cpu1)
  | self-consistency iterative process          :        0.029 s           0.028 s

------------------------------------------------------------
          Begin self-consistency iteration #    1

  Date     :  20220517, Time     :  114330.720
------------------------------------------------------------
  Pulay mixing of updated and previous charge densities.
  Renormalizing the density to the exact electron count on the 3D integration grid.
  | Formal number of electrons (from input files) :     120.0000000000
  | Integrated number of electrons on 3D grid     :     120.0000000000
  | Charge integration error                      :      -0.0000000000
  | Normalization factor for density and gradient :       1.0000000000

  Evaluating partitioned Hartree potential by multipole expansion.
  | Original multipole sum: apparent total charge =  -0.293699E-13
  | Sum of charges compensated after spline to logarithmic grids =   0.107475E-03
  | Analytical far-field extrapolation by fixed multipoles:
  | Hartree multipole sum: apparent total charge =  -0.291363E-13
  Summing up the Hartree potential.
  Time summed over all CPUs for potential: real work        0.385 s, elapsed        0.397 s
  | RMS charge density error from multipole expansion :   0.105359E-01

  Integrating Hamiltonian matrix: batch-based integration.
  Time summed over all CPUs for integration: real work        0.675 s, elapsed        0.716 s

  Updating Kohn-Sham eigenvalues and eigenvectors using ELSI and the ELPA eigensolver.
  Starting ELPA eigensolver
  Finished transformation to standard eigenproblem
  | Time :     0.000 s
  Finished solving standard eigenproblem
  | Time :     0.003 s
  Finished back-transformation of eigenvectors
  | Time :     0.000 s

  Obtaining occupation numbers and chemical potential using ELSI.
  | Chemical potential (Fermi level):    -7.64034462 eV
  Writing Kohn-Sham eigenvalues.

  State    Occupation    Eigenvalue [Ha]    Eigenvalue [eV]
      1       2.00000         -55.648111        -1514.26214
      2       2.00000         -55.645520        -1514.19164
      3       2.00000         -55.645376        -1514.18773
      4       2.00000         -24.279342         -660.67450
      5       2.00000         -24.274733         -660.54910
      6       2.00000         -24.274570         -660.54466
      7       2.00000         -24.085926         -655.41140
      8       2.00000         -24.076896         -655.16567
      9       2.00000         -24.074392         -655.09754
     10       2.00000         -24.071118         -655.00846
     11       2.00000         -24.068759         -654.94424
     12       2.00000         -24.067943         -654.92205
     13       2.00000          -4.088578         -111.25588
     14       2.00000          -4.086200         -111.19117
     15       2.00000          -4.086078         -111.18785
     16       2.00000          -2.682038          -72.98197
     17       2.00000          -2.682020          -72.98147
     18       2.00000          -2.679710          -72.91863
     19       2.00000          -2.679637          -72.91662
     20       2.00000          -2.679577          -72.91499
     21       2.00000          -2.679572          -72.91485
     22       2.00000          -2.679506          -72.91306
     23       2.00000          -2.677126          -72.84830
     24       2.00000          -2.677005          -72.84500
     25       2.00000          -1.203046          -32.73654
     26       2.00000          -1.194447          -32.50257
     27       2.00000          -1.192265          -32.44319
     28       2.00000          -1.032920          -28.10718
     29       2.00000          -1.025227          -27.89784
     30       2.00000          -1.022828          -27.83257
     31       2.00000          -1.017827          -27.69647
     32       2.00000          -1.015603          -27.63597
     33       2.00000          -1.015368          -27.62956
     34       2.00000          -0.587945          -15.99880
     35       2.00000          -0.585047          -15.91995
     36       2.00000          -0.557928          -15.18200
     37       2.00000          -0.546048          -14.85873
     38       2.00000          -0.505415          -13.75303
     39       2.00000          -0.495313          -13.47814
     40       2.00000          -0.492833          -13.41066
     41       2.00000          -0.487084          -13.25423
     42       2.00000          -0.481887          -13.11280
     43       2.00000          -0.409125          -11.13287
     44       2.00000          -0.399451          -10.86961
     45       2.00000          -0.396823          -10.79809
     46       2.00000          -0.372282          -10.13031
     47       2.00000          -0.370020          -10.06877
     48       2.00000          -0.368102          -10.01656
     49       2.00000          -0.345208           -9.39357
     50       2.00000          -0.342974           -9.33280
     51       2.00000          -0.340110           -9.25486
     52       2.00000          -0.335777           -9.13696
     53       2.00000          -0.335126           -9.11925
     54       2.00000          -0.332520           -9.04832
     55       2.00000          -0.325580           -8.85948
     56       2.00000          -0.324813           -8.83861
     57       2.00000          -0.323996           -8.81638
     58       2.00000          -0.322742           -8.78226
     59       2.00000          -0.322419           -8.77346
     60       2.00000          -0.321440           -8.74684
     61       0.00000          -0.155486           -4.23098
     62       0.00000          -0.083973           -2.28502
     63       0.00000          -0.081462           -2.21669
     64       0.00000          -0.044375           -1.20750
     65       0.00000          -0.030962           -0.84251
     66       0.00000          -0.014946           -0.40671
     67       0.00000          -0.013353           -0.36334
     68       0.00000           0.024597            0.66933
     69       0.00000           0.034427            0.93681
     70       0.00000           0.037070            1.00873
     71       0.00000           0.055826            1.51911
     72       0.00000           0.056717            1.54335
     73       0.00000           0.133255            3.62604
     74       0.00000           0.151287            4.11673
     75       0.00000           0.163302            4.44366
     76       0.00000           0.178087            4.84600
     77       0.00000           0.178795            4.86526
     78       0.00000           0.186944            5.08700
     79       0.00000           0.191516            5.21142
     80       0.00000           0.194782            5.30029
     81       0.00000           0.196934            5.35884
     82       0.00000           0.202774            5.51777
     83       0.00000           0.212856            5.79212
     84       0.00000           0.218841            5.95496
     85       0.00000           0.227157            6.18126
     86       0.00000           0.247433            6.73301
     87       0.00000           0.264795            7.20543
     88       0.00000           0.280217            7.62508
     89       0.00000           0.285840            7.77811
     90       0.00000           0.288097            7.83952
     91       0.00000           0.295906            8.05202
     92       0.00000           0.300249            8.17018
     93       0.00000           0.323773            8.81030
     94       0.00000           0.336181            9.14795
     95       0.00000           0.366259            9.96641
     96       0.00000           0.375752           10.22474

  Highest occupied state (VBM) at     -8.74684059 eV
  | Occupation number:      2.00000000

  Lowest unoccupied state (CBM) at    -4.23097896 eV
  | Occupation number:      0.00000000

  Overall HOMO-LUMO gap:      4.51586163 eV.

  Total energy components:
  | Sum of eigenvalues            :        -882.67454048 Ha      -24018.79630949 eV
  | XC energy correction          :        -145.71049609 Ha       -3964.98433487 eV
  | XC potential correction       :         189.74066848 Ha        5163.10628539 eV
  | Free-atom electrostatic energy:        -781.11315637 Ha      -21255.17043608 eV
  | Hartree energy correction     :          -5.40488272 Ha        -147.07434177 eV
  | Entropy correction            :           0.00000000 Ha           0.00000000 eV
  | ---------------------------
  | Total energy                  :       -1625.16240718 Ha      -44222.91913681 eV
  | Total energy, T -> 0          :       -1625.16240718 Ha      -44222.91913681 eV  <-- do not rely on this value for anything but (periodic) metals
  | Electronic free energy        :       -1625.16240718 Ha      -44222.91913681 eV

  Derived energy quantities:
  | Kinetic energy                :        1634.28458257 Ha       44471.14615864 eV
  | Electrostatic energy          :       -3113.73649366 Ha      -84729.08096058 eV
  | Energy correction for multipole
  | error in Hartree potential    :           0.04523431 Ha           1.23088825 eV
  | Sum of eigenvalues per atom                           :       -2001.56635912 eV
  | Total energy (T->0) per atom                          :       -3685.24326140 eV  <-- do not rely on this value for anything but (periodic) metals
  | Electronic free energy per atom                       :       -3685.24326140 eV
  Evaluating new KS density.
  Integration grid: deviation in total charge (<rho> - N_e) =   0.000000E+00

  Self-consistency convergence accuracy:
  | Change of charge density      :  0.6127E+00
  | Change of sum of eigenvalues  :  0.1414E+03 eV
  | Change of total energy        :  0.6157E+01 eV


------------------------------------------------------------
  End self-consistency iteration #     1       :  max(cpu_time)    wall_clock(cpu1)
  | Time for this iteration                     :        0.082 s           0.082 s
  | Charge density update                       :        0.027 s           0.028 s
  | Density mixing                              :        0.001 s           0.001 s
  | Hartree multipole update                    :        0.001 s           0.001 s
  | Hartree multipole summation                 :        0.017 s           0.017 s
  | Integration                                 :        0.030 s           0.030 s
  | Solution of K.-S. eqns.                     :        0.004 s           0.004 s
  | Total energy evaluation                     :        0.000 s           0.000 s

  Partial memory accounting:
  | Current value for overall tracked memory usage:
  |   Minimum:        0.273 MB (on task 23)
  |   Maximum:        0.292 MB (on task  0)
  |   Average:        0.287 MB
  | Peak value for overall tracked memory usage:
  |   Minimum:        1.327 MB (on task 23 after allocating wave)
  |   Maximum:        1.395 MB (on task  4 after allocating wave)
  |   Average:        1.361 MB
  | Largest tracked array allocation so far:
  |   Minimum:        0.716 MB (gradient_basis_wave on task  2)
  |   Maximum:        0.751 MB (gradient_basis_wave on task  4)
  |   Average:        0.733 MB
  Note:  These values currently only include a subset of arrays which are explicitly tracked.
  The "true" memory usage will be greater.
------------------------------------------------------------

------------------------------------------------------------
          Begin self-consistency iteration #    2

  Date     :  20220517, Time     :  114330.807
------------------------------------------------------------
  Pulay mixing of updated and previous charge densities.
  Renormalizing the density to the exact electron count on the 3D integration grid.
  | Formal number of electrons (from input files) :     120.0000000000
  | Integrated number of electrons on 3D grid     :     120.0000000000
  | Charge integration error                      :       0.0000000000
  | Normalization factor for density and gradient :       1.0000000000

  Evaluating partitioned Hartree potential by multipole expansion.
  | Original multipole sum: apparent total charge =   0.686630E-13
  | Sum of charges compensated after spline to logarithmic grids =   0.677868E-04
  | Analytical far-field extrapolation by fixed multipoles:
  | Hartree multipole sum: apparent total charge =   0.693971E-13
  Summing up the Hartree potential.
  Time summed over all CPUs for potential: real work        0.381 s, elapsed        0.393 s
  | RMS charge density error from multipole expansion :   0.125250E-01

  Integrating Hamiltonian matrix: batch-based integration.
  Time summed over all CPUs for integration: real work        0.674 s, elapsed        0.715 s

  Updating Kohn-Sham eigenvalues and eigenvectors using ELSI and the ELPA eigensolver.
  Starting ELPA eigensolver
  Finished transformation to standard eigenproblem
  | Time :     0.001 s
  Finished solving standard eigenproblem
  | Time :     0.003 s
  Finished back-transformation of eigenvectors
  | Time :     0.000 s

  Obtaining occupation numbers and chemical potential using ELSI.
  | Chemical potential (Fermi level):    -7.80950916 eV
  Highest occupied state (VBM) at     -9.93279205 eV
  | Occupation number:      2.00000000

  Lowest unoccupied state (CBM) at    -4.41635804 eV
  | Occupation number:      0.00000000

  Overall HOMO-LUMO gap:      5.51643401 eV.

  Checking to see if s.c.f. parameters should be adjusted.

  Total energy components:
  | Sum of eigenvalues            :        -885.87639896 Ha      -24105.92331166 eV
  | XC energy correction          :        -145.20671286 Ha       -3951.27569569 eV
  | XC potential correction       :         189.07779207 Ha        5145.06850043 eV
  | Free-atom electrostatic energy:        -781.11315637 Ha      -21255.17043608 eV
  | Hartree energy correction     :          -1.97499466 Ha         -53.74233902 eV
  | Entropy correction            :           0.00000000 Ha           0.00000000 eV
  | ---------------------------
  | Total energy                  :       -1625.09347079 Ha      -44221.04328202 eV
  | Total energy, T -> 0          :       -1625.09347079 Ha      -44221.04328202 eV  <-- do not rely on this value for anything but (periodic) metals
  | Electronic free energy        :       -1625.09347079 Ha      -44221.04328202 eV

  Derived energy quantities:
  | Kinetic energy                :        1630.35072668 Ha       44364.10049363 eV
  | Electrostatic energy          :       -3110.23748461 Ha      -84633.86807996 eV
  | Energy correction for multipole
  | error in Hartree potential    :           0.04938001 Ha           1.34369837 eV
  | Sum of eigenvalues per atom                           :       -2008.82694264 eV
  | Total energy (T->0) per atom                          :       -3685.08694017 eV  <-- do not rely on this value for anything but (periodic) metals
  | Electronic free energy per atom                       :       -3685.08694017 eV
  Evaluating new KS density.
  Integration grid: deviation in total charge (<rho> - N_e) =  -1.421085E-14

  Self-consistency convergence accuracy:
  | Change of charge density      :  0.4943E+00
  | Change of sum of eigenvalues  : -0.8713E+02 eV
  | Change of total energy        :  0.1876E+01 eV


------------------------------------------------------------
  End self-consistency iteration #     2       :  max(cpu_time)    wall_clock(cpu1)
  | Time for this iteration                     :        0.085 s           0.082 s
  | Charge density update                       :        0.027 s           0.027 s
  | Density mixing                              :        0.005 s           0.001 s
  | Hartree multipole update                    :        0.001 s           0.002 s
  | Hartree multipole summation                 :        0.017 s           0.016 s
  | Integration                                 :        0.030 s           0.030 s
  | Solution of K.-S. eqns.                     :        0.004 s           0.005 s
  | Total energy evaluation                     :        0.000 s           0.000 s

  Partial memory accounting:
  | Current value for overall tracked memory usage:
  |   Minimum:        0.274 MB (on task 23)
  |   Maximum:        0.293 MB (on task  0)
  |   Average:        0.288 MB
  | Peak value for overall tracked memory usage:
  |   Minimum:        1.327 MB (on task 23 after allocating wave)
  |   Maximum:        1.395 MB (on task  4 after allocating wave)
  |   Average:        1.361 MB
  | Largest tracked array allocation so far:
  |   Minimum:        0.716 MB (gradient_basis_wave on task  2)
  |   Maximum:        0.751 MB (gradient_basis_wave on task  4)
  |   Average:        0.733 MB
  Note:  These values currently only include a subset of arrays which are explicitly tracked.
  The "true" memory usage will be greater.
------------------------------------------------------------

------------------------------------------------------------
          Begin self-consistency iteration #    3

  Date     :  20220517, Time     :  114330.896
------------------------------------------------------------
  Pulay mixing of updated and previous charge densities.
  Renormalizing the density to the exact electron count on the 3D integration grid.
  | Formal number of electrons (from input files) :     120.0000000000
  | Integrated number of electrons on 3D grid     :     120.0000000000
  | Charge integration error                      :      -0.0000000000
  | Normalization factor for density and gradient :       1.0000000000

  Evaluating partitioned Hartree potential by multipole expansion.
  | Original multipole sum: apparent total charge =  -0.840197E-13
  | Sum of charges compensated after spline to logarithmic grids =   0.865982E-04
  | Analytical far-field extrapolation by fixed multipoles:
  | Hartree multipole sum: apparent total charge =  -0.852804E-13
  Summing up the Hartree potential.
  Time summed over all CPUs for potential: real work        0.382 s, elapsed        0.394 s
  | RMS charge density error from multipole expansion :   0.172270E-01

  Integrating Hamiltonian matrix: batch-based integration.
  Time summed over all CPUs for integration: real work        0.674 s, elapsed        0.715 s

  Updating Kohn-Sham eigenvalues and eigenvectors using ELSI and the ELPA eigensolver.
  Starting ELPA eigensolver
  Finished transformation to standard eigenproblem
  | Time :     0.000 s
  Finished solving standard eigenproblem
  | Time :     0.004 s
  Finished back-transformation of eigenvectors
  | Time :     0.000 s

  Obtaining occupation numbers and chemical potential using ELSI.
  | Chemical potential (Fermi level):    -7.87709453 eV
  Highest occupied state (VBM) at     -9.72144569 eV
  | Occupation number:      2.00000000

  Lowest unoccupied state (CBM) at    -4.67325668 eV
  | Occupation number:      0.00000000

  Overall HOMO-LUMO gap:      5.04818900 eV.

  Total energy components:
  | Sum of eigenvalues            :        -886.99176198 Ha      -24136.27388363 eV
  | XC energy correction          :        -145.17612334 Ha       -3950.44331236 eV
  | XC potential correction       :         189.03618251 Ha        5143.93624663 eV
  | Free-atom electrostatic energy:        -781.11315637 Ha      -21255.17043608 eV
  | Hartree energy correction     :          -0.84757175 Ha         -23.06360089 eV
  | Entropy correction            :           0.00000000 Ha           0.00000000 eV
  | ---------------------------
  | Total energy                  :       -1625.09243094 Ha      -44221.01498633 eV
  | Total energy, T -> 0          :       -1625.09243094 Ha      -44221.01498633 eV  <-- do not rely on this value for anything but (periodic) metals
  | Electronic free energy        :       -1625.09243094 Ha      -44221.01498633 eV

  Derived energy quantities:
  | Kinetic energy                :        1628.68211186 Ha       44318.69517419 eV
  | Electrostatic energy          :       -3108.59841947 Ha      -84589.26684816 eV
  | Energy correction for multipole
  | error in Hartree potential    :           0.06502812 Ha           1.76950507 eV
  | Sum of eigenvalues per atom                           :       -2011.35615697 eV
  | Total energy (T->0) per atom                          :       -3685.08458219 eV  <-- do not rely on this value for anything but (periodic) metals
  | Electronic free energy per atom                       :       -3685.08458219 eV
  Evaluating new KS density.
  Integration grid: deviation in total charge (<rho> - N_e) =   2.842171E-14

  Self-consistency convergence accuracy:
  | Change of charge density      :  0.1259E+00
  | Change of sum of eigenvalues  : -0.3035E+02 eV
  | Change of total energy        :  0.2830E-01 eV


------------------------------------------------------------
  End self-consistency iteration #     3       :  max(cpu_time)    wall_clock(cpu1)
  | Time for this iteration                     :        0.085 s           0.082 s
  | Charge density update                       :        0.027 s           0.028 s
  | Density mixing                              :        0.005 s           0.001 s
  | Hartree multipole update                    :        0.001 s           0.002 s
  | Hartree multipole summation                 :        0.017 s           0.016 s
  | Integration                                 :        0.030 s           0.030 s
  | Solution of K.-S. eqns.                     :        0.005 s           0.005 s
  | Total energy evaluation                     :        0.000 s           0.000 s

  Partial memory accounting:
  | Current value for overall tracked memory usage:
  |   Minimum:        0.274 MB (on task 23)
  |   Maximum:        0.293 MB (on task  0)
  |   Average:        0.288 MB
  | Peak value for overall tracked memory usage:
  |   Minimum:        1.327 MB (on task 23 after allocating wave)
  |   Maximum:        1.395 MB (on task  4 after allocating wave)
  |   Average:        1.361 MB
  | Largest tracked array allocation so far:
  |   Minimum:        0.716 MB (gradient_basis_wave on task  2)
  |   Maximum:        0.751 MB (gradient_basis_wave on task  4)
  |   Average:        0.733 MB
  Note:  These values currently only include a subset of arrays which are explicitly tracked.
  The "true" memory usage will be greater.
------------------------------------------------------------

------------------------------------------------------------
          Begin self-consistency iteration #    4

  Date     :  20220517, Time     :  114330.984
------------------------------------------------------------
  Pulay mixing of updated and previous charge densities.
  Renormalizing the density to the exact electron count on the 3D integration grid.
  | Formal number of electrons (from input files) :     120.0000000000
  | Integrated number of electrons on 3D grid     :     120.0000000000
  | Charge integration error                      :       0.0000000000
  | Normalization factor for density and gradient :       1.0000000000

  Evaluating partitioned Hartree potential by multipole expansion.
  | Original multipole sum: apparent total charge =   0.594527E-13
  | Sum of charges compensated after spline to logarithmic grids =   0.953662E-04
  | Analytical far-field extrapolation by fixed multipoles:
  | Hartree multipole sum: apparent total charge =   0.546377E-13
  Summing up the Hartree potential.
  Time summed over all CPUs for potential: real work        0.382 s, elapsed        0.395 s
  | RMS charge density error from multipole expansion :   0.195200E-01

  Integrating Hamiltonian matrix: batch-based integration.
  Time summed over all CPUs for integration: real work        0.675 s, elapsed        0.715 s

  Updating Kohn-Sham eigenvalues and eigenvectors using ELSI and the ELPA eigensolver.
  Starting ELPA eigensolver
  Finished transformation to standard eigenproblem
  | Time :     0.000 s
  Finished solving standard eigenproblem
  | Time :     0.003 s
  Finished back-transformation of eigenvectors
  | Time :     0.000 s

  Obtaining occupation numbers and chemical potential using ELSI.
  | Chemical potential (Fermi level):    -7.87411242 eV
  Highest occupied state (VBM) at     -9.82083592 eV
  | Occupation number:      2.00000000

  Lowest unoccupied state (CBM) at    -4.62850185 eV
  | Occupation number:      0.00000000

  Overall HOMO-LUMO gap:      5.19233408 eV.

  Total energy components:
  | Sum of eigenvalues            :        -887.16828997 Ha      -24141.07745455 eV
  | XC energy correction          :        -145.15758293 Ha       -3949.93880223 eV
  | XC potential correction       :         189.01098616 Ha        5143.25061924 eV
  | Free-atom electrostatic energy:        -781.11315637 Ha      -21255.17043608 eV
  | Hartree energy correction     :          -0.66225963 Ha         -18.02100148 eV
  | Entropy correction            :           0.00000000 Ha           0.00000000 eV
  | ---------------------------
  | Total energy                  :       -1625.09030274 Ha      -44220.95707510 eV
  | Total energy, T -> 0          :       -1625.09030274 Ha      -44220.95707510 eV  <-- do not rely on this value for anything but (periodic) metals
  | Electronic free energy        :       -1625.09030274 Ha      -44220.95707510 eV

  Derived energy quantities:
  | Kinetic energy                :        1627.94134124 Ha       44298.53777998 eV
  | Electrostatic energy          :       -3107.87406105 Ha      -84569.55605285 eV
  | Energy correction for multipole
  | error in Hartree potential    :           0.07230530 Ha           1.96752722 eV
  | Sum of eigenvalues per atom                           :       -2011.75645455 eV
  | Total energy (T->0) per atom                          :       -3685.07975626 eV  <-- do not rely on this value for anything but (periodic) metals
  | Electronic free energy per atom                       :       -3685.07975626 eV
  Evaluating new KS density.
  Integration grid: deviation in total charge (<rho> - N_e) =   5.684342E-14

  Self-consistency convergence accuracy:
  | Change of charge density      :  0.8427E-01
  | Change of sum of eigenvalues  : -0.4804E+01 eV
  | Change of total energy        :  0.5791E-01 eV


------------------------------------------------------------
  End self-consistency iteration #     4       :  max(cpu_time)    wall_clock(cpu1)
  | Time for this iteration                     :        0.084 s           0.081 s
  | Charge density update                       :        0.027 s           0.027 s
  | Density mixing                              :        0.004 s           0.001 s
  | Hartree multipole update                    :        0.001 s           0.002 s
  | Hartree multipole summation                 :        0.017 s           0.016 s
  | Integration                                 :        0.030 s           0.031 s
  | Solution of K.-S. eqns.                     :        0.004 s           0.004 s
  | Total energy evaluation                     :        0.000 s           0.000 s

  Partial memory accounting:
  | Current value for overall tracked memory usage:
  |   Minimum:        0.274 MB (on task 23)
  |   Maximum:        0.293 MB (on task  0)
  |   Average:        0.288 MB
  | Peak value for overall tracked memory usage:
  |   Minimum:        1.327 MB (on task 23 after allocating wave)
  |   Maximum:        1.395 MB (on task  4 after allocating wave)
  |   Average:        1.361 MB
  | Largest tracked array allocation so far:
  |   Minimum:        0.716 MB (gradient_basis_wave on task  2)
  |   Maximum:        0.751 MB (gradient_basis_wave on task  4)
  |   Average:        0.733 MB
  Note:  These values currently only include a subset of arrays which are explicitly tracked.
  The "true" memory usage will be greater.
------------------------------------------------------------

------------------------------------------------------------
          Begin self-consistency iteration #    5

  Date     :  20220517, Time     :  114331.072
------------------------------------------------------------
  Pulay mixing of updated and previous charge densities.
  Renormalizing the density to the exact electron count on the 3D integration grid.
  | Formal number of electrons (from input files) :     120.0000000000
  | Integrated number of electrons on 3D grid     :     120.0000000000
  | Charge integration error                      :       0.0000000000
  | Normalization factor for density and gradient :       1.0000000000

  Evaluating partitioned Hartree potential by multipole expansion.
  | Original multipole sum: apparent total charge =   0.298863E-14
  | Sum of charges compensated after spline to logarithmic grids =   0.958385E-04
  | Analytical far-field extrapolation by fixed multipoles:
  | Hartree multipole sum: apparent total charge =   0.558369E-14
  Summing up the Hartree potential.
  Time summed over all CPUs for potential: real work        0.382 s, elapsed        0.395 s
  | RMS charge density error from multipole expansion :   0.192601E-01

  Integrating Hamiltonian matrix: batch-based integration.
  Time summed over all CPUs for integration: real work        0.675 s, elapsed        0.714 s

  Updating Kohn-Sham eigenvalues and eigenvectors using ELSI and the ELPA eigensolver.
  Starting ELPA eigensolver
  Finished transformation to standard eigenproblem
  | Time :     0.001 s
  Finished solving standard eigenproblem
  | Time :     0.003 s
  Finished back-transformation of eigenvectors
  | Time :     0.000 s

  Obtaining occupation numbers and chemical potential using ELSI.
  | Chemical potential (Fermi level):    -7.84317290 eV
  Highest occupied state (VBM) at     -9.85475919 eV
  | Occupation number:      2.00000000

  Lowest unoccupied state (CBM) at    -4.55685981 eV
  | Occupation number:      0.00000000

  Overall HOMO-LUMO gap:      5.29789938 eV.

  Total energy components:
  | Sum of eigenvalues            :        -886.93339266 Ha      -24134.68557348 eV
  | XC energy correction          :        -145.15205149 Ha       -3949.78828410 eV
  | XC potential correction       :         189.00395494 Ha        5143.05928988 eV
  | Free-atom electrostatic energy:        -781.11315637 Ha      -21255.17043608 eV
  | Hartree energy correction     :          -0.89552111 Ha         -24.36836929 eV
  | Entropy correction            :           0.00000000 Ha           0.00000000 eV
[...]
   Total forces(   7)            :  0.809517E+00  0.318010E+01  0.632484E-01
  atom #    8
   Hellmann-Feynman              :  0.581129E-01 -0.728949E+00  0.246832E+00
   Ionic forces                  :  0.000000E+00  0.000000E+00  0.000000E+00
   Multipole                     :  0.247739E+00 -0.811339E-01  0.201234E+00
   Hartree pot. SCF incomplete   : -0.107563E-07 -0.132951E-07 -0.382985E-06
   Pulay + GGA                   : -0.101864E+01  0.949239E+00 -0.120225E+01
   ----------------------------------------------------------------
   Total forces(   8)            : -0.712785E+00  0.139156E+00 -0.754190E+00
  atom #    9
   Hellmann-Feynman              : -0.100269E+00  0.836709E+00 -0.327323E+00
   Ionic forces                  :  0.000000E+00  0.000000E+00  0.000000E+00
   Multipole                     : -0.370739E-02  0.799937E-01 -0.300230E+00
   Hartree pot. SCF incomplete   : -0.953580E-07  0.806345E-06  0.996020E-06
   Pulay + GGA                   : -0.124268E+00 -0.106709E+01  0.159790E+01
   ----------------------------------------------------------------
   Total forces(   9)            : -0.228244E+00 -0.150390E+00  0.970343E+00
  atom #   10
   Hellmann-Feynman              : -0.376562E+00 -0.922327E+00  0.295369E+01
   Ionic forces                  :  0.000000E+00  0.000000E+00  0.000000E+00
   Multipole                     : -0.830927E-01 -0.257612E+00  0.637255E+00
   Hartree pot. SCF incomplete   : -0.873794E-07 -0.263796E-06  0.337734E-06
   Pulay + GGA                   :  0.864520E+00  0.216296E+01 -0.676840E+01
   ----------------------------------------------------------------
   Total forces(  10)            :  0.404865E+00  0.983022E+00 -0.317746E+01
  atom #   11
   Hellmann-Feynman              :  0.139642E+00  0.285406E+01 -0.125648E+01
   Ionic forces                  :  0.000000E+00  0.000000E+00  0.000000E+00
   Multipole                     :  0.357332E-01  0.718751E+00 -0.325712E+00
   Hartree pot. SCF incomplete   :  0.194088E-06 -0.149587E-05 -0.219112E-05
   Pulay + GGA                   : -0.277795E+00 -0.665928E+01  0.241471E+01
   ----------------------------------------------------------------
   Total forces(  11)            : -0.102420E+00 -0.308648E+01  0.832515E+00
  atom #   12
   Hellmann-Feynman              :  0.575196E-02 -0.599362E+00  0.479328E+00
   Ionic forces                  :  0.000000E+00  0.000000E+00  0.000000E+00
   Multipole                     : -0.254169E+00 -0.376475E-01  0.206169E+00
   Hartree pot. SCF incomplete   :  0.262021E-07 -0.251403E-07 -0.432079E-06
   Pulay + GGA                   :  0.121850E+01  0.869882E+00 -0.107106E+01
   ----------------------------------------------------------------
   Total forces(  12)            :  0.970085E+00  0.232873E+00 -0.385569E+00


  Self-consistency convergence accuracy:
  | Change of charge density      :  0.1144E-06
  | Change of sum of eigenvalues  : -0.8825E-05 eV
  | Change of total energy        :  0.1126E-08 eV
  | Change of forces              :  0.3352E-06 eV/A

  Writing Kohn-Sham eigenvalues.

  State    Occupation    Eigenvalue [Ha]    Eigenvalue [eV]
      1       2.00000         -55.631949        -1513.82235
      2       2.00000         -55.628610        -1513.73150
      3       2.00000         -55.628409        -1513.72602
      4       2.00000         -24.339437         -662.30977
      5       2.00000         -24.337224         -662.24955
      6       2.00000         -24.337105         -662.24632
      7       2.00000         -24.226175         -659.22776
      8       2.00000         -24.217300         -658.98626
      9       2.00000         -24.215784         -658.94502
     10       2.00000         -24.212763         -658.86281
     11       2.00000         -24.212063         -658.84376
     12       2.00000         -24.211506         -658.82860
     13       2.00000          -4.086413         -111.19696
     14       2.00000          -4.083227         -111.11027
     15       2.00000          -4.083046         -111.10533
     16       2.00000          -2.680033          -72.92740
     17       2.00000          -2.679006          -72.89947
     18       2.00000          -2.676898          -72.84210
     19       2.00000          -2.676723          -72.83733
     20       2.00000          -2.675821          -72.81281
     21       2.00000          -2.675617          -72.80725
     22       2.00000          -2.674690          -72.78201
     23       2.00000          -2.671412          -72.69281
     24       2.00000          -2.671238          -72.68807
     25       2.00000          -1.223063          -33.28125
     26       2.00000          -1.214936          -33.06009
     27       2.00000          -1.213245          -33.01407
     28       2.00000          -1.075419          -29.26364
     29       2.00000          -1.066760          -29.02802
     30       2.00000          -1.064501          -28.96654
     31       2.00000          -1.060003          -28.84415
     32       2.00000          -1.059008          -28.81706
     33       2.00000          -1.058032          -28.79051
     34       2.00000          -0.606462          -16.50267
     35       2.00000          -0.604272          -16.44309
     36       2.00000          -0.578377          -15.73843
     37       2.00000          -0.564907          -15.37190
     38       2.00000          -0.523271          -14.23892
     39       2.00000          -0.516496          -14.05457
     40       2.00000          -0.512981          -13.95892
     41       2.00000          -0.507123          -13.79953
     42       2.00000          -0.502243          -13.66672
     43       2.00000          -0.443546          -12.06950
     44       2.00000          -0.435482          -11.85007
     45       2.00000          -0.432472          -11.76817
     46       2.00000          -0.413655          -11.25613
     47       2.00000          -0.410611          -11.17329
     48       2.00000          -0.408863          -11.12573
     49       2.00000          -0.383588          -10.43797
     50       2.00000          -0.381209          -10.37323
     51       2.00000          -0.376815          -10.25366
     52       2.00000          -0.373623          -10.16681
     53       2.00000          -0.372801          -10.14443
     54       2.00000          -0.370703          -10.08734
     55       2.00000          -0.365268           -9.93944
     56       2.00000          -0.364960           -9.93107
     57       2.00000          -0.363921           -9.90280
     58       2.00000          -0.363189           -9.88287
     59       2.00000          -0.362223           -9.85660
     60       2.00000          -0.361391           -9.83394
     61       0.00000          -0.167771           -4.56528
     62       0.00000          -0.096037           -2.61331
     63       0.00000          -0.093239           -2.53716
     64       0.00000          -0.051540           -1.40248
     65       0.00000          -0.036866           -1.00317
     66       0.00000          -0.020110           -0.54722
     67       0.00000          -0.018429           -0.50149
     68       0.00000           0.021342            0.58075
     69       0.00000           0.029460            0.80164
     70       0.00000           0.030396            0.82713
     71       0.00000           0.049350            1.34287
     72       0.00000           0.050056            1.36210
     73       0.00000           0.124503            3.38789
     74       0.00000           0.146173            3.97758
     75       0.00000           0.157347            4.28162
     76       0.00000           0.172507            4.69415
     77       0.00000           0.173756            4.72815
     78       0.00000           0.178731            4.86352
     79       0.00000           0.184527            5.02123
     80       0.00000           0.187972            5.11499
     81       0.00000           0.188669            5.13395
     82       0.00000           0.196448            5.34561
     83       0.00000           0.205672            5.59662
     84       0.00000           0.210252            5.72124
     85       0.00000           0.219811            5.98136
     86       0.00000           0.239689            6.52228
     87       0.00000           0.258030            7.02136
     88       0.00000           0.274802            7.47775
     89       0.00000           0.280735            7.63919
     90       0.00000           0.282185            7.67863
     91       0.00000           0.290634            7.90856
     92       0.00000           0.296081            8.05677
     93       0.00000           0.319149            8.68449
     94       0.00000           0.329933            8.97792
     95       0.00000           0.357974            9.74098
     96       0.00000           0.367979           10.01321

  Highest occupied state (VBM) at     -9.83394114 eV
  | Occupation number:      2.00000000

  Lowest unoccupied state (CBM) at    -4.56528007 eV
  | Occupation number:      0.00000000

  Overall HOMO-LUMO gap:      5.26866107 eV.
  | Chemical Potential                          :    -7.84423943 eV

  Self-consistency cycle converged.


------------------------------------------------------------
  End self-consistency iteration #    14       :  max(cpu_time)    wall_clock(cpu1)
  | Time for this iteration                     :        0.269 s           0.270 s
  | Charge density & force component update     :        0.147 s           0.147 s
  | Density mixing                              :        0.005 s           0.005 s
  | Hartree multipole update                    :        0.001 s           0.002 s
  | Hartree multipole summation                 :        0.049 s           0.049 s
  | Hartree pot. SCF incomplete forces          :        0.032 s           0.031 s
  | Integration                                 :        0.030 s           0.030 s
  | Solution of K.-S. eqns.                     :        0.004 s           0.004 s
  | Total energy evaluation                     :        0.000 s           0.000 s

  Partial memory accounting:
  | Current value for overall tracked memory usage:
  |   Minimum:        0.274 MB (on task 23)
  |   Maximum:        0.293 MB (on task  0)
  |   Average:        0.289 MB
  | Peak value for overall tracked memory usage:
  |   Minimum:        2.935 MB (on task  7 after allocating hessian_basis_wave)
  |   Maximum:        3.061 MB (on task  4 after allocating hessian_basis_wave)
  |   Average:        2.996 MB
  | Largest tracked array allocation so far:
  |   Minimum:        1.433 MB (hessian_basis_wave on task  2)
  |   Maximum:        1.503 MB (hessian_basis_wave on task  4)
  |   Average:        1.466 MB
  Note:  These values currently only include a subset of arrays which are explicitly tracked.
  The "true" memory usage will be greater.
------------------------------------------------------------
  Removing unitary transformations (pure translations, rotations) from forces on atoms.
  Atomic forces before filtering:
  | Net force on center of mass :   0.407631E-02 -0.139507E-02  0.776484E-02 eV/A
  | Net torque on center of mass:   0.148589E-01 -0.299549E-02 -0.923157E-02 eV
  Atomic forces after filtering:
  | Net force on center of mass :  -0.178406E-15  0.223008E-15  0.151645E-14 eV/A
  | Net torque on center of mass:   0.424838E-15  0.944085E-16  0.105029E-14 eV

  Energy and forces in a compact form:
  | Total energy uncorrected      :         -0.442209529717966E+05 eV
  | Total energy corrected        :         -0.442209529717966E+05 eV  <-- do not rely on this value for anything but (periodic) metals
  | Electronic free energy        :         -0.442209529717966E+05 eV
  Total atomic forces (unitary forces cleaned) [eV/Ang]:
  |    1         -0.465280431095687E+00          0.181967950767185E+01          0.284616458486553E+01
  |    2          0.332517559235511E+01         -0.762666597345274E+00         -0.116142503180670E+01
  |    3         -0.279099314225617E+01         -0.937496599118546E+00         -0.207873309092686E+01
  |    4         -0.213871872974511E+01         -0.227989400348785E+01          0.127822429305858E+01
  |    5          0.168024304490989E+01         -0.222044494649862E+01          0.172098646873530E+01
  |    6         -0.749584216509914E+00          0.308111302001841E+01         -0.150220637737361E+00
  |    7          0.809512681969111E+00          0.317953848323539E+01          0.634498501999323E-01
  |    8         -0.713038369620523E+00          0.139872294494967E+00         -0.754939577022653E+00
  |    9         -0.228674922111674E+00         -0.150735488306046E+00          0.969734047817413E+00
  |   10          0.404720481751627E+00          0.984137926787679E+00         -0.317819331721135E+01
  |   11         -0.103164157749150E+00         -0.308604774402180E+01          0.831054316309783E+00
  |   12          0.969802168102482E+00          0.232944146569832E+00         -0.386101906281616E+00

  ------------------------------------ 
  Start decomposition of the XC Energy 
  ------------------------------------ 
  X and C from original XC functional choice 
  Hartree-Fock Energy :          0.000000000 Ha              0.000000000 eV
  X Energy            :       -140.220295756 Ha          -3815.588382529 eV
  C Energy            :         -4.936738701 Ha           -134.335494974 eV
  Total XC Energy     :       -145.157034457 Ha          -3949.923877503 eV
  ------------------------------------ 
  LDA X and C from self-consistent density 
  X Energy LDA        :       -132.788710112 Ha          -3613.364648111 eV
  C Energy LDA        :         -8.824033924 Ha           -240.114179937 eV
  ------------------------------------ 
  End decomposition of the XC Energy 
  ------------------------------------ 

------------------------------------------------------------

------------------------------------------------------------------------------
  Final output of selected total energy values:

  The following output summarizes some interesting total energy values
  at the end of a run (AFTER all relaxation, molecular dynamics, etc.).

  | Total energy of the DFT / Hartree-Fock s.c.f. calculation      :         -44220.952971797 eV
  | Final zero-broadening corrected energy (caution - metals only) :         -44220.952971797 eV
  | For reference only, the value of 1 Hartree used in FHI-aims is :             27.211384500 eV

  Before relying on these values, please be sure to understand exactly which
  total energy value is referred to by a given number. Different objects may
  all carry the same name 'total energy'. Definitions:

  Total energy of the DFT / Hartree-Fock s.c.f. calculation:
  | Note that this energy does not include ANY quantities calculated after the
  | s.c.f. cycle, in particular not ANY RPA, MP2, etc. many-body perturbation terms.

  Final zero-broadening corrected energy:
  | For metallic systems only, a broadening of the occupation numbers at the Fermi
  | level can be extrapolated back to zero broadening by an electron-gas inspired
  | formula. For all systems that are not real metals, this value can be
  | meaningless and should be avoided.

------------------------------------------------------------------------------
  Methods described in the following list of references were used in this FHI-aims run.
  If you publish the results, please make sure to cite these reference if they apply.
  FHI-aims is an academic code, and for our developers (often, Ph.D. students
  and postdocs), scientific credit in the community is essential.
  Thank you for helping us!

  For any use of FHI-aims, please cite:

    Volker Blum, Ralf Gehrke, Felix Hanke, Paula Havu, Ville Havu,
    Xinguo Ren, Karsten Reuter, and Matthias Scheffler
    'Ab initio molecular simulations with numeric atom-centered orbitals'
    Computer Physics Communications 180, 2175-2196 (2009)
    http://dx.doi.org/10.1016/j.cpc.2009.06.022


  The ELSI infrastructure was used in your run to solve the Kohn-Sham electronic structure.
  Please check out http://elsi-interchange.org to learn more.
  If scalability is important for your project, please acknowledge ELSI by citing:

    V. W-z. Yu, F. Corsetti, A. Garcia, W. P. Huhn, M. Jacquelin, W. Jia,
    B. Lange, L. Lin, J. Lu, W. Mi, A. Seifitokaldani, A. Vazquez-Mayagoitia,
    C. Yang, H. Yang, and V. Blum
    'ELSI: A unified software interface for Kohn-Sham electronic structure solvers'
    Computer Physics Communications 222, 267-285 (2018).
    http://dx.doi.org/10.1016/j.cpc.2017.09.007


  For the real-space grid partitioning and parallelization used in this calculation, please cite:

    Ville Havu, Volker Blum, Paula Havu, and Matthias Scheffler,
    'Efficient O(N) integration for all-electron electronic structure calculation'
    'using numerically tabulated basis functions'
    Journal of Computational Physics 228, 8367-8379 (2009).
    http://dx.doi.org/10.1016/j.jcp.2009.08.008

  Of course, there are many other important community references, e.g., those cited in the
  above references. Our list is limited to references that describe implementations in the
  FHI-aims code. The reason is purely practical (length of this list) - please credit others as well.

------------------------------------------------------------
          Leaving FHI-aims.
          Date     :  20220517, Time     :  114332.340

          Computational steps:
          | Number of self-consistency cycles          :           14
          | Number of SCF (re)initializations          :            1

          Detailed time accounting                     :  max(cpu_time)    wall_clock(cpu1)
          | Total time                                  :        1.928 s           1.995 s
          | Preparation time                            :        0.184 s           0.183 s
          | Boundary condition initalization            :        0.000 s           0.001 s
          | Grid partitioning                           :        0.036 s           0.036 s
          | Preloading free-atom quantities on grid     :        0.015 s           0.016 s
          | Free-atom superposition energy              :        0.005 s           0.005 s
          | Total time for integrations                 :        0.469 s           0.467 s
          | Total time for solution of K.-S. equations  :        0.068 s           0.070 s
          | Total time for density & force components   :        0.653 s           0.652 s
          | Total time for mixing                       :        0.062 s           0.033 s
          | Total time for Hartree multipole update     :        0.018 s           0.021 s
          | Total time for Hartree multipole sum        :        0.300 s           0.297 s
          | Total time for total energy evaluation      :        0.002 s           0.001 s
          | Total time NSC force correction             :        0.063 s           0.063 s
          | Total time for scaled ZORA corrections      :        0.000 s           0.000 s

          Partial memory accounting:
          | Residual value for overall tracked memory usage across tasks:     0.000000 MB (should be 0.000000 MB)
          | Peak values for overall tracked memory usage:
          |   Minimum:        2.935 MB (on task  7 after allocating hessian_basis_wave)
          |   Maximum:        3.061 MB (on task  4 after allocating hessian_basis_wave)
          |   Average:        2.996 MB
          | Largest tracked array allocation:
          |   Minimum:        1.433 MB (hessian_basis_wave on task  2)
          |   Maximum:        1.503 MB (hessian_basis_wave on task  4)
          |   Average:        1.466 MB
          Note:  These values currently only include a subset of arrays which are explicitly tracked.
          The "true" memory usage will be greater.

          Have a nice day.
------------------------------------------------------------
