------------------------------------------------------------
          Invoking FHI-aims ...

          When using FHI-aims, please cite the following reference:

            Volker Blum, Ralf Gehrke, Felix Hanke, Paula Havu,
            Ville Havu, Xinguo Ren, Karsten Reuter, and Matthias Scheffler,
            'Ab Initio Molecular Simulations with Numeric Atom-Centered Orbitals',
            Computer Physics Communications 180, 2175-2196 (2009)

          In addition, many other developments in FHI-aims are likely important for
          your particular application. A partial list of references is given at the end of
          this file. Thank you for giving credit to the authors of these developments.

          For any questions about FHI-aims, please visit our slack channel at

            https://fhi-aims.slack.com

          and our main development and support site at

            https://aims-git.rz-berlin.mpg.de .

          The latter site, in particular, has a wiki to collect information, as well
          as an issue tracker to log discussions, suggest improvements, and report issues
          or bugs. https://aims-git.rz-berlin.mpg.de is also the main development site
          of the project and all new and updated code versions can be obtained there.
          Please send an email to aims-coordinators@fhi-berlin.mpg.de and we will add
          you to these sites. They are for you and everyone is welcome there.

------------------------------------------------------------



  Date     :  20220517, Time     :  120349.813
  Time zero on CPU 1             :   0.438660000000000E-01  s.
  Internal wall clock time zero  :           422021029.813  s.

  FHI-aims created a unique identifier for this run for later identification
  aims_uuid : 09451EC5-D4BC-4AC5-A18C-3C6A17E66D5B

  Build configuration of the current instance of FHI-aims
  -------------------------------------------------------
  FHI-aims version      : 210914
  Commit number         : GITDIR-NOTFOUND
  CMake host system     : Linux-3.10.0-693.17.1.el7.x86_64
  CMake version         : 3.21.1
  Fortran compiler      : /shared/ucl/apps/intel/2018.Update3/impi/2018.3.222/intel64/bin/mpiifort (Intel) version 18.0.3.20180410
  Fortran compiler flags: -O3 -ip -fp-model precise
  C compiler            : /shared/ucl/apps/intel/2018.Update3/compilers_and_libraries_2018.3.222/linux/bin/intel64/icc (Intel) version 18.0.3.20180410
  C compiler flags      : -O3 -ip -fp-model precise -std=gnu99
  ELPA2 kernel          : AVX2
  Using MPI
  Using ScaLAPACK
  Using LibXC
  Using i-PI
  Using RLSY
  Linking against: /shared/ucl/apps/intel/2019.Update5/compilers_and_libraries_2019.5.281/linux/mkl/lib/intel64/libmkl_intel_lp64.so
                   /shared/ucl/apps/intel/2019.Update5/compilers_and_libraries_2019.5.281/linux/mkl/lib/intel64/libmkl_sequential.so
                   /shared/ucl/apps/intel/2019.Update5/compilers_and_libraries_2019.5.281/linux/mkl/lib/intel64/libmkl_core.so
                   /shared/ucl/apps/intel/2019.Update5/compilers_and_libraries_2019.5.281/linux/mkl/lib/intel64/libmkl_blacs_intelmpi_lp64.so
                   /shared/ucl/apps/intel/2019.Update5/compilers_and_libraries_2019.5.281/linux/mkl/lib/intel64/libmkl_scalapack_lp64.so

  Using       24 parallel tasks.
  Task        0 on host node-k98a-018 reporting.
  Task        1 on host node-k98a-018 reporting.
  Task        2 on host node-k98a-018 reporting.
  Task        3 on host node-k98a-018 reporting.
  Task        4 on host node-k98a-018 reporting.
  Task        5 on host node-k98a-018 reporting.
  Task        6 on host node-k98a-018 reporting.
  Task        7 on host node-k98a-018 reporting.
  Task        8 on host node-k98a-018 reporting.
  Task        9 on host node-k98a-018 reporting.
  Task       10 on host node-k98a-018 reporting.
  Task       11 on host node-k98a-018 reporting.
  Task       12 on host node-k98a-018 reporting.
  Task       13 on host node-k98a-018 reporting.
  Task       14 on host node-k98a-018 reporting.
  Task       15 on host node-k98a-018 reporting.
  Task       16 on host node-k98a-018 reporting.
  Task       17 on host node-k98a-018 reporting.
  Task       18 on host node-k98a-018 reporting.
  Task       19 on host node-k98a-018 reporting.
  Task       20 on host node-k98a-018 reporting.
  Task       21 on host node-k98a-018 reporting.
  Task       22 on host node-k98a-018 reporting.
  Task       23 on host node-k98a-018 reporting.

  Performing system and environment tests:
  | Environment variable OMP_NUM_THREADS correctly set to 1.
  | Checking for ScaLAPACK...
  | Testing pdtran()...
  | All pdtran() tests passed.

  Obtaining array dimensions for all initial allocations:
  
  -----------------------------------------------------------------------
  Parsing control.in (first pass over file, find array dimensions only).
  The contents of control.in will be repeated verbatim below
  unless switched off by setting 'verbatim_writeout .false.' .
  in the first line of control.in .
  -----------------------------------------------------------------------
  
  #########################################################################################  Physical model
  #########################################################################################
  xc                 pbesol
  spin               none
  relativistic       atomic_zora scalar
  charge             0.0
  #  SCF convergence
  occupation_type    gaussian 0.01
  mixer              pulay
  n_max_pulay        10
  charge_mix_param   0.5
  sc_accuracy_rho    1E-5
  sc_accuracy_eev    1E-3
  sc_accuracy_etot   1E-6
  sc_accuracy_forces 1E-4
  sc_iter_limit      1500
  #  Relaxation
  #relax_geometry   bfgs 1.e-3
  
  ################################################################################
  #
  #  FHI-aims code project
  #  VB, Fritz-Haber Institut, 2009
  #
  #  Suggested "light" defaults for Al atom (to be pasted into control.in file)
  #  Be sure to double-check any results obtained with these settings for post-processing,
  #  e.g., with the "tight" defaults and larger basis sets.
  #
  ################################################################################
    species        Al
  #     global species definitions
      nucleus             13
      mass                26.9815386
  #
      l_hartree           4
  #
      cut_pot             3.5          1.5  1.0
      basis_dep_cutoff    1e-4
  #
      radial_base         41 5.0
      radial_multiplier   1
      angular_grids       specified
        division   0.6594  110
        division   0.8170  194
        division   0.9059  302
  #      division   1.0363  434
  #      division   1.1443  590
  #      division   1.2621  770
  #      division   2.8177  974
  #      outer_grid   974
        outer_grid   302
  ################################################################################
  #
  #  Definition of "minimal" basis
  #
  ################################################################################
  #     valence basis states
      valence      3  s   2.
      valence      3  p   1.
  #     ion occupancy
      ion_occ      3  s   1.
      ion_occ      2  p   6.
  ################################################################################
  #
  #  Suggested additional basis functions. For production calculations,
  #  uncomment them one after another (the most important basis functions are
  #  listed first).
  #
  #  Constructed for dimers: 2.0 A, 2.5 A, 3.0 A, 3.75 A, 4.5 A
  #
  ################################################################################
  #  "First tier" - improvements: -199.47 meV to -10.63 meV
       ionic 3 d auto
       ionic 3 p auto
  #     hydro 4 f 4.7
       ionic 3 s auto
  #  "Second tier" - improvements: -5.35 meV to -1.57 meV
  #     hydro 5 g 7
  #     hydro 3 d 6
  #     hydro 2 s 11.6
  #     hydro 2 p 0.9
  #  "Third tier" - improvements: -0.63 meV to -0.20 meV
  #     hydro 5 f 7.6
  #     hydro 4 p 7.2
  #     hydro 4 s 3.7
  #     hydro 4 d 7.6
  #  "Fourth tier" - improvements: -0.17 meV to -0.08 meV
  #     hydro 4 d 13.6
  #     hydro 5 g 11.2
  #     hydro 4 d 0.9
  #     hydro 1 s 0.4
  #     hydro 4 p 0.1
  #     hydro 5 f 9.8
  #  Further basis functions that fell out of the optimization - noise level...
  #     hydro 4 p 5
  
  ################################################################################
  #
  #  FHI-aims code project
  #  VB, Fritz-Haber Institut, 2009
  #
  #  Suggested "light" defaults for F atom (to be pasted into control.in file)
  #  Be sure to double-check any results obtained with these settings for post-processing,
  #  e.g., with the "tight" defaults and larger basis sets.
  #
  ################################################################################
    species        F
  #     global species definitions
      nucleus             9
      mass                18.9984032
  #
      l_hartree           4
  #
      cut_pot             3.5  1.5  1.0
      basis_dep_cutoff    1e-4
  #
      radial_base         37 5.0
      radial_multiplier   1
      angular_grids specified
        division   0.4014  110
        division   0.5291  194
        division   0.6019  302
  #      division   0.6814  434
  #      division   0.7989  590
  #      division   0.8965  770
  #      division   1.3427  974
  #      outer_grid   974
        outer_grid   302
  ################################################################################
  #
  #  Definition of "minimal" basis
  #
  ################################################################################
  #     valence basis states
      valence      2  s   2.
      valence      2  p   5.
  #     ion occupancy
      ion_occ      2  s   1.
      ion_occ      2  p   4.
  ################################################################################
  #
  #  Suggested additional basis functions. For production calculations,
  #  uncomment them one after another (the most important basis functions are
  #  listed first).
  #
  #  Constructed for dimers: 1.2 A, 1.418 A, 1.75 A, 2.25 A, 3.25 A
  #
  ################################################################################
  #  "First tier" - improvements: -149.44 meV to -45.88 meV
       hydro 2 p 1.7
       hydro 3 d 7.4
       hydro 3 s 6.8
  #  "Second tier" - improvements: -12.96 meV to -1.56 meV
  #     hydro 4 f 11.2
  #     ionic 2 p auto
  #     hydro 1 s 0.75
  #     hydro 4 d 8.8
  #     hydro 5 g 16.8
  #  "Third tier" - improvements: -0.58 meV to -0.05 meV
  #     hydro 3 p 6.2
  #     hydro 3 s 3.2
  #     hydro 4 f 9.6
  #     hydro 3 s 19.6
  #     hydro 4 d 8.6
  #     hydro 5 g 14.4
  # Further basis functions: -0.05 meV and below
  #     hydro 3 p 4.2
  
  -----------------------------------------------------------------------
  Completed first pass over input file control.in .
  -----------------------------------------------------------------------
  
  
  -----------------------------------------------------------------------
  Parsing geometry.in (first pass over file, find array dimensions only).
  The contents of geometry.in will be repeated verbatim below
  unless switched off by setting 'verbatim_writeout .false.' .
  in the first line of geometry.in .
  -----------------------------------------------------------------------
  
  atom -0.031866613 1.567516372 1.742574420 Al
  atom 2.578190496 2.591316225 1.870374375 Al
  atom 1.249128084 2.610066984 -0.606652054 Al
  atom 1.014400578 2.992691336 2.798768063 F
  atom -1.479841083 2.614813922 2.192705186 F
  atom -0.442093071 0.089144134 2.765782230 F
  atom 1.483764953 0.899569593 2.027895465 F
  atom 2.885610145 1.934275853 -0.182848816 F
  atom 1.142713809 3.051366133 -2.340694212 F
  atom 1.675695694 3.983278587 0.464275667 F
  atom 4.218281368 3.178666777 2.520351980 F
  atom 0.154638209 1.880050210 0.607642693 F
  
  -----------------------------------------------------------------------
  Completed first pass over input file geometry.in .
  -----------------------------------------------------------------------
  

  Basic array size parameters:
  | Number of species                 :        2
  | Number of atoms                   :       12
  | Max. basis fn. angular momentum   :        2
  | Max. atomic/ionic basis occupied n:        3
  | Max. number of basis fn. types    :        3
  | Max. radial fns per species/type  :        5
  | Max. logarithmic grid size        :     1340
  | Max. radial integration grid size :       41
  | Max. angular integration grid size:      302
  | Max. angular grid division number :        8
  | Radial grid for Hartree potential :     1340
  | Number of spin channels           :        1

------------------------------------------------------------
          Reading file control.in.
------------------------------------------------------------
  XC: Using PBEsol gradient-corrected functionals.
  Spin treatment: No spin polarisation.
  Scalar relativistic treatment of kinetic energy: on-site free-atom approximation to ZORA.
  Charge =   0.000000E+00: Neutral system requested explicitly.
  Occupation type: Gaussian broadening, width =   0.100000E-01 eV.
  Using pulay charge density mixing.
  Pulay mixing - number of memorized iterations:   10
  Charge density mixing - mixing parameter:     0.5000
  Convergence accuracy of self-consistent charge density:  0.1000E-04
  Convergence accuracy of sum of eigenvalues:  0.1000E-02
  Convergence accuracy of total energy:  0.1000E-05
  Convergence accuracy of forces:  0.1000E-03
  Maximum number of s.-c. iterations  :  1500
 
  Reading configuration options for species Al                  .
  | Found nuclear charge :  13.0000
  | Found atomic mass :    26.9815386000000      amu
  | Found l_max for Hartree potential  :   4
  | Found cutoff potl. onset [A], width [A], scale factor :    3.50000    1.50000    1.00000
  | Threshold for basis-dependent cutoff potential is   0.100000E-03
  | Found data for basic radial integration grid :    41 points, outermost radius =    5.000 A
  | Found multiplier for basic radial grid :   1
  | Found angular grid specification: user-specified.
  | Specified grid contains     4 separate shells.
  | Check grid settings after all constraints further below.
  | Found free-atom valence shell :  3 s   2.000
  | Found free-atom valence shell :  3 p   1.000
  | Found free-ion valence shell :  3 s   1.000
  | Found free-ion valence shell :  2 p   6.000
  | Found ionic basis function :  3 d , default cutoff radius.
  | Found ionic basis function :  3 p , default cutoff radius.
  | Found ionic basis function :  3 s , default cutoff radius.
  Species Al                  : Missing cutoff potential type.
  Defaulting to exp(1/x)/(1-x)^2 type cutoff potential.
  Species Al: No 'logarithmic' tag. Using default grid for free atom:
  | Default logarithmic grid data [bohr] : 0.1000E-03 0.1000E+03 0.1012E+01
  | Will include ionic basis functions of  2.0-fold positive Al                   ion.
  Species Al: On-site basis accuracy parameter (for Gram-Schmidt orthonormalisation) not specified.
  Using default value basis_acc =  0.1000000E-03.
  Species Al                  : Using default innermost maximum threshold i_radial=  2 for radial functions.
  Species Al                  : Default cutoff onset for free atom density etc. : 0.35000000E+01 AA.
  Species Al                  : Basic radial grid will be enhanced according to radial_multiplier =   1, to contain    41 grid points.
 
  Reading configuration options for species F                   .
  | Found nuclear charge :   9.0000
  | Found atomic mass :    18.9984032000000      amu
  | Found l_max for Hartree potential  :   4
  | Found cutoff potl. onset [A], width [A], scale factor :    3.50000    1.50000    1.00000
  | Threshold for basis-dependent cutoff potential is   0.100000E-03
  | Found data for basic radial integration grid :    37 points, outermost radius =    5.000 A
  | Found multiplier for basic radial grid :   1
  | Found angular grid specification: user-specified.
  | Specified grid contains     4 separate shells.
  | Check grid settings after all constraints further below.
  | Found free-atom valence shell :  2 s   2.000
  | Found free-atom valence shell :  2 p   5.000
  | Found free-ion valence shell :  2 s   1.000
  | Found free-ion valence shell :  2 p   4.000
  | Found hydrogenic basis function :  2 p   1.700
  | Found hydrogenic basis function :  3 d   7.400
  | Found hydrogenic basis function :  3 s   6.800
  Species F                   : Missing cutoff potential type.
  Defaulting to exp(1/x)/(1-x)^2 type cutoff potential.
  Species F : No 'logarithmic' tag. Using default grid for free atom:
  | Default logarithmic grid data [bohr] : 0.1000E-03 0.1000E+03 0.1012E+01
  Species F : On-site basis accuracy parameter (for Gram-Schmidt orthonormalisation) not specified.
  Using default value basis_acc =  0.1000000E-03.
  Species F                   : Using default innermost maximum threshold i_radial=  2 for radial functions.
  Species F                   : Default cutoff onset for free atom density etc. : 0.35000000E+01 AA.
  Species F                   : Basic radial grid will be enhanced according to radial_multiplier =   1, to contain    37 grid points.
 
  Finished reading input file 'control.in'.
 
------------------------------------------------------------


------------------------------------------------------------
          Reading geometry description geometry.in.
------------------------------------------------------------
  | The smallest distance between any two atoms is         1.19186051 AA.
  | The first atom of this pair is atom number                      1 .
  | The second atom of this pair is atom number                    12 .
  Input structure read successfully.
  The structure contains       12 atoms,  and a total of        120.000 electrons.

  Input geometry:
  | No unit cell requested.
  | Atomic structure:
  |       Atom                x [A]            y [A]            z [A]
  |    1: Species Al           -0.03186661        1.56751637        1.74257442
  |    2: Species Al            2.57819050        2.59131622        1.87037437
  |    3: Species Al            1.24912808        2.61006698       -0.60665205
  |    4: Species F             1.01440058        2.99269134        2.79876806
  |    5: Species F            -1.47984108        2.61481392        2.19270519
  |    6: Species F            -0.44209307        0.08914413        2.76578223
  |    7: Species F             1.48376495        0.89956959        2.02789546
  |    8: Species F             2.88561014        1.93427585       -0.18284882
  |    9: Species F             1.14271381        3.05136613       -2.34069421
  |   10: Species F             1.67569569        3.98327859        0.46427567
  |   11: Species F             4.21828137        3.17866678        2.52035198
  |   12: Species F             0.15463821        1.88005021        0.60764269

 
  Finished reading input file 'control.in'.
 

------------------------------------------------------------
          Reading geometry description geometry.in.
------------------------------------------------------------
 
  Consistency checks for stacksize environment parameter are next.
 
  | Maximum stacksize for task 0: unlimited
  | Maximum stacksize for task 1: unlimited
  | Maximum stacksize for task 2: unlimited
  | Maximum stacksize for task 3: unlimited
  | Maximum stacksize for task 4: unlimited
  | Maximum stacksize for task 5: unlimited
  | Maximum stacksize for task 6: unlimited
  | Maximum stacksize for task 7: unlimited
  | Maximum stacksize for task 8: unlimited
  | Maximum stacksize for task 9: unlimited
  | Maximum stacksize for task 10: unlimited
  | Maximum stacksize for task 11: unlimited
  | Maximum stacksize for task 12: unlimited
  | Maximum stacksize for task 13: unlimited
  | Maximum stacksize for task 14: unlimited
  | Maximum stacksize for task 15: unlimited
  | Maximum stacksize for task 16: unlimited
  | Maximum stacksize for task 17: unlimited
  | Maximum stacksize for task 18: unlimited
  | Maximum stacksize for task 19: unlimited
  | Maximum stacksize for task 20: unlimited
  | Maximum stacksize for task 21: unlimited
  | Maximum stacksize for task 22: unlimited
  | Maximum stacksize for task 23: unlimited
  | Current stacksize for task 0: unlimited
  | Current stacksize for task 1: unlimited
  | Current stacksize for task 2: unlimited
  | Current stacksize for task 3: unlimited
  | Current stacksize for task 4: unlimited
  | Current stacksize for task 5: unlimited
  | Current stacksize for task 6: unlimited
  | Current stacksize for task 7: unlimited
  | Current stacksize for task 8: unlimited
  | Current stacksize for task 9: unlimited
  | Current stacksize for task 10: unlimited
  | Current stacksize for task 11: unlimited
  | Current stacksize for task 12: unlimited
  | Current stacksize for task 13: unlimited
  | Current stacksize for task 14: unlimited
  | Current stacksize for task 15: unlimited
  | Current stacksize for task 16: unlimited
  | Current stacksize for task 17: unlimited
  | Current stacksize for task 18: unlimited
  | Current stacksize for task 19: unlimited
  | Current stacksize for task 20: unlimited
  | Current stacksize for task 21: unlimited
  | Current stacksize for task 22: unlimited
  | Current stacksize for task 23: unlimited
 
  Consistency checks for the contents of control.in are next.
 
  MPI_IN_PLACE appears to work with this MPI implementation.
  | Keeping use_mpi_in_place .true. (see manual).
  Target number of points in a grid batch is not set. Defaulting to  100
  Method for grid partitioning is not set. Defaulting to parallel hash+maxmin partitioning.
  Batch size limit is not set. Defaulting to    200
  By default, will store active basis functions for each batch.
  If in need of memory, prune_basis_once .false. can be used to disable this option.
  communication_type for Hartree potential was not specified.
  Defaulting to calc_hartree .
  Pulay mixer: Number of initial linear mixing iterations not set.
  Defaulting to    0 iterations.
  Work space size for distributed Hartree potential not set.
  Defaulting to   0.200000E+03 MB.
  Algorithm-dependent basis array size parameters:
  | n_max_pulay                         :       10
  Presetting      1001 iterations before the initial mixing cycle
  is restarted anyway using the sc_init_iter criterion / keyword.
  Presetting a factor      1.000 between actual scf density residual
  and density convergence criterion sc_accuracy_rho below which sc_init_iter
  takes no effect.
  Geometry relaxation not requested: no relaxation will be performed.
  Forces evaluation will include force correction term due to incomplete self-consistency (default).
  Handling of forces: Unphysical translation and rotation will be removed from forces.
  No accuracy limit for integral partition fn. given. Defaulting to  0.1000E-14.
  No threshold value for u(r) in integrations given. Defaulting to  0.1000E-05.
  No accuracy for occupation numbers given. Defaulting to  0.1000E-12.
  No threshold value for occupation numbers given. Defaulting to  0.0000E+00.
  No accuracy for fermi level given. Defaulting to  0.1000E-19.
  Maximum # of iterations to find E_F not set. Defaulting to  200.
  Preferred method for the eigenvalue solver ('KS_method') not specified in 'control.in'.
  Calling BLACS routine to test compilation state
  Since ScaLAPACK support is enabled, defaulting to ELPA (via ELSI).
  Will not use alltoall communication since running on < 1024 CPUs.
  Threshold for basis singularities not set.
  Default threshold for basis singularities:  0.1000E-04
  partition_type (choice of integration weights) for integrals was not specified.
  | Using a version of the partition function of Stratmann and coworkers ('stratmann_sparse').
  | At each grid point, the set of atoms used to build the partition table is smoothly restricted to
  | only those atoms whose free-atom density would be non-zero at that grid point.
  Partitioning for Hartree potential was not defined. Using partition_type for integrals.
  | Adjusted default value of keyword multip_moments_threshold to:       0.10000000E-11
  | This value may affect high angular momentum components of the Hartree potential in periodic systems.
  No q(lm)/r^(l+1) cutoff set for long-range Hartree potential.
  | Using default value of  0.100000E-09 .
  | Verify using the multipole_threshold keyword.
  Defaulting to new monopole extrapolation.
  Density update method: automatic selection selected.
  Charge integration errors on the 3D integration grid will be compensated
  by explicit normalization and distribution of residual charges.
  Use the "compensate_multipole_errors" flag to change this behaviour.
  Set 'collect_eigenvectors' to be '.true.' for use_density_matrix .false.
 
  Consistency checks for the contents of geometry.in are next.
 
  Number of empty states per atom not set in control.in - providing a guess from actual geometry.
  | Total number of empty states used during s.c.f. cycle:       36
  If you use a very high smearing, use empty_states (per atom!) in control.in to increase this value.

  Structure-dependent array size parameters: 
  | Maximum number of distinct radial functions  :       14
  | Maximum number of basis functions            :      180
  | Number of Kohn-Sham states (occupied + empty):       96
------------------------------------------------------------

------------------------------------------------------------
          Preparing all fixed parts of the calculation.
------------------------------------------------------------
  Determining machine precision:
    2.225073858507201E-308
  Setting up grids for atomic and cluster calculations.

  Creating wave function, potential, and density for free atoms.

  Species: Al

  List of occupied orbitals and eigenvalues:
    n    l              occ      energy [Ha]    energy [eV]
    1    0           2.0000       -55.621123     -1513.5278
    2    0           2.0000        -3.957030      -107.6763
    3    0           2.0000        -0.272233        -7.4078
    2    1           6.0000        -2.540949       -69.1427
    3    1           1.0000        -0.083300        -2.2667


  Species: F

  List of occupied orbitals and eigenvalues:
    n    l              occ      energy [Ha]    energy [eV]
    1    0           2.0000       -24.399611      -663.9472
    2    0           2.0000        -1.098702       -29.8972
    2    1           5.0000        -0.408210       -11.1080


  Adding cutoff potential to free-atom effective potential.
  Creating fixed part of basis set: Ionic, confined, hydrogenic.
 
  Al                   ion:

  List of free ionic orbitals and eigenvalues:
    n    l      energy [Ha]    energy [eV]
    1    0       -56.418846     -1535.2349
    2    0        -4.732717      -128.7838
    3    0        -0.872690       -23.7471
    2    1        -3.317230       -90.2664


  List of ionic basis orbitals and eigenvalues:
    n    l      energy [Ha]    energy [eV]    outer radius [A]
    3    2        -0.346815        -9.4373       4.594041
    3    1        -0.631870       -17.1940       4.538221
    3    0        -0.872657       -23.7462       4.538221

 
  F                    hydrogenic:
 
  List of hydrogenic basis orbitals: 
    n    l      effective z      eigenvalue [eV]  inner max. [A]     outer max. [A]     outer radius [A]   
    2    1         1.700000        -9.7616           1.243167           1.243167           4.598524
    3    2         7.400000       -82.7828           0.642437           0.642437           3.305741
    3    0         6.800000       -69.9026           0.057798           1.022307           3.781556
 
  Creating atomic-like basis functions for current effective potential.

  Species Al                  :

  List of atomic basis orbitals and eigenvalues:
    n    l      energy [Ha]    energy [eV]    outer radius [A]
    1    0       -55.621123     -1513.5278       0.850197
    2    0        -3.957030      -107.6763       3.144911
    3    0        -0.272233        -7.4078       4.594041
    2    1        -2.540949       -69.1427       3.731966
    3    1        -0.083300        -2.2667       4.594041


  Species F                   :

  List of atomic basis orbitals and eigenvalues:
    n    l      energy [Ha]    energy [eV]    outer radius [A]
    1    0       -24.399611      -663.9472       1.258458
    2    0        -1.098702       -29.8972       4.325857
    2    1        -0.408210       -11.1080       4.487453

  Assembling full basis from fixed parts.
  | Species Al :   atomic orbital   1 s accepted.
  | Species Al :   atomic orbital   2 s accepted.
  | Species Al :    ionic orbital   3 s accepted.
  | Species Al :   atomic orbital   3 s accepted.
  | Species Al :   atomic orbital   2 p accepted.
  | Species Al :    ionic orbital   3 p accepted.
  | Species Al :   atomic orbital   3 p accepted.
  | Species Al :    ionic orbital   3 d accepted.
  | Species F :   atomic orbital   1 s accepted.
  | Species F :    hydro orbital   3 s accepted.
  | Species F :   atomic orbital   2 s accepted.
  | Species F :   atomic orbital   2 p accepted.
  | Species F :    hydro orbital   2 p accepted.
  | Species F :    hydro orbital   3 d accepted.
 
  Basis size parameters after reduction:
  | Total number of radial functions:       14
  | Total number of basis functions :      180
 
  Per-task memory consumption for arrays in subroutine allocate_ext:
  |           4.807768MB.
  Testing on-site integration grid accuracy.
  |  Species  Function  <phi|h_atom|phi> (log., in eV)  <phi|h_atom|phi> (rad., in eV)
           1        1              -1513.5277717935              -1513.5271881332
           1        2               -107.6762691836               -107.6762662489
           1        3                 -6.9467474784                 -6.9471269649
           1        4                  5.5771951849                  5.4862107220 ***
           1        5                -69.1427313144                -69.1427312731
           1        6                 -1.5197375330                 -1.5230432022
           1        7                  6.8210948310                  6.5529872240 ***
           1        8                  4.3216540965                  4.2851170187 ***
           2        9               -663.9471986398               -663.9470363334
           2       10                 16.8514011578                 16.8512525338
           2       11                -28.4490593856                -28.4490661472
           2       12                -11.1080115307                -11.1080620173
           2       13                  7.1940182175                  7.1685154137
           2       14                 44.8544281765                 44.8543763625
 * Note: Onsite integrals marked "***" above are less accurate than
 * onsite_accuracy_threshold =    0.03000 eV. Usually, this is harmless.
 * When in doubt, tighten the "radial" and/or "radial_multiplier" flags to check.

  Preparing densities etc. for the partition functions (integrals / Hartree potential).

  Preparations completed.
  max(cpu_time)          :      0.184 s.
  Wall clock time (cpu1) :      0.184 s.
------------------------------------------------------------

------------------------------------------------------------
          Begin self-consistency loop: Initialization.

          Date     :  20220517, Time     :  120350.041
------------------------------------------------------------

  Initializing index lists of integration centers etc. from given atomic structure:
  | Number of centers in hartree potential         :        12
  | Number of centers in hartree multipole         :        12
  | Number of centers in electron density summation:        12
  | Number of centers in basis integrals           :        12
  | Number of centers in integrals                 :        12
  | Number of centers in hamiltonian               :        12
  * Using 24 tasks for Scalapack Eigenvalue solver.
  Detailed listing of tasks and assigned k-points:
  (for non-periodic systems, the "k-point" denotes an internal label only)
   Task     0 k-point     1 on node-k98a-018
   Task     1 k-point     1 on node-k98a-018
   Task     2 k-point     1 on node-k98a-018
   Task     3 k-point     1 on node-k98a-018
   Task     4 k-point     1 on node-k98a-018
   Task     5 k-point     1 on node-k98a-018
   Task     6 k-point     1 on node-k98a-018
   Task     7 k-point     1 on node-k98a-018
   Task     8 k-point     1 on node-k98a-018
   Task     9 k-point     1 on node-k98a-018
   Task    10 k-point     1 on node-k98a-018
   Task    11 k-point     1 on node-k98a-018
   Task    12 k-point     1 on node-k98a-018
   Task    13 k-point     1 on node-k98a-018
   Task    14 k-point     1 on node-k98a-018
   Task    15 k-point     1 on node-k98a-018
   Task    16 k-point     1 on node-k98a-018
   Task    17 k-point     1 on node-k98a-018
   Task    18 k-point     1 on node-k98a-018
   Task    19 k-point     1 on node-k98a-018
   Task    20 k-point     1 on node-k98a-018
   Task    21 k-point     1 on node-k98a-018
   Task    22 k-point     1 on node-k98a-018
   Task    23 k-point     1 on node-k98a-018
  Tasks:    24 split into      6 X      4 BLACS grid
  Calculating block size based on n_basis =          180  max_nprow =            6  max_npcol =            4
  ScaLAPACK block size set to:           16
  Allocating        0.012 MB for ovlp
  Allocating        0.012 MB for ham
  Allocating        0.012 MB for eigenvec
  Required Scalapack workspace - INTEGER:            1  REAL:             1
  Partitioning the integration grid into batches with parallel hashing+maxmin method.
  | Number of batches:     1103
  | Maximal batch size:     197
  | Minimal batch size:      17
  | Average batch size:      83.336
  | Standard deviation of batch sizes:      20.146

  Integration load balanced across    24 MPI tasks.
  Work distribution over tasks is as follows:
  Task     0 has       3858 integration points.
  Task     1 has       3841 integration points.
  Task     2 has       3843 integration points.
  Task     3 has       3769 integration points.
  Task     4 has       3776 integration points.
  Task     5 has       3851 integration points.
  Task     6 has       3862 integration points.
  Task     7 has       3787 integration points.
  Task     8 has       3763 integration points.
  Task     9 has       3836 integration points.
  Task    10 has       3765 integration points.
  Task    11 has       3862 integration points.
  Task    12 has       3906 integration points.
  Task    13 has       3857 integration points.
  Task    14 has       3913 integration points.
  Task    15 has       3837 integration points.
  Task    16 has       3852 integration points.
  Task    17 has       3859 integration points.
  Task    18 has       3863 integration points.
  Task    19 has       3767 integration points.
  Task    20 has       3769 integration points.
  Task    21 has       3785 integration points.
  Task    22 has       3833 integration points.
  Task    23 has       3866 integration points.
  Initializing partition tables, free-atom densities, potentials, etc. across the integration grid (initialize_grid_storage).
  | initialize_grid_storage: Actual outermost partition radius vs. multipole_radius_free
  | (-- VB: in principle, multipole_radius_free should be larger, hence this output)
  | Species        1: Confinement radius =              4.999999999999999 AA, multipole_radius_free =              5.004487022111096 AA.
  | Species        1: outer_partition_radius set to              5.004487022111096 AA .
  | Species        2: Confinement radius =              4.999999999999999 AA, multipole_radius_free =              5.009370088163274 AA.
  | Species        2: outer_partition_radius set to              5.009370088163274 AA .
  | The sparse table of interatomic distances needs          1.64 kbyte instead of         1.15 kbyte of memory.
  | Using the partition_type stratmann_smoother will reduce your memory usage.
  | Net number of integration points:    91920
  | of which are non-zero points    :    84616
  Renormalizing the initial density to the exact electron count on the 3D integration grid.
  | Initial density: Formal number of electrons (from input files) :     120.0000000000
  | Integrated number of electrons on 3D grid     :     119.9999394932
  | Charge integration error                      :      -0.0000605068
  | Normalization factor for density and gradient :       1.0000005042
  Renormalizing the free-atom superposition density to the exact electron count on the 3D integration grid.
  | Formal number of electrons (from input files) :     120.0000000000
  | Integrated number of electrons on 3D grid     :     119.9999394932
  | Charge integration error                      :      -0.0000605068
  | Normalization factor for density and gradient :       1.0000005042
  Obtaining max. number of non-zero basis functions in each batch (get_n_compute_maxes).
  | Maximal number of non-zero basis functions:      172 in task     0
  | Maximal number of non-zero basis functions:      167 in task     1
  | Maximal number of non-zero basis functions:      165 in task     2
  | Maximal number of non-zero basis functions:      167 in task     3
  | Maximal number of non-zero basis functions:      170 in task     4
  | Maximal number of non-zero basis functions:      170 in task     5
  | Maximal number of non-zero basis functions:      164 in task     6
  | Maximal number of non-zero basis functions:      173 in task     7
  | Maximal number of non-zero basis functions:      171 in task     8
  | Maximal number of non-zero basis functions:      165 in task     9
  | Maximal number of non-zero basis functions:      167 in task    10
  | Maximal number of non-zero basis functions:      171 in task    11
  | Maximal number of non-zero basis functions:      171 in task    12
  | Maximal number of non-zero basis functions:      166 in task    13
  | Maximal number of non-zero basis functions:      165 in task    14
  | Maximal number of non-zero basis functions:      172 in task    15
  | Maximal number of non-zero basis functions:      171 in task    16
  | Maximal number of non-zero basis functions:      170 in task    17
  | Maximal number of non-zero basis functions:      171 in task    18
  | Maximal number of non-zero basis functions:      165 in task    19
  | Maximal number of non-zero basis functions:      163 in task    20
  | Maximal number of non-zero basis functions:      166 in task    21
  | Maximal number of non-zero basis functions:      165 in task    22
  | Maximal number of non-zero basis functions:      165 in task    23
  Selecting the method for density update.
  Loop over occupied states selected for charge density update.
  Allocating        0.132 MB for KS_eigenvector
  Integrating Hamiltonian matrix: batch-based integration.
  Time summed over all CPUs for integration: real work        0.766 s, elapsed        0.813 s
  Integrating overlap matrix.
  Time summed over all CPUs for integration: real work        0.295 s, elapsed        0.316 s
  Deallocating overlap matrix.

  Updating Kohn-Sham eigenvalues and eigenvectors using ELSI and the ELPA eigensolver.
  Overlap matrix is not singular
  | Lowest and highest eigenvalues :  0.1249E-02,  0.5967E+01
  Finished singularity check of overlap matrix
  | Time :     0.004 s
  Starting ELPA eigensolver
  Finished Cholesky decomposition
  | Time :     0.003 s
  Finished transformation to standard eigenproblem
  | Time :     0.001 s
  Finished solving standard eigenproblem
  | Time :     0.003 s
  Finished back-transformation of eigenvectors
  | Time :     0.001 s

  Obtaining occupation numbers and chemical potential using ELSI.
  | Chemical potential (Fermi level):    -7.16434608 eV
  Writing Kohn-Sham eigenvalues.

  State    Occupation    Eigenvalue [Ha]    Eigenvalue [eV]
      1       2.00000         -55.511517        -1510.54525
      2       2.00000         -55.486224        -1509.85697
      3       2.00000         -55.483930        -1509.79456
      4       2.00000         -24.589735         -669.12072
      5       2.00000         -24.381876         -663.46459
      6       2.00000         -24.356673         -662.77878
      7       2.00000         -24.354410         -662.71721
      8       2.00000         -24.352996         -662.67874
      9       2.00000         -24.343415         -662.41802
     10       2.00000         -24.337706         -662.26267
     11       2.00000         -24.337667         -662.26161
     12       2.00000         -24.335788         -662.21048
     13       2.00000          -3.998106         -108.79400
     14       2.00000          -3.952507         -107.55319
     15       2.00000          -3.948649         -107.44821
     16       2.00000          -2.625220          -71.43587
     17       2.00000          -2.578382          -70.16136
     18       2.00000          -2.574769          -70.06303
     19       2.00000          -2.546094          -69.28274
     20       2.00000          -2.544212          -69.23153
     21       2.00000          -2.543244          -69.20518
     22       2.00000          -2.541836          -69.16688
     23       2.00000          -2.540044          -69.11811
     24       2.00000          -2.539291          -69.09764
     25       2.00000          -1.392776          -37.89935
     26       2.00000          -1.216620          -33.10592
     27       2.00000          -1.182026          -32.16455
     28       2.00000          -1.170526          -31.85163
     29       2.00000          -1.163791          -31.66836
     30       2.00000          -1.152849          -31.37061
     31       2.00000          -1.147277          -31.21899
     32       2.00000          -1.142186          -31.08048
     33       2.00000          -1.141403          -31.05916
     34       2.00000          -0.734615          -19.98990
     35       2.00000          -0.698019          -18.99406
     36       2.00000          -0.694578          -18.90044
     37       2.00000          -0.567518          -15.44295
     38       2.00000          -0.554125          -15.07851
     39       2.00000          -0.537648          -14.63014
     40       2.00000          -0.525717          -14.30550
     41       2.00000          -0.514881          -14.01062
     42       2.00000          -0.507191          -13.80136
     43       2.00000          -0.501804          -13.65479
     44       2.00000          -0.494434          -13.45422
     45       2.00000          -0.491561          -13.37606
     46       2.00000          -0.489214          -13.31220
     47       2.00000          -0.481360          -13.09846
     48       2.00000          -0.476799          -12.97435
     49       2.00000          -0.468663          -12.75296
     50       2.00000          -0.466328          -12.68942
     51       2.00000          -0.457593          -12.45175
     52       2.00000          -0.454234          -12.36033
     53       2.00000          -0.453659          -12.34470
     54       2.00000          -0.450967          -12.27142
     55       2.00000          -0.449722          -12.23755
     56       2.00000          -0.446874          -12.16007
     57       2.00000          -0.446511          -12.15019
     58       2.00000          -0.443283          -12.06233
     59       2.00000          -0.441630          -12.01736
     60       2.00000          -0.431495          -11.74158
     61       0.00000          -0.147603           -4.01649
     62       0.00000          -0.103292           -2.81072
     63       0.00000          -0.047745           -1.29922
     64       0.00000          -0.029977           -0.81571
     65       0.00000          -0.022277           -0.60618
     66       0.00000           0.006535            0.17784
     67       0.00000           0.017944            0.48828
     68       0.00000           0.030577            0.83205
     69       0.00000           0.052170            1.41962
     70       0.00000           0.096515            2.62630
     71       0.00000           0.105899            2.88165
     72       0.00000           0.123149            3.35105
     73       0.00000           0.151518            4.12302
     74       0.00000           0.167400            4.55518
     75       0.00000           0.169128            4.60220
     76       0.00000           0.180884            4.92211
     77       0.00000           0.191216            5.20325
     78       0.00000           0.194863            5.30249
     79       0.00000           0.205319            5.58703
     80       0.00000           0.216160            5.88202
     81       0.00000           0.230399            6.26948
     82       0.00000           0.241132            6.56152
     83       0.00000           0.245446            6.67894
     84       0.00000           0.252174            6.86201
     85       0.00000           0.253234            6.89085
     86       0.00000           0.273372            7.43882
     87       0.00000           0.281517            7.66046
     88       0.00000           0.287615            7.82640
     89       0.00000           0.300983            8.19017
     90       0.00000           0.312489            8.50326
     91       0.00000           0.328765            8.94616
     92       0.00000           0.353511            9.61951
     93       0.00000           0.361551            9.83830
     94       0.00000           0.364628            9.92202
     95       0.00000           0.379696           10.33207
     96       0.00000           0.391833           10.66230

  Highest occupied state (VBM) at    -11.74157878 eV
  | Occupation number:      2.00000000

  Lowest unoccupied state (CBM) at    -4.01648991 eV
  | Occupation number:      0.00000000

  Overall HOMO-LUMO gap:      7.72508887 eV.
  Calculating total energy contributions from superposition of free atom densities.

  Total energy components:
  | Sum of eigenvalues            :        -890.38833177 Ha      -24228.69925011 eV
  | XC energy correction          :        -144.63512816 Ha       -3935.72208445 eV
  | XC potential correction       :         188.34329886 Ha        5125.08192337 eV
  | Free-atom electrostatic energy:        -778.33819136 Ha      -21179.65979615 eV
  | Hartree energy correction     :           0.00000000 Ha           0.00000000 eV
  | Entropy correction            :           0.00000000 Ha           0.00000000 eV
  | ---------------------------
  | Total energy                  :       -1625.01835242 Ha      -44218.99920734 eV
  | Total energy, T -> 0          :       -1625.01835242 Ha      -44218.99920734 eV  <-- do not rely on this value for anything but (periodic) metals
  | Electronic free energy        :       -1625.01835242 Ha      -44218.99920734 eV

  Derived energy quantities:
  | Kinetic energy                :        1628.70886582 Ha       44319.42318650 eV
  | Electrostatic energy          :       -3109.09209009 Ha      -84602.70030939 eV
  | Energy correction for multipole
  | error in Hartree potential    :           0.00000000 Ha           0.00000000 eV
  | Sum of eigenvalues per atom                           :       -2019.05827084 eV
  | Total energy (T->0) per atom                          :       -3684.91660061 eV  <-- do not rely on this value for anything but (periodic) metals
  | Electronic free energy per atom                       :       -3684.91660061 eV
  Initialize hartree_potential_storage
  Max. number of atoms included in rho_multipole:           12

  End scf initialization - timings             :  max(cpu_time)    wall_clock(cpu1)
  | Time for scf. initialization                :        0.120 s           0.121 s
  | Boundary condition initialization           :        0.000 s           0.001 s
  | Integration                                 :        0.049 s           0.049 s
  | Solution of K.-S. eqns.                     :        0.012 s           0.012 s
  | Grid partitioning                           :        0.036 s           0.036 s
  | Preloading free-atom quantities on grid     :        0.016 s           0.016 s
  | Free-atom superposition energy              :        0.005 s           0.005 s
  | Total energy evaluation                     :        0.000 s           0.000 s

  Partial memory accounting:
  | Current value for overall tracked memory usage:
  |   Minimum:        0.273 MB (on task 23)
  |   Maximum:        0.292 MB (on task  0)
  |   Average:        0.287 MB
  | Peak value for overall tracked memory usage:
  |   Minimum:        1.344 MB (on task 20 after allocating wave)
  |   Maximum:        1.421 MB (on task  0 after allocating wave)
  |   Average:        1.389 MB
  | Largest tracked array allocation so far:
  |   Minimum:        0.245 MB (H_times_psi on task 20)
  |   Maximum:        0.488 MB (all_coords on task 14)
  |   Average:        0.276 MB
  Note:  These values currently only include a subset of arrays which are explicitly tracked.
  The "true" memory usage will be greater.
------------------------------------------------------------
  Evaluating new KS density.
  Integration grid: deviation in total charge (<rho> - N_e) =   1.421085E-14

  Time for density update prior                :  max(cpu_time)    wall_clock(cpu1)
  | self-consistency iterative process          :        0.030 s           0.030 s

------------------------------------------------------------
          Begin self-consistency iteration #    1

  Date     :  20220517, Time     :  120350.193
------------------------------------------------------------
  Pulay mixing of updated and previous charge densities.
  Renormalizing the density to the exact electron count on the 3D integration grid.
  | Formal number of electrons (from input files) :     120.0000000000
  | Integrated number of electrons on 3D grid     :     120.0000000000
  | Charge integration error                      :       0.0000000000
  | Normalization factor for density and gradient :       1.0000000000

  Evaluating partitioned Hartree potential by multipole expansion.
  | Original multipole sum: apparent total charge =   0.113746E-12
  | Sum of charges compensated after spline to logarithmic grids =   0.122818E-03
  | Analytical far-field extrapolation by fixed multipoles:
  | Hartree multipole sum: apparent total charge =   0.115499E-12
  Summing up the Hartree potential.
  Time summed over all CPUs for potential: real work        0.381 s, elapsed        0.404 s
  | RMS charge density error from multipole expansion :   0.126369E-01

  Integrating Hamiltonian matrix: batch-based integration.
  Time summed over all CPUs for integration: real work        0.716 s, elapsed        0.754 s

  Updating Kohn-Sham eigenvalues and eigenvectors using ELSI and the ELPA eigensolver.
  Starting ELPA eigensolver
  Finished transformation to standard eigenproblem
  | Time :     0.000 s
  Finished solving standard eigenproblem
  | Time :     0.003 s
  Finished back-transformation of eigenvectors
  | Time :     0.000 s

  Obtaining occupation numbers and chemical potential using ELSI.
  | Chemical potential (Fermi level):    -5.56178774 eV
  Writing Kohn-Sham eigenvalues.

  State    Occupation    Eigenvalue [Ha]    Eigenvalue [eV]
      1       2.00000         -55.689676        -1515.39320
      2       2.00000         -55.686218        -1515.29909
      3       2.00000         -55.523164        -1510.86216
      4       2.00000         -24.300256         -661.24361
      5       2.00000         -24.219658         -659.05042
      6       2.00000         -24.207663         -658.72403
      7       2.00000         -24.181466         -658.01116
      8       2.00000         -24.153557         -657.25172
      9       2.00000         -24.099830         -655.78974
     10       2.00000         -24.079497         -655.23646
     11       2.00000         -24.003120         -653.15813
     12       2.00000         -23.988980         -652.77335
     13       2.00000          -4.126427         -112.28579
     14       2.00000          -4.122787         -112.18674
     15       2.00000          -4.015143         -109.25761
     16       2.00000          -2.719552          -74.00279
     17       2.00000          -2.718988          -73.98743
     18       2.00000          -2.718678          -73.97899
     19       2.00000          -2.716505          -73.91985
     20       2.00000          -2.715556          -73.89404
     21       2.00000          -2.714671          -73.86995
     22       2.00000          -2.633229          -71.65381
     23       2.00000          -2.597230          -70.67423
     24       2.00000          -2.594581          -70.60215
     25       2.00000          -1.316878          -35.83407
     26       2.00000          -1.152026          -31.34821
     27       2.00000          -1.137094          -30.94190
     28       2.00000          -1.129302          -30.72987
     29       2.00000          -1.082101          -29.44547
     30       2.00000          -1.046253          -28.47000
     31       2.00000          -1.020910          -27.78037
     32       2.00000          -0.958191          -26.07370
     33       2.00000          -0.944536          -25.70215
     34       2.00000          -0.682882          -18.58215
     35       2.00000          -0.635249          -17.28601
     36       2.00000          -0.626105          -17.03717
     37       2.00000          -0.527465          -14.35305
     38       2.00000          -0.517261          -14.07540
     39       2.00000          -0.484053          -13.17174
     40       2.00000          -0.478898          -13.03148
     41       2.00000          -0.477613          -12.99652
     42       2.00000          -0.455861          -12.40461
     43       2.00000          -0.448763          -12.21145
     44       2.00000          -0.430683          -11.71948
     45       2.00000          -0.421878          -11.47989
     46       2.00000          -0.412832          -11.23373
     47       2.00000          -0.408579          -11.11799
     48       2.00000          -0.387850          -10.55393
     49       2.00000          -0.386541          -10.51831
     50       2.00000          -0.362486           -9.86374
     51       2.00000          -0.354704           -9.65198
     52       2.00000          -0.353768           -9.62651
     53       2.00000          -0.332986           -9.06101
     54       2.00000          -0.331927           -9.03220
     55       2.00000          -0.328656           -8.94319
     56       2.00000          -0.291727           -7.93831
     57       2.00000          -0.273175           -7.43346
     58       2.00000          -0.268261           -7.29975
     59       2.00000          -0.255692           -6.95774
     60       2.00000          -0.241393           -6.56863
     61       0.00000          -0.174040           -4.73588
     62       0.00000          -0.139319           -3.79107
     63       0.00000          -0.069884           -1.90165
     64       0.00000          -0.064531           -1.75597
     65       0.00000          -0.031810           -0.86560
     66       0.00000          -0.017728           -0.48240
     67       0.00000           0.016433            0.44717
     68       0.00000           0.018711            0.50915
     69       0.00000           0.076442            2.08009
     70       0.00000           0.089678            2.44027
     71       0.00000           0.116226            3.16268
     72       0.00000           0.127395            3.46660
     73       0.00000           0.141931            3.86215
     74       0.00000           0.143124            3.89460
     75       0.00000           0.156427            4.25659
     76       0.00000           0.168679            4.59000
     77       0.00000           0.177325            4.82526
     78       0.00000           0.192793            5.24618
     79       0.00000           0.207724            5.65246
     80       0.00000           0.216620            5.89453
     81       0.00000           0.226325            6.15863
     82       0.00000           0.235788            6.41612
     83       0.00000           0.239793            6.52509
     84       0.00000           0.243637            6.62971
     85       0.00000           0.254573            6.92729
     86       0.00000           0.262992            7.15639
     87       0.00000           0.282346            7.68303
     88       0.00000           0.285916            7.78017
     89       0.00000           0.320212            8.71340
     90       0.00000           0.334475            9.10154
     91       0.00000           0.351311            9.55965
     92       0.00000           0.360481            9.80920
     93       0.00000           0.360887            9.82024
     94       0.00000           0.385490           10.48970
     95       0.00000           0.389912           10.61005
     96       0.00000           0.398114           10.83322

  Highest occupied state (VBM) at     -6.56863106 eV
  | Occupation number:      2.00000000

  Lowest unoccupied state (CBM) at    -4.73588206 eV
  | Occupation number:      0.00000000

  Overall HOMO-LUMO gap:      1.83274900 eV.

  Total energy components:
  | Sum of eigenvalues            :        -882.98202014 Ha      -24027.16325666 eV
  | XC energy correction          :        -146.13532560 Ha       -3976.54453389 eV
  | XC potential correction       :         190.31495052 Ha        5178.73329480 eV
  | Free-atom electrostatic energy:        -778.33819136 Ha      -21179.65979615 eV
  | Hartree energy correction     :          -7.56800292 Ha        -205.93583730 eV
  | Entropy correction            :           0.00000000 Ha           0.00000000 eV
  | ---------------------------
  | Total energy                  :       -1624.70858950 Ha      -44210.57012921 eV
  | Total energy, T -> 0          :       -1624.70858950 Ha      -44210.57012921 eV  <-- do not rely on this value for anything but (periodic) metals
  | Electronic free energy        :       -1624.70858950 Ha      -44210.57012921 eV

  Derived energy quantities:
  | Kinetic energy                :        1636.92722530 Ha       44543.05612610 eV
  | Electrostatic energy          :       -3115.50048919 Ha      -84777.08172142 eV
  | Energy correction for multipole
  | error in Hartree potential    :           0.04385720 Ha           1.19341514 eV
  | Sum of eigenvalues per atom                           :       -2002.26360472 eV
  | Total energy (T->0) per atom                          :       -3684.21417743 eV  <-- do not rely on this value for anything but (periodic) metals
  | Electronic free energy per atom                       :       -3684.21417743 eV
  Evaluating new KS density.
  Integration grid: deviation in total charge (<rho> - N_e) =   2.842171E-14

  Self-consistency convergence accuracy:
  | Change of charge density      :  0.6959E+00
  | Change of sum of eigenvalues  :  0.2015E+03 eV
  | Change of total energy        :  0.8429E+01 eV


------------------------------------------------------------
  End self-consistency iteration #     1       :  max(cpu_time)    wall_clock(cpu1)
  | Time for this iteration                     :        0.085 s           0.084 s
  | Charge density update                       :        0.029 s           0.028 s
  | Density mixing                              :        0.001 s           0.000 s
  | Hartree multipole update                    :        0.001 s           0.001 s
  | Hartree multipole summation                 :        0.017 s           0.018 s
  | Integration                                 :        0.032 s           0.031 s
  | Solution of K.-S. eqns.                     :        0.004 s           0.004 s
  | Total energy evaluation                     :        0.000 s           0.001 s

  Partial memory accounting:
  | Current value for overall tracked memory usage:
  |   Minimum:        0.273 MB (on task 23)
  |   Maximum:        0.292 MB (on task  0)
  |   Average:        0.287 MB
  | Peak value for overall tracked memory usage:
  |   Minimum:        1.344 MB (on task 20 after allocating wave)
  |   Maximum:        1.421 MB (on task  0 after allocating wave)
  |   Average:        1.389 MB
  | Largest tracked array allocation so far:
  |   Minimum:        0.735 MB (gradient_basis_wave on task 20)
  |   Maximum:        0.780 MB (gradient_basis_wave on task  7)
  |   Average:        0.758 MB
  Note:  These values currently only include a subset of arrays which are explicitly tracked.
  The "true" memory usage will be greater.
------------------------------------------------------------

------------------------------------------------------------
          Begin self-consistency iteration #    2

  Date     :  20220517, Time     :  120350.283
------------------------------------------------------------
  Pulay mixing of updated and previous charge densities.
  Renormalizing the density to the exact electron count on the 3D integration grid.
  | Formal number of electrons (from input files) :     120.0000000000
  | Integrated number of electrons on 3D grid     :     120.0000000000
  | Charge integration error                      :      -0.0000000000
  | Normalization factor for density and gradient :       1.0000000000

  Evaluating partitioned Hartree potential by multipole expansion.
  | Original multipole sum: apparent total charge =   0.715917E-13
  | Sum of charges compensated after spline to logarithmic grids =   0.808260E-04
  | Analytical far-field extrapolation by fixed multipoles:
  | Hartree multipole sum: apparent total charge =   0.732890E-13
  Summing up the Hartree potential.
  Time summed over all CPUs for potential: real work        0.380 s, elapsed        0.402 s
  | RMS charge density error from multipole expansion :   0.147864E-01

  Integrating Hamiltonian matrix: batch-based integration.
  Time summed over all CPUs for integration: real work        0.717 s, elapsed        0.750 s

  Updating Kohn-Sham eigenvalues and eigenvectors using ELSI and the ELPA eigensolver.
  Starting ELPA eigensolver
  Finished transformation to standard eigenproblem
  | Time :     0.001 s
  Finished solving standard eigenproblem
  | Time :     0.003 s
  Finished back-transformation of eigenvectors
  | Time :     0.000 s

  Obtaining occupation numbers and chemical potential using ELSI.
  | Chemical potential (Fermi level):    -7.29467413 eV
  Highest occupied state (VBM) at     -7.72847273 eV
  | Occupation number:      2.00000000

  Lowest unoccupied state (CBM) at    -5.03530043 eV
  | Occupation number:      0.00000000

  Overall HOMO-LUMO gap:      2.69317231 eV.

  Checking to see if s.c.f. parameters should be adjusted.

  Total energy components:
  | Sum of eigenvalues            :        -886.29826854 Ha      -24117.40296695 eV
  | XC energy correction          :        -145.62555801 Ha       -3962.67305208 eV
  | XC potential correction       :         189.64403035 Ha        5160.47662809 eV
  | Free-atom electrostatic energy:        -778.33819136 Ha      -21179.65979615 eV
  | Hartree energy correction     :          -4.02843991 Ha        -109.61942739 eV
  | Entropy correction            :           0.00000000 Ha           0.00000000 eV
  | ---------------------------
  | Total energy                  :       -1624.64642747 Ha      -44208.87861449 eV
  | Total energy, T -> 0          :       -1624.64642747 Ha      -44208.87861449 eV  <-- do not rely on this value for anything but (periodic) metals
  | Electronic free energy        :       -1624.64642747 Ha      -44208.87861449 eV

  Derived energy quantities:
  | Kinetic energy                :        1632.87866477 Ha       44432.88918884 eV
  | Electrostatic energy          :       -3111.89953423 Ha      -84679.09475125 eV
  | Energy correction for multipole
  | error in Hartree potential    :           0.04942267 Ha           1.34485933 eV
  | Sum of eigenvalues per atom                           :       -2009.78358058 eV
  | Total energy (T->0) per atom                          :       -3684.07321787 eV  <-- do not rely on this value for anything but (periodic) metals
  | Electronic free energy per atom                       :       -3684.07321787 eV
  Evaluating new KS density.
  Integration grid: deviation in total charge (<rho> - N_e) =   1.421085E-14

  Self-consistency convergence accuracy:
  | Change of charge density      :  0.4728E+00
  | Change of sum of eigenvalues  : -0.9024E+02 eV
  | Change of total energy        :  0.1692E+01 eV


------------------------------------------------------------
  End self-consistency iteration #     2       :  max(cpu_time)    wall_clock(cpu1)
  | Time for this iteration                     :        0.088 s           0.085 s
  | Charge density update                       :        0.029 s           0.029 s
  | Density mixing                              :        0.004 s           0.001 s
  | Hartree multipole update                    :        0.001 s           0.002 s
  | Hartree multipole summation                 :        0.017 s           0.017 s
  | Integration                                 :        0.032 s           0.031 s
  | Solution of K.-S. eqns.                     :        0.004 s           0.004 s
  | Total energy evaluation                     :        0.000 s           0.000 s

  Partial memory accounting:
  | Current value for overall tracked memory usage:
  |   Minimum:        0.274 MB (on task 23)
  |   Maximum:        0.293 MB (on task  0)
  |   Average:        0.288 MB
  | Peak value for overall tracked memory usage:
  |   Minimum:        1.344 MB (on task 20 after allocating wave)
  |   Maximum:        1.421 MB (on task  0 after allocating wave)
  |   Average:        1.389 MB
  | Largest tracked array allocation so far:
  |   Minimum:        0.735 MB (gradient_basis_wave on task 20)
  |   Maximum:        0.780 MB (gradient_basis_wave on task  7)
  |   Average:        0.758 MB
  Note:  These values currently only include a subset of arrays which are explicitly tracked.
  The "true" memory usage will be greater.
------------------------------------------------------------

------------------------------------------------------------
          Begin self-consistency iteration #    3

  Date     :  20220517, Time     :  120350.374
------------------------------------------------------------
  Pulay mixing of updated and previous charge densities.
  Renormalizing the density to the exact electron count on the 3D integration grid.
  | Formal number of electrons (from input files) :     120.0000000000
  | Integrated number of electrons on 3D grid     :     120.0000000000
  | Charge integration error                      :      -0.0000000000
  | Normalization factor for density and gradient :       1.0000000000

  Evaluating partitioned Hartree potential by multipole expansion.
  | Original multipole sum: apparent total charge =   0.956852E-14
  | Sum of charges compensated after spline to logarithmic grids =   0.101256E-03
  | Analytical far-field extrapolation by fixed multipoles:
  | Hartree multipole sum: apparent total charge =   0.827714E-14
  Summing up the Hartree potential.
  Time summed over all CPUs for potential: real work        0.380 s, elapsed        0.401 s
  | RMS charge density error from multipole expansion :   0.187278E-01

  Integrating Hamiltonian matrix: batch-based integration.
  Time summed over all CPUs for integration: real work        0.716 s, elapsed        0.751 s

  Updating Kohn-Sham eigenvalues and eigenvectors using ELSI and the ELPA eigensolver.
  Starting ELPA eigensolver
  Finished transformation to standard eigenproblem
  | Time :     0.000 s
  Finished solving standard eigenproblem
  | Time :     0.003 s
  Finished back-transformation of eigenvectors
  | Time :     0.001 s

  Obtaining occupation numbers and chemical potential using ELSI.
  | Chemical potential (Fermi level):    -5.83839602 eV
  Highest occupied state (VBM) at     -7.26588175 eV
  | Occupation number:      2.00000000

  Lowest unoccupied state (CBM) at    -5.26550122 eV
  | Occupation number:      0.00000000

  Overall HOMO-LUMO gap:      2.00038052 eV.

  Total energy components:
  | Sum of eigenvalues            :        -886.96957161 Ha      -24135.67005285 eV
  | XC energy correction          :        -145.63900678 Ha       -3963.03901174 eV
  | XC potential correction       :         189.66053703 Ha        5160.92579757 eV
  | Free-atom electrostatic energy:        -778.33819136 Ha      -21179.65979615 eV
  | Hartree energy correction     :          -3.35755899 Ha         -91.36382862 eV
  | Entropy correction            :           0.00000000 Ha           0.00000000 eV
  | ---------------------------
  | Total energy                  :       -1624.64379171 Ha      -44208.80689180 eV
  | Total energy, T -> 0          :       -1624.64379171 Ha      -44208.80689180 eV  <-- do not rely on this value for anything but (periodic) metals
  | Electronic free energy        :       -1624.64379171 Ha      -44208.80689180 eV

  Derived energy quantities:
  | Kinetic energy                :        1631.87605114 Ha       44405.60668397 eV
  | Electrostatic energy          :       -3110.88083607 Ha      -84651.37456403 eV
  | Energy correction for multipole
  | error in Hartree potential    :           0.06195453 Ha           1.68586846 eV
  | Sum of eigenvalues per atom                           :       -2011.30583774 eV
  | Total energy (T->0) per atom                          :       -3684.06724098 eV  <-- do not rely on this value for anything but (periodic) metals
  | Electronic free energy per atom                       :       -3684.06724098 eV
  Evaluating new KS density.
  Integration grid: deviation in total charge (<rho> - N_e) =  -1.421085E-14

  Self-consistency convergence accuracy:
  | Change of charge density      :  0.1229E+00
  | Change of sum of eigenvalues  : -0.1827E+02 eV
  | Change of total energy        :  0.7172E-01 eV


------------------------------------------------------------
  End self-consistency iteration #     3       :  max(cpu_time)    wall_clock(cpu1)
  | Time for this iteration                     :        0.086 s           0.084 s
  | Charge density update                       :        0.029 s           0.029 s
  | Density mixing                              :        0.003 s           0.001 s
  | Hartree multipole update                    :        0.001 s           0.001 s
  | Hartree multipole summation                 :        0.017 s           0.017 s
  | Integration                                 :        0.032 s           0.032 s
  | Solution of K.-S. eqns.                     :        0.004 s           0.004 s
  | Total energy evaluation                     :        0.000 s           0.000 s

  Partial memory accounting:
  | Current value for overall tracked memory usage:
  |   Minimum:        0.274 MB (on task 23)
  |   Maximum:        0.293 MB (on task  0)
  |   Average:        0.288 MB
  | Peak value for overall tracked memory usage:
  |   Minimum:        1.344 MB (on task 20 after allocating wave)
  |   Maximum:        1.421 MB (on task  0 after allocating wave)
  |   Average:        1.389 MB
  | Largest tracked array allocation so far:
  |   Minimum:        0.735 MB (gradient_basis_wave on task 20)
  |   Maximum:        0.780 MB (gradient_basis_wave on task  7)
  |   Average:        0.758 MB
  Note:  These values currently only include a subset of arrays which are explicitly tracked.
  The "true" memory usage will be greater.
------------------------------------------------------------

------------------------------------------------------------
          Begin self-consistency iteration #    4

  Date     :  20220517, Time     :  120350.464
------------------------------------------------------------
  Pulay mixing of updated and previous charge densities.
  Renormalizing the density to the exact electron count on the 3D integration grid.
  | Formal number of electrons (from input files) :     120.0000000000
  | Integrated number of electrons on 3D grid     :     120.0000000000
  | Charge integration error                      :       0.0000000000
  | Normalization factor for density and gradient :       1.0000000000

  Evaluating partitioned Hartree potential by multipole expansion.
  | Original multipole sum: apparent total charge =   0.557631E-13
  | Sum of charges compensated after spline to logarithmic grids =   0.112034E-03
  | Analytical far-field extrapolation by fixed multipoles:
  | Hartree multipole sum: apparent total charge =   0.567716E-13
  Summing up the Hartree potential.
  Time summed over all CPUs for potential: real work        0.380 s, elapsed        0.401 s
  | RMS charge density error from multipole expansion :   0.213417E-01

  Integrating Hamiltonian matrix: batch-based integration.
  Time summed over all CPUs for integration: real work        0.716 s, elapsed        0.751 s

  Updating Kohn-Sham eigenvalues and eigenvectors using ELSI and the ELPA eigensolver.
  Starting ELPA eigensolver
  Finished transformation to standard eigenproblem
  | Time :     0.000 s
  Finished solving standard eigenproblem
  | Time :     0.004 s
  Finished back-transformation of eigenvectors
  | Time :     0.000 s

  Obtaining occupation numbers and chemical potential using ELSI.
  | Chemical potential (Fermi level):    -5.83194539 eV
  Highest occupied state (VBM) at     -7.22728312 eV
  | Occupation number:      2.00000000

  Lowest unoccupied state (CBM) at    -5.29614888 eV
  | Occupation number:      0.00000000

  Overall HOMO-LUMO gap:      1.93113424 eV.

  Total energy components:
  | Sum of eigenvalues            :        -887.16353530 Ha      -24140.94807351 eV
  | XC energy correction          :        -145.61634771 Ha       -3962.42242710 eV
  | XC potential correction       :         189.62982641 Ha        5160.09011912 eV
  | Free-atom electrostatic energy:        -778.33819136 Ha      -21179.65979615 eV
  | Hartree energy correction     :          -3.15314554 Ha         -85.80145576 eV
  | Entropy correction            :           0.00000000 Ha           0.00000000 eV
  | ---------------------------
  | Total energy                  :       -1624.64139351 Ha      -44208.74163341 eV
  | Total energy, T -> 0          :       -1624.64139351 Ha      -44208.74163341 eV  <-- do not rely on this value for anything but (periodic) metals
  | Electronic free energy        :       -1624.64139351 Ha      -44208.74163341 eV

  Derived energy quantities:
  | Kinetic energy                :        1631.09342815 Ha       44384.31042892 eV
  | Electrostatic energy          :       -3110.11847395 Ha      -84630.62963522 eV
  | Energy correction for multipole
  | error in Hartree potential    :           0.06983497 Ha           1.90030630 eV
  | Sum of eigenvalues per atom                           :       -2011.74567279 eV
  | Total energy (T->0) per atom                          :       -3684.06180278 eV  <-- do not rely on this value for anything but (periodic) metals
  | Electronic free energy per atom                       :       -3684.06180278 eV
  Evaluating new KS density.
  Integration grid: deviation in total charge (<rho> - N_e) =   0.000000E+00

  Self-consistency convergence accuracy:
  | Change of charge density      :  0.9599E-01
  | Change of sum of eigenvalues  : -0.5278E+01 eV
  | Change of total energy        :  0.6526E-01 eV


------------------------------------------------------------
  End self-consistency iteration #     4       :  max(cpu_time)    wall_clock(cpu1)
  | Time for this iteration                     :        0.088 s           0.085 s
  | Charge density update                       :        0.029 s           0.028 s
  | Density mixing                              :        0.004 s           0.002 s
  | Hartree multipole update                    :        0.001 s           0.001 s
  | Hartree multipole summation                 :        0.017 s           0.017 s
  | Integration                                 :        0.032 s           0.032 s
  | Solution of K.-S. eqns.                     :        0.004 s           0.004 s
  | Total energy evaluation                     :        0.000 s           0.000 s

  Partial memory accounting:
  | Current value for overall tracked memory usage:
  |   Minimum:        0.274 MB (on task 23)
  |   Maximum:        0.293 MB (on task  0)
  |   Average:        0.288 MB
  | Peak value for overall tracked memory usage:
  |   Minimum:        1.344 MB (on task 20 after allocating wave)
  |   Maximum:        1.421 MB (on task  0 after allocating wave)
  |   Average:        1.389 MB
  | Largest tracked array allocation so far:
  |   Minimum:        0.735 MB (gradient_basis_wave on task 20)
  |   Maximum:        0.780 MB (gradient_basis_wave on task  7)
  |   Average:        0.758 MB
  Note:  These values currently only include a subset of arrays which are explicitly tracked.
  The "true" memory usage will be greater.
------------------------------------------------------------

------------------------------------------------------------
          Begin self-consistency iteration #    5

  Date     :  20220517, Time     :  120350.556
------------------------------------------------------------
  Pulay mixing of updated and previous charge densities.
  Renormalizing the density to the exact electron count on the 3D integration grid.
  | Formal number of electrons (from input files) :     120.0000000000
  | Integrated number of electrons on 3D grid     :     120.0000000000
  | Charge integration error                      :       0.0000000000
  | Normalization factor for density and gradient :       1.0000000000

  Evaluating partitioned Hartree potential by multipole expansion.
  | Original multipole sum: apparent total charge =   0.819474E-13
  | Sum of charges compensated after spline to logarithmic grids =   0.114242E-03
  | Analytical far-field extrapolation by fixed multipoles:
  | Hartree multipole sum: apparent total charge =   0.848745E-13
  Summing up the Hartree potential.
  Time summed over all CPUs for potential: real work        0.380 s, elapsed        0.401 s
  | RMS charge density error from multipole expansion :   0.216321E-01

  Integrating Hamiltonian matrix: batch-based integration.
  Time summed over all CPUs for integration: real work        0.717 s, elapsed        0.751 s

  Updating Kohn-Sham eigenvalues and eigenvectors using ELSI and the ELPA eigensolver.
  Starting ELPA eigensolver
  Finished transformation to standard eigenproblem
  | Time :     0.001 s
  Finished solving standard eigenproblem
  | Time :     0.003 s
  Finished back-transformation of eigenvectors
  | Time :     0.000 s

  Obtaining occupation numbers and chemical potential using ELSI.
  | Chemical potential (Fermi level):    -5.81930095 eV
  Highest occupied state (VBM) at     -7.29675592 eV
  | Occupation number:      2.00000000

  Lowest unoccupied state (CBM) at    -5.25743022 eV
  | Occupation number:      0.00000000

  Overall HOMO-LUMO gap:      2.03932570 eV.

  Total energy components:
  | Sum of eigenvalues            :        -887.13500963 Ha      -24140.17185035 eV
  | XC energy correction          :        -145.60648642 Ha       -3962.15408754 eV
  | XC potential correction       :         189.61679345 Ha        5159.73547417 eV
  | Free-atom electrostatic energy:        -778.33819136 Ha      -21179.65979615 eV
  | Hartree energy correction     :          -3.17835122 Ha         -86.48733724 eV
  | Entropy correction            :           0.00000000 Ha           0.00000000 eV
[...]
   Total forces(   7)            :  0.538982E+01  0.201350E-01 -0.606275E+00
  atom #    8
   Hellmann-Feynman              :  0.171009E+01 -0.910455E+00  0.158705E+01
   Ionic forces                  :  0.000000E+00  0.000000E+00  0.000000E+00
   Multipole                     :  0.379357E+00 -0.663598E-01 -0.742535E-01
   Hartree pot. SCF incomplete   :  0.118975E-04 -0.499292E-05 -0.109562E-04
   Pulay + GGA                   : -0.364809E+01  0.117063E+01 -0.429095E+00
   ----------------------------------------------------------------
   Total forces(   8)            : -0.155863E+01  0.193806E+00  0.108369E+01
  atom #    9
   Hellmann-Feynman              : -0.595084E+00  0.710021E+00 -0.360573E+01
   Ionic forces                  :  0.000000E+00  0.000000E+00  0.000000E+00
   Multipole                     :  0.300017E+00  0.383190E+00 -0.733894E+00
   Hartree pot. SCF incomplete   : -0.124110E-05  0.317528E-05 -0.406742E-05
   Pulay + GGA                   :  0.925636E-02 -0.224568E+01  0.751040E+01
   ----------------------------------------------------------------
   Total forces(   9)            : -0.285812E+00 -0.115247E+01  0.317077E+01
  atom #   10
   Hellmann-Feynman              :  0.549299E+00  0.861570E+00  0.245922E+01
   Ionic forces                  :  0.000000E+00  0.000000E+00  0.000000E+00
   Multipole                     :  0.192251E+00  0.446153E+00  0.929460E-01
   Hartree pot. SCF incomplete   :  0.170806E-05  0.167678E-04 -0.345817E-05
   Pulay + GGA                   : -0.782545E+00 -0.283934E+01 -0.242967E+01
   ----------------------------------------------------------------
   Total forces(  10)            : -0.409933E-01 -0.153160E+01  0.122492E+00
  atom #   11
   Hellmann-Feynman              :  0.252531E+01  0.779189E+00  0.894359E+00
   Ionic forces                  :  0.000000E+00  0.000000E+00  0.000000E+00
   Multipole                     :  0.758689E+00  0.453918E+00  0.225757E+00
   Hartree pot. SCF incomplete   :  0.224066E-05  0.151946E-05  0.352985E-05
   Pulay + GGA                   : -0.667250E+01 -0.262778E+01 -0.261210E+01
   ----------------------------------------------------------------
   Total forces(  11)            : -0.338850E+01 -0.139467E+01 -0.149198E+01
  atom #   12
   Hellmann-Feynman              :  0.136092E+02  0.158820E+02 -0.545759E+02
   Ionic forces                  :  0.000000E+00  0.000000E+00  0.000000E+00
   Multipole                     :  0.249663E+00  0.409464E+00 -0.994075E+00
   Hartree pot. SCF incomplete   : -0.675123E-05 -0.776867E-06 -0.221049E-04
   Pulay + GGA                   : -0.553374E+01 -0.131780E+01 -0.144647E+01
   ----------------------------------------------------------------
   Total forces(  12)            :  0.832509E+01  0.149736E+02 -0.570165E+02


  Self-consistency convergence accuracy:
  | Change of charge density      :  0.5166E-06
  | Change of sum of eigenvalues  : -0.1511E-04 eV
  | Change of total energy        : -0.1167E-07 eV
  | Change of forces              :  0.3737E-05 eV/A

  Writing Kohn-Sham eigenvalues.

  State    Occupation    Eigenvalue [Ha]    Eigenvalue [eV]
      1       2.00000         -55.677523        -1515.06250
      2       2.00000         -55.666677        -1514.76736
      3       2.00000         -55.494214        -1510.07441
      4       2.00000         -24.372091         -663.19833
      5       2.00000         -24.310826         -661.53123
      6       2.00000         -24.298409         -661.19334
      7       2.00000         -24.266981         -660.33816
      8       2.00000         -24.257094         -660.06912
      9       2.00000         -24.243791         -659.70712
     10       2.00000         -24.231595         -659.37526
     11       2.00000         -24.130664         -656.62879
     12       2.00000         -24.127942         -656.55470
     13       2.00000          -4.133621         -112.48155
     14       2.00000          -4.114750         -111.96805
     15       2.00000          -4.014470         -109.23930
     16       2.00000          -2.726279          -74.18582
     17       2.00000          -2.725525          -74.16532
     18       2.00000          -2.723057          -74.09814
     19       2.00000          -2.708463          -73.70102
     20       2.00000          -2.706776          -73.65513
     21       2.00000          -2.703905          -73.57699
     22       2.00000          -2.630399          -71.57680
     23       2.00000          -2.594923          -70.61145
     24       2.00000          -2.590813          -70.49960
     25       2.00000          -1.345896          -36.62369
     26       2.00000          -1.180274          -32.11690
     27       2.00000          -1.159224          -31.54409
     28       2.00000          -1.158500          -31.52438
     29       2.00000          -1.105288          -30.07641
     30       2.00000          -1.104646          -30.05895
     31       2.00000          -1.071718          -29.16292
     32       2.00000          -0.981283          -26.70206
     33       2.00000          -0.973307          -26.48504
     34       2.00000          -0.712285          -19.38226
     35       2.00000          -0.664456          -18.08078
     36       2.00000          -0.654981          -17.82294
     37       2.00000          -0.548621          -14.92874
     38       2.00000          -0.544234          -14.80937
     39       2.00000          -0.508190          -13.82856
     40       2.00000          -0.506954          -13.79492
     41       2.00000          -0.498428          -13.56291
     42       2.00000          -0.481669          -13.10687
     43       2.00000          -0.476055          -12.95410
     44       2.00000          -0.464068          -12.62793
     45       2.00000          -0.454247          -12.36068
     46       2.00000          -0.444287          -12.08966
     47       2.00000          -0.442286          -12.03520
     48       2.00000          -0.430918          -11.72587
     49       2.00000          -0.413102          -11.24108
     50       2.00000          -0.409154          -11.13365
     51       2.00000          -0.407927          -11.10026
     52       2.00000          -0.385072          -10.47834
     53       2.00000          -0.378998          -10.31306
     54       2.00000          -0.377228          -10.26491
     55       2.00000          -0.349287           -9.50459
     56       2.00000          -0.317330           -8.63500
     57       2.00000          -0.295277           -8.03488
     58       2.00000          -0.289114           -7.86718
     59       2.00000          -0.281179           -7.65126
     60       2.00000          -0.267741           -7.28561
     61       0.00000          -0.192503           -5.23826
     62       0.00000          -0.157228           -4.27838
     63       0.00000          -0.081085           -2.20645
     64       0.00000          -0.071332           -1.94105
     65       0.00000          -0.039607           -1.07777
     66       0.00000          -0.024015           -0.65348
     67       0.00000           0.006230            0.16953
     68       0.00000           0.010088            0.27452
     69       0.00000           0.065334            1.77783
     70       0.00000           0.086706            2.35938
     71       0.00000           0.109065            2.96781
     72       0.00000           0.120258            3.27240
     73       0.00000           0.132679            3.61039
     74       0.00000           0.142437            3.87592
     75       0.00000           0.145554            3.96072
     76       0.00000           0.155553            4.23280
     77       0.00000           0.168676            4.58989
     78       0.00000           0.187133            5.09216
     79       0.00000           0.200657            5.46015
     80       0.00000           0.209392            5.69785
     81       0.00000           0.217055            5.90636
     82       0.00000           0.227834            6.19968
     83       0.00000           0.230590            6.27466
     84       0.00000           0.238350            6.48583
     85       0.00000           0.249733            6.79558
     86       0.00000           0.254781            6.93295
     87       0.00000           0.269483            7.33301
     88       0.00000           0.279654            7.60978
     89       0.00000           0.317114            8.62911
     90       0.00000           0.329176            8.95733
     91       0.00000           0.343061            9.33517
     92       0.00000           0.348848            9.49262
     93       0.00000           0.353094            9.60819
     94       0.00000           0.375136           10.20798
     95       0.00000           0.378676           10.30429
     96       0.00000           0.388652           10.57577

  Highest occupied state (VBM) at     -7.28560966 eV
  | Occupation number:      2.00000000

  Lowest unoccupied state (CBM) at    -5.23826259 eV
  | Occupation number:      0.00000000

  Overall HOMO-LUMO gap:      2.04734707 eV.
  | Chemical Potential                          :    -5.81292566 eV

  Self-consistency cycle converged.


------------------------------------------------------------
  End self-consistency iteration #    14       :  max(cpu_time)    wall_clock(cpu1)
  | Time for this iteration                     :        0.316 s           0.311 s
  | Charge density & force component update     :        0.156 s           0.157 s
  | Density mixing                              :        0.010 s           0.005 s
  | Hartree multipole update                    :        0.010 s           0.010 s
  | Hartree multipole summation                 :        0.049 s           0.049 s
  | Hartree pot. SCF incomplete forces          :        0.032 s           0.032 s
  | Integration                                 :        0.037 s           0.038 s
  | Solution of K.-S. eqns.                     :        0.018 s           0.018 s
  | Total energy evaluation                     :        0.000 s           0.000 s

  Partial memory accounting:
  | Current value for overall tracked memory usage:
  |   Minimum:        0.274 MB (on task 23)
  |   Maximum:        0.293 MB (on task  0)
  |   Average:        0.289 MB
  | Peak value for overall tracked memory usage:
  |   Minimum:        3.000 MB (on task 20 after allocating hessian_basis_wave)
  |   Maximum:        3.155 MB (on task  7 after allocating hessian_basis_wave)
  |   Average:        3.084 MB
  | Largest tracked array allocation so far:
  |   Minimum:        1.470 MB (hessian_basis_wave on task 20)
  |   Maximum:        1.560 MB (hessian_basis_wave on task  7)
  |   Average:        1.515 MB
  Note:  These values currently only include a subset of arrays which are explicitly tracked.
  The "true" memory usage will be greater.
------------------------------------------------------------
  Removing unitary transformations (pure translations, rotations) from forces on atoms.
  Atomic forces before filtering:
  | Net force on center of mass :   0.144202E-01  0.775220E-02 -0.137730E-01 eV/A
  | Net torque on center of mass:   0.926435E-02 -0.311410E-01  0.270426E-02 eV
  Atomic forces after filtering:
  | Net force on center of mass :  -0.285450E-14  0.000000E+00  0.228360E-13 eV/A
  | Net torque on center of mass:  -0.604214E-14 -0.241686E-13  0.679741E-14 eV

  Energy and forces in a compact form:
  | Total energy uncorrected      :         -0.442087368549633E+05 eV
  | Total energy corrected        :         -0.442087368549633E+05 eV  <-- do not rely on this value for anything but (periodic) metals
  | Electronic free energy        :         -0.442087368549633E+05 eV
  Total atomic forces (unitary forces cleaned) [eV/Ang]:
  |    1         -0.150859495981277E+02         -0.150414024350341E+02          0.605496877024747E+02
  |    2          0.127388755726884E+01          0.112709938936876E+01          0.188544970049883E+01
  |    3          0.239964954148780E+01          0.259829990412384E+01         -0.374353864979706E+01
  |    4          0.160018666348363E+01          0.114000785363336E-01         -0.121673499194452E+01
  |    5          0.181810879524222E+01         -0.134424360921255E+01         -0.105937606795001E+01
  |    6         -0.437638049254169E+00          0.154497282687385E+01         -0.168197791685608E+01
  |    7          0.538891943841458E+01          0.195545119742668E-01         -0.605118831504779E+00
  |    8         -0.156064669770965E+01          0.192750356831550E+00          0.108392155641351E+01
  |    9         -0.288903862288386E+00         -0.115353136234346E+01          0.317185886656651E+01
  |   10         -0.423418888983301E-01         -0.153239856521309E+01          0.123161779650784E+00
  |   11         -0.338878968344528E+01         -0.139559018029046E+01         -0.149266812921469E+01
  |   12          0.832351778382647E+01          0.149730890843850E+02         -0.570146650183372E+02

  ------------------------------------ 
  Start decomposition of the XC Energy 
  ------------------------------------ 
  X and C from original XC functional choice 
  Hartree-Fock Energy :          0.000000000 Ha              0.000000000 eV
  X Energy            :       -140.623785544 Ha          -3826.567898289 eV
  C Energy            :         -4.986554179 Ha           -135.691043099 eV
  Total XC Energy     :       -145.610339723 Ha          -3962.258941388 eV
  ------------------------------------ 
  LDA X and C from self-consistent density 
  X Energy LDA        :       -133.239514365 Ha          -3625.631655988 eV
  C Energy LDA        :         -8.848112779 Ha           -240.769398936 eV
  ------------------------------------ 
  End decomposition of the XC Energy 
  ------------------------------------ 

------------------------------------------------------------

------------------------------------------------------------------------------
  Final output of selected total energy values:

  The following output summarizes some interesting total energy values
  at the end of a run (AFTER all relaxation, molecular dynamics, etc.).

  | Total energy of the DFT / Hartree-Fock s.c.f. calculation      :         -44208.736854963 eV
  | Final zero-broadening corrected energy (caution - metals only) :         -44208.736854963 eV
  | For reference only, the value of 1 Hartree used in FHI-aims is :             27.211384500 eV

  Before relying on these values, please be sure to understand exactly which
  total energy value is referred to by a given number. Different objects may
  all carry the same name 'total energy'. Definitions:

  Total energy of the DFT / Hartree-Fock s.c.f. calculation:
  | Note that this energy does not include ANY quantities calculated after the
  | s.c.f. cycle, in particular not ANY RPA, MP2, etc. many-body perturbation terms.

  Final zero-broadening corrected energy:
  | For metallic systems only, a broadening of the occupation numbers at the Fermi
  | level can be extrapolated back to zero broadening by an electron-gas inspired
  | formula. For all systems that are not real metals, this value can be
  | meaningless and should be avoided.

------------------------------------------------------------------------------
  Methods described in the following list of references were used in this FHI-aims run.
  If you publish the results, please make sure to cite these reference if they apply.
  FHI-aims is an academic code, and for our developers (often, Ph.D. students
  and postdocs), scientific credit in the community is essential.
  Thank you for helping us!

  For any use of FHI-aims, please cite:

    Volker Blum, Ralf Gehrke, Felix Hanke, Paula Havu, Ville Havu,
    Xinguo Ren, Karsten Reuter, and Matthias Scheffler
    'Ab initio molecular simulations with numeric atom-centered orbitals'
    Computer Physics Communications 180, 2175-2196 (2009)
    http://dx.doi.org/10.1016/j.cpc.2009.06.022


  The ELSI infrastructure was used in your run to solve the Kohn-Sham electronic structure.
  Please check out http://elsi-interchange.org to learn more.
  If scalability is important for your project, please acknowledge ELSI by citing:

    V. W-z. Yu, F. Corsetti, A. Garcia, W. P. Huhn, M. Jacquelin, W. Jia,
    B. Lange, L. Lin, J. Lu, W. Mi, A. Seifitokaldani, A. Vazquez-Mayagoitia,
    C. Yang, H. Yang, and V. Blum
    'ELSI: A unified software interface for Kohn-Sham electronic structure solvers'
    Computer Physics Communications 222, 267-285 (2018).
    http://dx.doi.org/10.1016/j.cpc.2017.09.007


  For the real-space grid partitioning and parallelization used in this calculation, please cite:

    Ville Havu, Volker Blum, Paula Havu, and Matthias Scheffler,
    'Efficient O(N) integration for all-electron electronic structure calculation'
    'using numerically tabulated basis functions'
    Journal of Computational Physics 228, 8367-8379 (2009).
    http://dx.doi.org/10.1016/j.jcp.2009.08.008

  Of course, there are many other important community references, e.g., those cited in the
  above references. Our list is limited to references that describe implementations in the
  FHI-aims code. The reason is purely practical (length of this list) - please credit others as well.

------------------------------------------------------------
          Leaving FHI-aims.
          Date     :  20220517, Time     :  120351.949

          Computational steps:
          | Number of self-consistency cycles          :           14
          | Number of SCF (re)initializations          :            1

          Detailed time accounting                     :  max(cpu_time)    wall_clock(cpu1)
          | Total time                                  :        2.063 s           2.136 s
          | Preparation time                            :        0.184 s           0.184 s
          | Boundary condition initalization            :        0.000 s           0.001 s
          | Grid partitioning                           :        0.036 s           0.036 s
          | Preloading free-atom quantities on grid     :        0.016 s           0.016 s
          | Free-atom superposition energy              :        0.005 s           0.005 s
          | Total time for integrations                 :        0.508 s           0.508 s
          | Total time for solution of K.-S. equations  :        0.108 s           0.107 s
          | Total time for density & force components   :        0.687 s           0.687 s
          | Total time for mixing                       :        0.064 s           0.037 s
          | Total time for Hartree multipole update     :        0.027 s           0.027 s
          | Total time for Hartree multipole sum        :        0.303 s           0.305 s
          | Total time for total energy evaluation      :        0.002 s           0.002 s
          | Total time NSC force correction             :        0.063 s           0.063 s
          | Total time for scaled ZORA corrections      :        0.000 s           0.000 s

          Partial memory accounting:
          | Residual value for overall tracked memory usage across tasks:     0.000000 MB (should be 0.000000 MB)
          | Peak values for overall tracked memory usage:
          |   Minimum:        3.000 MB (on task 20 after allocating hessian_basis_wave)
          |   Maximum:        3.155 MB (on task  7 after allocating hessian_basis_wave)
          |   Average:        3.084 MB
          | Largest tracked array allocation:
          |   Minimum:        1.470 MB (hessian_basis_wave on task 20)
          |   Maximum:        1.560 MB (hessian_basis_wave on task  7)
          |   Average:        1.515 MB
          Note:  These values currently only include a subset of arrays which are explicitly tracked.
          The "true" memory usage will be greater.

          Have a nice day.
------------------------------------------------------------
