 12
 energy=14.573547854874677 cutoff=4.00000000 nneightol=1.20000000 pbc="T T T" Lattice="14.34465014       0.00000000       0.00000000       0.00000000      14.20129436       0.00000000       0.00000000       0.00000000      17.49307377" Properties=species:S:1:pos:R:3:forces:R:3:Z:I:1:map_shift:I:3:n_neighb:I:1:force:R:3
 Al              1.55496518     -0.01299018      2.36641207      0.73519700      0.56177500      0.14491300      13       0       0       0       8      0.11848765     -0.03888453     -0.00542592
 Al              1.21608500      1.25502550     -0.10158450     -0.02975200      0.05030900     -0.11027600      13       0       0       0      11      0.04235201      0.21957133     -0.12104718
 Al             -0.49481156      0.79261525     -2.24104027     -0.60467500     -0.66661600      0.29488200      13       0       0       0       8     -0.23710166     -0.13985522      0.05288088
 F              -1.85982317     -0.34794395     -2.01311611      0.34432200      0.33088800     -0.06625200       9       0       0       0       6      0.22360210      0.20888499     -0.07826995
 F               2.45262575     -0.11103395      0.69016895     -0.01453300     -0.07322100      0.04928500       9       0       0       0       9      0.08325761     -0.10860456     -0.12583460
 F              -0.08460336      1.63186279     -3.82845833      0.09829800      0.24664000     -0.34830000       9       0       0       0       6     -0.04387621     -0.02196855     -0.02191973
 F              -0.41685681      2.01565825     -0.79885205      0.05099000      0.06375000      0.04850600       9       0       0       0       9      0.07350406     -0.06963260      0.09549374
 F               2.38744106      2.62773151     -0.36503794      0.04091400      0.03397300      0.00155600       9       0       0       0       9     -0.04951623     -0.05553156      0.00324278
 F               1.11582024     -0.00855059     -1.53582775      0.08683700      0.01839900      0.02475200       9       0       0       0       9      0.15635389     -0.22846896     -0.25545057
 F               0.26279662      1.26790893      1.58719604     -0.04689600     -0.02842300      0.04524700       9       0       0       0      10     -0.36339996      0.26755273      0.30475664
 F               2.48482697      0.97213858      3.66461544     -0.26985900     -0.14189500     -0.20504000       9       0       0       0       6      0.10045076      0.10683482      0.16003224
 F               0.55459017     -1.57356285      2.69278757     -0.39084100     -0.39557800      0.12072700       9       0       0       0       5     -0.10411400     -0.13989788     -0.00845834
 12
 energy=14.573454881419401 cutoff=4.00000000 nneightol=1.20000000 pbc="T T T" Lattice="14.78301123       0.00000000       0.00000000       0.00000000      13.73633610       0.00000000       0.00000000       0.00000000      17.60429677" Properties=species:S:1:pos:R:3:forces:R:3:Z:I:1:map_shift:I:3:n_neighb:I:1:force:R:3
 Al              1.21841218     -0.13782018      2.40386907     -0.73107800     -0.59943100     -0.05528900      13       0       0       0       8     -0.15897165     -0.23367537      0.01698641
 Al              1.34374100      1.12919450     -0.06550950      0.06856000     -0.01316000      0.10372800      13       0       0       0      11      0.24189082      0.04858268      0.06546824
 Al             -0.35556156      1.12378225     -2.28518327      0.55063900      0.65784400     -0.37596700      13       0       0       0       8     -0.03374964      0.11906906     -0.01005606
 F              -1.99129517      0.20559905     -2.13118511     -0.42744300     -0.37457700      0.02710700       9       0       0       0       5     -0.13977367     -0.08972815      0.05278117
 F               2.14925975     -0.41003795      0.77908395      0.05283300      0.03769400     -0.06372500       9       0       0       0       9     -0.08394192      0.06085972     -0.09228425
 F               0.40262864      1.72783379     -3.89182033     -0.11180100     -0.21798400      0.27398800       9       0       0       0       6      0.08005555      0.06094479     -0.18821275
 F              -0.09190681      2.30957225     -0.81902705     -0.08062800     -0.02020400     -0.03504400       9       0       0       0       9     -0.07863853      0.11276667      0.12557673
 F               2.79171606      2.21712251     -0.27595994      0.03474200      0.03732500     -0.01517700       9       0       0       0       9     -0.05739882     -0.04494535      0.01627029
 F               0.99354524     -0.10535660     -1.51973175     -0.03484200     -0.05454700     -0.02915000       9       0       0       0      10      0.18836003     -0.43078547     -0.27452200
 F               0.37183062      1.38277893      1.56395004      0.01524300      0.08367400     -0.04512100       9       0       0       0       9     -0.16905402      0.21724709      0.25761398
 F               2.35960297      0.47752658      3.71247644      0.31185500      0.13936500      0.27429100       9       0       0       0       6     -0.01877488     -0.03664121      0.03277909
 F              -0.00557282     -1.42676385      2.64067057      0.35192100      0.32400200     -0.05964200       9       0       0       0       6      0.22999672      0.21630555     -0.00240086
 12
 energy=15.058872112353164 cutoff=4.00000000 nneightol=1.20000000 pbc="T T T" Lattice="14.61185223       0.00000000       0.00000000       0.00000000      13.12352486       0.00000000       0.00000000       0.00000000      17.28655927" Properties=species:S:1:pos:R:3:forces:R:3:Z:I:1:map_shift:I:3:n_neighb:I:1:force:R:3
 Al              1.38234268      0.21383882      2.42714757     -0.12864800      0.09341300     -0.06254300      13       0       0       0       8     -0.46009718     -0.54254550      0.38386879
 Al              1.14877100      1.33362300     -0.04095300      0.02256000      0.02119500     -0.00408200      13       0       0       0      11      0.11572255      0.29166777     -0.09243671
 Al             -0.42908706      0.67874225     -2.32161327      0.09777000     -0.12242800      0.06814200      13       0       0       0       8     -0.13388283     -0.11670186     -0.34133936
 F              -1.67728667     -0.62986445     -2.60514611     -0.11822000     -0.13193200      0.01548900       9       0       0       0       5      0.04530720      0.05668843     -0.03166318
 F               1.95803875     -0.26617795      0.69371145      0.08868700     -0.11735000     -0.08734600       9       0       0       0       9      0.17149596     -0.14970619      0.19462685
 F              -0.03557386      1.77756129     -3.75056283      0.03252100      0.19231200     -0.20484200       9       0       0       0       5     -0.04814939     -0.07607065     -0.01224214
 F              -0.58487681      1.78407975     -0.71859955     -0.09469200      0.11170900      0.08843200       9       0       0       0      10     -0.03217406      0.28368980      0.27408235
 F               2.93456556      2.15447251      0.21204956     -0.00433800     -0.00407600      0.00078500       9       0       0       0       8      0.86487105      0.84335082     -0.67564455
 F               1.25878224      0.17979191     -1.59910475      0.04042900     -0.04143000     -0.06119800       9       0       0       0      10      0.03958523     -0.03639862      0.10448980
 F               0.50979112      1.77437943      1.74151704     -0.02728900      0.05377400      0.05881800       9       0       0       0       9     -0.11312496      0.01246821     -0.18003768
 F               2.80732847      0.44075808      3.53599644      0.22879300      0.05318600      0.15754100       9       0       0       0       6     -0.06502697      0.07129507     -0.26617971
 F              -0.06635582     -0.96905235      2.53500457     -0.13757400     -0.10837300      0.03080200       9       0       0       0       7     -0.38452662     -0.63773727      0.64247555
 12
 energy=15.058872166403821 cutoff=4.00000000 nneightol=1.20000000 pbc="T T T" Lattice="14.70632123       0.00000000       0.00000000       0.00000000      13.64130586       0.00000000       0.00000000       0.00000000      17.50693827" Properties=species:S:1:pos:R:3:forces:R:3:Z:I:1:map_shift:I:3:n_neighb:I:1:force:R:3
 Al              1.44581968      0.13980482      2.39359257      0.02630600     -0.08734000     -0.14446700      13       0       0       0       8     -0.43718443     -0.56928791      0.37175215
 Al              1.39022000      1.05202400     -0.16858600      0.02255900      0.02119200     -0.00408400      13       0       0       0      11      0.24875722      0.13651845     -0.16277035
 Al             -0.48427106      0.74310125     -2.29244227     -0.05721700      0.05830400      0.15005000      13       0       0       0       8     -0.27228515      0.04470755     -0.26818490
 F              -2.05666967     -0.18739545     -2.40459811     -0.13901300     -0.10765300      0.02648800       9       0       0       0       5      0.04839791      0.05309518     -0.03329364
 F               2.33876975     -0.35873195      0.77469645      0.06446600     -0.05323500      0.01031600       9       0       0       0       9     -0.08850372     -0.01624831     -0.19305468
 F               0.00975614      1.72468929     -3.77452583      0.09577700      0.11853200     -0.23827100       9       0       0       0       5     -0.08379434     -0.03450358      0.00660351
 F              -0.22678481      1.91239375     -0.81381755     -0.05132200      0.06558300     -0.01269500       9       0       0       0      10      0.01928076     -0.01271276      0.11522598
 F               2.64965156      2.48676451      0.36265956     -0.00433800     -0.00407600      0.00078500       9       0       0       0       8      0.68421364      1.05404987     -0.58014825
 F               1.09675824     -0.17719109     -1.60753075      0.11118700     -0.12840100     -0.02039600       9       0       0       0      10      0.35266597     -0.16514135      0.07065444
 F               0.46688212      1.47293843      1.48195604     -0.11719000      0.12276200      0.02148400       9       0       0       0       9     -0.01278286      0.06521617      0.29203609
 F               2.43575947      0.87411208      3.73241244      0.16554800      0.12696600      0.19098800       9       0       0       0       6     -0.05936252      0.06469592     -0.26916721
 F               0.09268717     -1.15454135      2.45093157     -0.11676100     -0.13263500      0.01980100       9       0       0       0       7     -0.39940248     -0.62038923      0.65034686
