1
Lattice="0.0 0.0 0.0 0.0 0.0 0.0 0.0 0.0 0.0" Properties=species:S:1:pos:R:3:forces:R:3 energy=0.000000000000 free_energy=0.000000000000 pbc="F F F"
Al       0.00000000       0.00000000       0.00000000       0.00000000       0.00000000       0.00000000
1
Lattice="0.0 0.0 0.0 0.0 0.0 0.0 0.0 0.0 0.0" Properties=species:S:1:pos:R:3:forces:R:3 energy=0.000000000000 free_energy=0.000000000000 pbc="F F F"
F        0.00000000       0.00000000       0.00000000       0.00000000       0.00000000       0.00000000
12
Properties=species:S:1:pos:R:3:forces:R:3 energy=-187.27329192 pbc="F F F"
Al    1.73017468    0.016142317000000017    2.3258850730000002    1.48678    1.096264    0.379577
Al    1.200457    1.288896    -0.142861    -0.025098    0.134425    -0.231976
Al    -0.645247562    0.7253052499999999    -2.167331773    -1.260812    -1.351999    0.527189
F    -1.833620172    -0.559535453    -1.878688606    0.600264    0.605526    -0.159133
F    2.4785372530000003    -0.089061953    0.5886714519999999    0.007717    -0.178459    0.080172
F    -0.41001986100000004    1.64211329    -3.767306333    0.173773    0.513759    -0.768247
F    -0.52796981    1.925623753    -0.708988049    0.069986    0.168113    0.105525
F    2.3137985569999997    2.7055445120000003    -0.46758844299999996    0.149422    0.141917    -0.024865
F    1.104410239    0.062930405    -1.6097962540000001    0.222894    0.006619    0.039635
F    0.38703611699999996    1.305234429    1.624594039    -0.129852    -0.005447    0.087919
F    2.683596969    0.999300076    3.576282437    -0.489888    -0.276675    -0.34391
F    0.690147675    -1.5128083520000002    2.745944071    -0.805184    -0.854045    0.308114
12
Properties=species:S:1:pos:R:3:forces:R:3 energy=-187.38518821 pbc="F F F"
Al    1.2233016799999998    0.118142317    2.4751990729999997    0.0    0.0    0.0
Al    1.276784    1.189243    -0.083083    0.0    0.0    -0.0
Al    -0.259766562    0.7665902499999999    -2.353611773    0.0    0.0    -0.0
F    -1.401343172    -0.6838784529999999    -2.361052606    -0.0    -0.0    0.0
F    1.7929592530000003    -0.48490195299999994    0.714683452    0.0    -0.0    0.0
F    -0.158867861    2.06377529    -3.687560333    -0.0    -0.0    0.0
F    -0.49346381000000006    1.685251753    -0.653896049    -0.0    0.0    -0.0
F    2.587876557    2.420946512    -0.320355443    0.0    0.0    -0.0
F    1.468075239    0.205749405    -1.777633254    -0.0    -0.0    -0.0
F    0.640675117    1.754854429    1.691967039    -0.0    -0.0    0.0
F    2.7523649690000003    0.352223076    3.5141674370000002    -0.0    -0.0    0.0
F    -0.24865632499999998    -0.886669352    2.9556190709999997    -0.0    -0.0    -0.0
12
Properties=species:S:1:pos:R:3:forces:R:3 energy=-187.24277852 pbc="F F F"
Al    1.1801506800000001    0.084564317    2.374342073    -0.388269    0.251669    -0.287204
Al    1.2834809999999999    1.195529    -0.08429600000000001    0.091641    0.086093    -0.016583
Al    -0.275553562    0.74479925    -2.242088773    0.283997    -0.349643    0.306096
F    -1.185160172    -0.8869464530000001    -2.293606606    -0.414848    -0.558814    0.034494
F    2.055578253    -0.416851953    0.7151674520000001    0.246274    -0.442345    -0.245794
F    -0.12146686100000001    2.2814492900000003    -3.353231333    0.06318    0.797337    -0.74719
F    -0.41518581    1.937445753    -0.716069049    -0.376597    0.319913    0.269378
F    2.590939557    2.423827512    -0.320907443    -0.019978    -0.018768    0.003616
F    1.333671239    -0.10416359500000003    -1.563166254    0.286875    -0.184105    -0.225091
F    0.29017911700000004    1.609226429    1.5652480389999999    -0.125383    0.335819    0.195862
F    2.904373969    0.31249107600000003    3.1455594369999997    0.926149    0.132103    0.568129
F    -0.451055325    -0.6706403519999999    2.885680071    -0.573042    -0.369259    0.144286
12
Properties=species:S:1:pos:R:3:forces:R:3 energy=-187.38518821 pbc="F F F"
Al    1.29308668    0.036752317    2.438310073    0.0    0.0    0.0
Al    1.45455    0.981917    -0.177052    0.0    0.0    -0.0
Al    -0.308642562    0.8235932499999999    -2.3277747730000002    0.0    0.0    -0.0
F    -1.909690172    -0.09100045300000004    -2.092333606    -0.0    -0.0    0.0
F    2.4129202530000002    -0.34347495299999997    0.860982452    0.0    -0.0    0.0
F    0.042152139    1.8293272900000002    -3.793821333    -0.0    -0.0    0.0
F    -0.36313881000000003    1.6088257529999999    -0.599285049    -0.0    0.0    -0.0
F    2.413688557    2.624099512    -0.22827744300000002    0.0    0.0    -0.0
F    1.4821572390000002    0.113755405    -1.9085792540000002    -0.0    -0.0    -0.0
F    0.30687511700000003    1.279683429    1.394401039    -0.0    -0.0    0.0
F    2.5364839690000003    0.604001076    3.628285437    -0.0    -0.0    0.0
F    -0.21857732500000002    -0.9217513519999999    2.939716071    -0.0    -0.0    -0.0
