12
Properties=species:S:1:pos:R:3:forces:R:3 energy=-185.63479131 pbc="F F F"
Al    0.37393047199999996    -2.252958111    -1.995591361    0.083939    0.116685    0.10347
Al    2.14825613    -0.550280256    -0.925165124    0.030933    0.336936    -0.319092
Al    -0.5016172059999999    0.297105403    -1.496481583    0.163666    0.175856    0.452599
F    3.812453288    -0.682209616    -0.083818523    0.047933    0.00882    -0.104027
F    -0.006554474000000005    -4.037259393    -2.159813136    -0.005828    -0.001416    0.01064
F    2.255404638    -2.108658276    -2.248058589    0.18133    -0.231091    -0.043894
F    1.559076495    0.581691339    -2.20119342    -0.010594    -0.141415    0.060838
F    -1.775742922    1.432797031    -2.219920411    -0.045535    -0.01387    0.092471
F    -1.316528486    -1.412070852    -1.123924269    -0.35579    -0.129521    -0.032505
F    0.061760526    -0.7768700089999999    -3.145134181    0.282626    -0.007898    -0.288402
F    0.49668949599999995    0.788130998    0.006652498    -0.092642    -0.127822    -0.126167
F    0.784342134    -1.52922811    -0.157809173    -0.280037    0.014732    0.194068
