********************************************************************************
*                       GENERAL UTILITY LATTICE PROGRAM                        *
*                                 Julian Gale                                  *
*                       Curtin Institute for Computation                       *
*                           Department of Chemistry                            *
*                    Curtin University, Western Australia                      *
********************************************************************************
* Version = 5.1.1 * Last modified =  24th November 2018                        *
********************************************************************************
*  optimise     - perform optimisation run                                     *
*  conp         - constant pressure calculation                                *
*  shell        - only shells and radii to be optimised                        *
*  phonon       - calculate phonons for final geometry                         *
*  eigenvectors - output phonon eigenvectors                                   *
********************************************************************************

  Job Started  at 14:40.27 25th May        2022                               

  Number of CPUs =     1

  Host name      = login03                                 


  Total number of configurations input =      1

********************************************************************************
*  Input for Configuration =   1                                               *
********************************************************************************

  Formula = Al3F9                                                       

  Number of irreducible atoms/shells =      21


  Total number atoms/shells =      21

  Dimensionality = 0               :  Cluster


  Charge on cluster =  -0.000000


  Initial cluster dipoles : x =      1.603295 e.Angs
                            y =      0.404356 e.Angs
                            z =     -3.474684 e.Angs

  Temperature of configuration =  0.000     K 

  Symmetry number =      1

  Cartesian coordinates of cluster :

--------------------------------------------------------------------------------
   No.  Atomic       x           y          z         Charge      Occupancy
        Label      (Angs)      (Angs)     (Angs)        (e)         (Frac)  
--------------------------------------------------------------------------------
      1 Al    c      0.4030     -2.2959     -2.1035     3.00000    1.000000    
      2 Al    c      2.1622     -0.5088     -1.0838     3.00000    1.000000    
      3 Al    c     -0.2077      0.3413     -2.0784     3.00000    1.000000    
      4 F     c      3.6153     -0.1825     -0.0103     0.59000    1.000000    
      5 F     c     -0.1766     -4.0346     -2.2083     0.59000    1.000000    
      6 F     c      1.9829     -1.7747     -2.1492     0.59000    1.000000    
      7 F     c      1.4403      0.5684     -2.1269     0.59000    1.000000    
      8 F     c     -1.4930      1.6498     -2.1542     0.59000    1.000000    
      9 F     c     -1.2788     -1.3077     -0.8735     0.59000    1.000000    
     10 F     c     -0.1227     -1.0194     -3.0329     0.59000    1.000000    
     11 F     c      0.4508      0.4494      0.1290     0.59000    1.000000    
     12 F     c      1.0513     -2.1435      0.1044     0.59000    1.000000    
     13 F     s      3.6153 *   -0.1825 *   -0.0103 *  -1.59000    1.000000    
     14 F     s     -0.1766 *   -4.0346 *   -2.2083 *  -1.59000    1.000000    
     15 F     s      1.9829 *   -1.7747 *   -2.1492 *  -1.59000    1.000000    
     16 F     s      1.4403 *    0.5684 *   -2.1269 *  -1.59000    1.000000    
     17 F     s     -1.4930 *    1.6498 *   -2.1542 *  -1.59000    1.000000    
     18 F     s     -1.2788 *   -1.3077 *   -0.8735 *  -1.59000    1.000000    
     19 F     s     -0.1227 *   -1.0194 *   -3.0329 *  -1.59000    1.000000    
     20 F     s      0.4508 *    0.4494 *    0.1290 *  -1.59000    1.000000    
     21 F     s      1.0513 *   -2.1435 *    0.1044 *  -1.59000    1.000000    
--------------------------------------------------------------------------------


  Brillouin zone sampling points :

--------------------------------------------------------------------------------
  Point number          x          y          z            Weight
--------------------------------------------------------------------------------
        1           0.000000   0.000000   0.000000     1.00000000
--------------------------------------------------------------------------------


********************************************************************************
*  General input information                                                   *
********************************************************************************

  Species output for all configurations : 

--------------------------------------------------------------------------------
  Species    Type    Atomic    Atomic    Charge       Radii (Angs)     Library
                     Number     Mass       (e)     Cova   Ionic  VDW   Symbol
--------------------------------------------------------------------------------
    Al       Core       13      26.98   3.000000   1.350  0.000  2.050          
    F        Core        9      19.00   0.590000   0.710  0.000  1.300          
    F        Shell       9       0.00  -1.590000   0.710  0.000  1.300          
--------------------------------------------------------------------------------


  Accuracy factor for short range sums = 12.000

  Time limit = Infinity

  Maximum range for interatomic potentials =    100000.000000 Angstroms

  General interatomic potentials :

--------------------------------------------------------------------------------
Atom  Types   Potential      Parameter       Value         Units   Cutoffs(Ang)
  1     2                                                            Min /  Max 
--------------------------------------------------------------------------------
Al   c F    s Buckingham    Buckingham A     3760.0008    eV        0.000 10.000
                            Buckingham rho  0.22200000    Ang       
                            Buckingham C     0.0000000    eV*Ang^6  
--------------------------------------------------------------------------------
F    s F    s Buck 4 range  Buck4 A          1127.7000    eV        0.000 12.000
                            Buck4 rho       0.27530000    Ang       
                            Buck4 C          15.830000    eV*Ang^6  
                            Buck4 minimum    2.7900000    Ang       
--------------------------------------------------------------------------------
F    c F    s Spring (c-s)  Spring k 2       20.770000    eV*Ang^-2 0.000  0.800
                            Spring k 4       0.0000000    eV*Ang^-4 
--------------------------------------------------------------------------------

********************************************************************************
*  Output for configuration   1                                                *
********************************************************************************


  Components of energy : 

--------------------------------------------------------------------------------
  Interatomic potentials     =          16.41255896 eV    
  Monopole - monopole (real) =        -178.20041226 eV    
--------------------------------------------------------------------------------
  Total lattice energy       =        -161.78785329 eV    
--------------------------------------------------------------------------------
  Total lattice energy       =          -15610.0547 kJ/mol
--------------------------------------------------------------------------------


  Number of variables =       27

  Maximum number of calculations  =          2000
  Maximum Hessian update interval =            10
  Maximum step size               =   1.000000000
  Maximum parameter tolerance     =   0.000001000
  Maximum function  tolerance     =   0.000010000
  Maximum gradient  tolerance     =   0.000000010
  Maximum gradient  component     =   0.010000000

  Symmetry not applied to optimisation

  Newton-Raphson optimiser to be used

  BFGS hessian update to be used

  Lower half triangular hessian to be used

  Minimiser to switch to RFO
  When gradient norm is less than     0.010000

  Shell only optimisation

  Start of cluster optimisation :

  Cycle:      0 Energy:      -161.787853  Gnorm:      1.318027  CPU:    0.004
  ** Hessian calculated **
  Cycle:      1 Energy:      -176.779906  Gnorm:      0.488634  CPU:    0.005
  ** Hessian calculated **
  Cycle:      2 Energy:      -178.639455  Gnorm:      0.047898  CPU:    0.007
  Cycle:      3 Energy:      -178.654699  Gnorm:      0.009579  CPU:    0.008
  ** Hessian has required structure
  Cycle:      4 Energy:      -178.654712  Gnorm:      0.009523  CPU:    0.010
  ** Hessian has required structure
  Cycle:      5 Energy:      -178.654715  Gnorm:      0.009359  CPU:    0.012
  ** Hessian has required structure
  Cycle:      6 Energy:      -178.654718  Gnorm:      0.009383  CPU:    0.013
  ** Hessian has required structure
  Cycle:      7 Energy:      -178.654723  Gnorm:      0.009324  CPU:    0.014
  ** Hessian has required structure
  Cycle:      8 Energy:      -178.655221  Gnorm:      0.003190  CPU:    0.016
  ** Hessian has required structure
  Cycle:      9 Energy:      -178.655343  Gnorm:      0.000053  CPU:    0.017
  ** Hessian has required structure
  Cycle:     10 Energy:      -178.655343  Gnorm:      0.000053  CPU:    0.019
  ** Hessian has required structure
  Cycle:     11 Energy:      -178.655343  Gnorm:      0.000052  CPU:    0.020
  ** Hessian has required structure
  Cycle:     12 Energy:      -178.655343  Gnorm:      0.000000  CPU:    0.022
  ** Hessian has required structure
  Cycle:     13 Energy:      -178.655343  Gnorm:      0.000000  CPU:    0.023
  ** Hessian has required structure
  Cycle:     14 Energy:      -178.655343  Gnorm:      0.000000  CPU:    0.024
  ** Hessian has required structure
  Cycle:     15 Energy:      -178.655343  Gnorm:      0.000000  CPU:    0.026
  ** Hessian calculated **

  XYZ File written as 006/5/sp_mod_70/sp_mod_70_eig.xyz



  **** Optimisation achieved ****


  Final energy =    -178.65534331 eV
  Final Gnorm  =       0.00000002

  Components of energy : 

--------------------------------------------------------------------------------
  Interatomic potentials     =          41.32927581 eV    
  Monopole - monopole (real) =        -219.98461912 eV    
--------------------------------------------------------------------------------
  Total lattice energy       =        -178.65534331 eV    
--------------------------------------------------------------------------------
  Total lattice energy       =          -17237.5096 kJ/mol
--------------------------------------------------------------------------------

  Final cartesian coordinates of atoms :

--------------------------------------------------------------------------------
   No.  Atomic        x           y          z          Radius
        Label       (Angs)      (Angs)     (Angs)       (Angs) 
--------------------------------------------------------------------------------
     1  Al    c     0.403028   -2.295885   -2.103460    0.000000
     2  Al    c     2.162201   -0.508791   -1.083768    0.000000
     3  Al    c    -0.207682    0.341266   -2.078364    0.000000
     4  F     c     3.615310   -0.182496   -0.010338    0.000000
     5  F     c    -0.176639   -4.034630   -2.208314    0.000000
     6  F     c     1.982909   -1.774665   -2.149229    0.000000
     7  F     c     1.440292    0.568448   -2.126931    0.000000
     8  F     c    -1.493043    1.649828   -2.154219    0.000000
     9  F     c    -1.278840   -1.307667   -0.873540    0.000000
    10  F     c    -0.122736   -1.019387   -3.032929    0.000000
    11  F     c     0.450815    0.449441    0.129042    0.000000
    12  F     c     1.051278   -2.143461    0.104367    0.000000
    13  F     s     3.401064   -0.230002   -0.231979    0.000000
    14  F     s    -0.060665   -3.746675   -2.238544    0.000000
    15  F     s     1.905611   -1.700179   -2.146418    0.000000
    16  F     s     1.403614    0.467530   -2.125789    0.000000
    17  F     s    -1.262431    1.442755   -2.189160    0.000000
    18  F     s    -1.012008   -1.242970   -1.178731    0.000000
    19  F     s    -0.042407   -1.001441   -2.963964    0.000000
    20  F     s     0.586182    0.380586   -0.252353    0.000000
    21  F     s     1.141005   -2.015238   -0.275152    0.000000
--------------------------------------------------------------------------------


  Final Cartesian derivatives :

--------------------------------------------------------------------------------
   No.  Atomic          x             y             z           Radius
        Label       (eV/Angs)     (eV/Angs)    (eV/Angs)      (eV/Angs)
--------------------------------------------------------------------------------
      1 Al    c       0.000000      0.000000      0.000000      0.000000
      2 Al    c       0.000000      0.000000      0.000000      0.000000
      3 Al    c       0.000000      0.000000      0.000000      0.000000
      4 F     c       0.000000      0.000000      0.000000      0.000000
      5 F     c       0.000000      0.000000      0.000000      0.000000
      6 F     c       0.000000      0.000000      0.000000      0.000000
      7 F     c       0.000000      0.000000      0.000000      0.000000
      8 F     c       0.000000      0.000000      0.000000      0.000000
      9 F     c       0.000000      0.000000      0.000000      0.000000
     10 F     c       0.000000      0.000000      0.000000      0.000000
     11 F     c       0.000000      0.000000      0.000000      0.000000
     12 F     c       0.000000      0.000000      0.000000      0.000000
     13 F     s      -0.000000     -0.000000     -0.000000      0.000000
     14 F     s       0.000000      0.000000     -0.000000      0.000000
     15 F     s      -0.000000      0.000000      0.000000      0.000000
     16 F     s      -0.000000     -0.000000      0.000000      0.000000
     17 F     s       0.000000     -0.000000     -0.000000      0.000000
     18 F     s      -0.000000     -0.000000     -0.000000      0.000000
     19 F     s       0.000000      0.000000      0.000000      0.000000
     20 F     s       0.000000      0.000000     -0.000000      0.000000
     21 F     s       0.000000     -0.000000     -0.000000      0.000000
--------------------------------------------------------------------------------
  Maximum abs         0.000000      0.000000      0.000000      0.000000
--------------------------------------------------------------------------------


  Born effective charge tensors : 

-------------------------------------------------------------------------------
  Atom             x           y             z
-------------------------------------------------------------------------------
    1 Al    x       1.1938     -0.5491      0.0983
            y      -0.5246      0.7288      0.6489
            z       0.1192      0.7074      1.7526
-------------------------------------------------------------------------------
    2 Al    x       1.6818      0.0651     -0.7593
            y       0.0657      1.4488     -0.1674
            z      -0.8243     -0.1825      0.5446
-------------------------------------------------------------------------------
    3 Al    x       0.6834      0.5159      0.3873
            y       0.4908      1.2631     -0.5506
            z       0.4314     -0.5939      1.7287
-------------------------------------------------------------------------------
    4 F     x      -0.1727      0.0819      0.3384
            y       0.0828     -0.5216      0.0762
            z       0.2401      0.0534     -0.3082
-------------------------------------------------------------------------------
    5 F     x      -0.4735      0.1719     -0.0115
            y       0.2089      0.0085     -0.0290
            z       0.0202      0.0593     -0.5374
-------------------------------------------------------------------------------
    6 F     x      -0.1036      0.1131     -0.0314
            y       0.0849     -0.1758      0.1495
            z       0.0180      0.1009     -0.2148
-------------------------------------------------------------------------------
    7 F     x      -0.0390     -0.0473      0.0359
            y      -0.0198     -0.2358     -0.1484
            z       0.0594     -0.0829     -0.2194
-------------------------------------------------------------------------------
    8 F     x      -0.2300     -0.2883     -0.0296
            y      -0.3263     -0.2347      0.0278
            z       0.0370     -0.0377     -0.5377
-------------------------------------------------------------------------------
    9 F     x      -0.7999      0.0179      0.2131
            y       0.0191     -0.8821      0.0456
            z       0.0901      0.0172     -0.4966
-------------------------------------------------------------------------------
   10 F     x      -0.3226     -0.0737      0.0639
            y      -0.0730     -0.0240      0.0161
            z      -0.0090     -0.0007     -0.1476
-------------------------------------------------------------------------------
   11 F     x      -0.7893      0.1371     -0.1134
            y       0.1835     -0.6050     -0.1969
            z      -0.0737     -0.0864     -0.7843
-------------------------------------------------------------------------------
   12 F     x      -0.6284     -0.1443     -0.1917
            y      -0.1919     -0.7703      0.1281
            z      -0.1083      0.0461     -0.7799
-------------------------------------------------------------------------------




  Moment of inertia tensor (10^-46 x kgm^2): 

-------------------------------------------------------------------------------
                x           y           z           Principal axis system
-------------------------------------------------------------------------------
       x        131.32        2.62      -22.55          120.918380
       y          2.62      121.58       -5.69          120.918390
       z        -22.55       -5.69      169.79          180.862478
-------------------------------------------------------------------------------
  Centre of mass (Ang) =     0.664937    -0.851631    -1.493155
-------------------------------------------------------------------------------


  Vibrational Frequency Calculation : 

--------------------------------------------------------------------------------

  Frequencies (cm-1) and Eigenvectors : 

  Frequency    -405.1111 -323.1493 -323.1491 -195.5825 -195.5823  -78.0865
  IR Intensity    0.0000    0.1568    0.1568    0.0120    0.0120    0.0000
     in X         0.0000    0.0035    0.1261    0.0099    0.0000    0.0000
     in Y         0.0000    0.1530    0.0021    0.0001    0.0118    0.0000
     in Z         0.0000    0.0003    0.0286    0.0020    0.0002    0.0000
  Raman Intsty    0.0000    0.0000    0.0000    0.0000    0.0000    0.0000

     1 x      -0.307230  0.274061 -0.020292 -0.200286  0.003970 -0.227065
     1 y       0.110201 -0.080878  0.015432  0.079125  0.031732  0.081446
     1 z      -0.128938 -0.544895 -0.317289 -0.051743  0.148736 -0.095295
     2 x       0.079172  0.000032 -0.403425  0.092313  0.082418  0.058514
     2 y      -0.341877 -0.157574 -0.084946  0.091892 -0.200211 -0.252672
     2 z      -0.003253  0.044421  0.532083 -0.086468 -0.029626 -0.002405
     3 x       0.228058 -0.207449  0.023059 -0.108276 -0.098628  0.168551
     3 y       0.231678 -0.202861  0.017922 -0.146186 -0.067156  0.171226
     3 z       0.132191  0.479868 -0.405672  0.041319 -0.152179  0.097700
     4 x      -0.005634  0.000409 -0.010727  0.041450  0.038668  0.082623
     4 y       0.024328 -0.005914 -0.001794  0.043281 -0.096432 -0.356779
     4 z       0.000232 -0.001607 -0.018017 -0.022011 -0.008035 -0.003395
     5 x       0.021863 -0.006120 -0.008557 -0.094109  0.011408 -0.320622
     5 y      -0.007842 -0.016944 -0.005886  0.039656  0.022761  0.115004
     5 z       0.009175  0.006895  0.000837 -0.028413  0.055227 -0.134560
     6 x      -0.132916  0.179734 -0.023967 -0.060730 -0.033294 -0.131855
     6 y      -0.135026 -0.035452  0.127901 -0.286498  0.171390 -0.133947
     6 z      -0.077044 -0.053242  0.096031  0.426389 -0.440661 -0.076428
     7 x       0.179059 -0.137484  0.059490 -0.120853 -0.138657  0.177629
     7 y      -0.064227 -0.131901 -0.106129  0.089487  0.259733 -0.063713
     7 z       0.075147  0.067090  0.083356  0.096365  0.611273  0.074547
     8 x      -0.016229  0.010968 -0.012327 -0.043103 -0.055496  0.237999
     8 y      -0.016486 -0.011961  0.003609 -0.071940 -0.030678  0.241776
     8 z      -0.009407 -0.006913  0.002121  0.007518 -0.061837  0.137955
     9 x       0.092390 -0.047448  0.187506  0.146909  0.055059 -0.067965
     9 y      -0.398956  0.276351  0.019597  0.047305 -0.021400  0.293486
     9 z      -0.003796 -0.005809 -0.097744 -0.233339 -0.074405  0.002793
    10 x      -0.046143 -0.035543 -0.075848  0.528427  0.191584 -0.045775
    10 y       0.199253  0.122936 -0.026965  0.157184 -0.053181  0.197661
    10 z       0.001896 -0.015922 -0.198599 -0.367348 -0.117571  0.001881
    11 x      -0.358522 -0.139733  0.206122 -0.054308 -0.101836  0.263743
    11 y       0.128599  0.130276 -0.036430  0.012573  0.005092 -0.094603
    11 z      -0.150466  0.120274  0.170221  0.045438  0.267813  0.110687
    12 x       0.266132  0.095801  0.155748 -0.085994  0.047151 -0.195776
    12 y       0.270356  0.198492  0.087575 -0.060637  0.023507 -0.198885
    12 z       0.154262 -0.086210  0.189250  0.190861 -0.192398 -0.113480


  Frequency     -50.0650  -50.0645   -0.0000   -0.0000    0.0000   84.5001
  IR Intensity    0.0040    0.0040    0.0000    0.0000    0.0000    0.0132
     in X         0.0030    0.0003    0.0000    0.0000    0.0000    0.0023
     in Y         0.0003    0.0036    0.0000    0.0000    0.0000    0.0001
     in Z         0.0007    0.0000    0.0000    0.0000    0.0000    0.0108
  Raman Intsty    0.0000    0.0000    0.0000    0.0000    0.0000    3.3852

     1 x       0.166607 -0.038185 -0.266043 -0.044335 -0.185323 -0.028738
     1 y      -0.119489 -0.073424 -0.180298 -0.044428  0.269458  0.049348
     1 z      -0.091375 -0.251297  0.061666 -0.321169 -0.011692  0.110653
     2 x      -0.248873 -0.021802 -0.266043 -0.044335 -0.185323 -0.100980
     2 y      -0.044669  0.180934 -0.180298 -0.044428  0.269458 -0.024039
     2 z       0.152111 -0.010105  0.061666 -0.321169 -0.011692  0.068779
     3 x       0.106013  0.051902 -0.266043 -0.044335 -0.185323 -0.003658
     3 y       0.171734 -0.081134 -0.180298 -0.044428  0.269458 -0.058947
     3 z      -0.048896  0.260741  0.061666 -0.321169 -0.011692  0.109622
     4 x      -0.323044 -0.004755 -0.223258 -0.037205 -0.155519 -0.192728
     4 y      -0.067247  0.133907 -0.151303 -0.037283  0.226124 -0.046696
     4 z       0.303431 -0.022302  0.051749 -0.269519 -0.009812  0.216933
     5 x       0.170042  0.044117 -0.223258 -0.037205 -0.155519 -0.096088
     5 y      -0.099014 -0.071282 -0.151303 -0.037283  0.226124  0.051478
     5 z      -0.194130 -0.368742  0.051749 -0.269519 -0.009812  0.272952
     6 x       0.190685 -0.201181 -0.223258 -0.037205 -0.155519 -0.071298
     6 y      -0.053670  0.312726 -0.151303 -0.037283  0.226124  0.283715
     6 z       0.079046 -0.050804  0.051749 -0.269519 -0.009812 -0.374230
     7 x       0.152945  0.020122 -0.223258 -0.037205 -0.155519  0.059101
     7 y       0.185803  0.343820 -0.151303 -0.037283  0.226124 -0.279365
     7 z       0.088664  0.044146  0.051749 -0.269519 -0.009812 -0.379589
     8 x       0.106065 -0.023380 -0.223258 -0.037205 -0.155519 -0.062538
     8 y       0.151286 -0.114757 -0.151303 -0.037283  0.226124 -0.093395
     8 z      -0.132703  0.392351  0.051749 -0.269519 -0.009812  0.271574
     9 x      -0.252868  0.074217 -0.223258 -0.037205 -0.155519  0.055472
     9 y      -0.076653 -0.229874 -0.151303 -0.037283  0.226124  0.013328
     9 z      -0.111038  0.006365  0.051749 -0.269519 -0.009812 -0.050619
    10 x       0.356444 -0.057301 -0.223258 -0.037205 -0.155519  0.434716
    10 y       0.091223  0.121021 -0.151303 -0.037283  0.226124  0.102212
    10 z       0.181313 -0.012839  0.051749 -0.269519 -0.009812 -0.161865
    11 x      -0.210844  0.066110 -0.223258 -0.037205 -0.155519  0.021966
    11 y      -0.089605 -0.264726 -0.151303 -0.037283  0.226124 -0.020710
    11 z      -0.115974 -0.012348  0.051749 -0.269519 -0.009812 -0.070041
    12 x      -0.217723  0.091687 -0.223258 -0.037205 -0.155519  0.010334
    12 y      -0.051151 -0.262266 -0.151303 -0.037283  0.226124  0.029518
    12 z      -0.112718  0.024961  0.051749 -0.269519 -0.009812 -0.069562


  Frequency     133.4539  133.4542  154.6914  154.6918  170.5517  179.0624
  IR Intensity    0.0203    0.0203    0.0090    0.0090    0.0464    0.0000
     in X         0.0009    0.0158    0.0072    0.0002    0.0081    0.0000
     in Y         0.0193    0.0007    0.0001    0.0087    0.0005    0.0000
     in Z         0.0000    0.0037    0.0016    0.0000    0.0379    0.0000
  Raman Intsty    0.0000    0.0000    0.0000    0.0000    0.1100    0.0000

     1 x       0.034303 -0.002410 -0.155445 -0.052375 -0.088189 -0.164670
     1 y       0.172291  0.104295  0.078573 -0.030417 -0.042027  0.059066
     1 z       0.094197  0.043703 -0.022358 -0.114453  0.174217 -0.069108
     2 x       0.007681  0.218843  0.096888 -0.050873 -0.062940  0.042435
     2 y      -0.020352  0.050583  0.039948  0.178586 -0.016372 -0.183244
     2 z       0.000316  0.040025 -0.045879  0.005847  0.188854 -0.001743
     3 x      -0.105770  0.046598 -0.092669  0.078633 -0.096956  0.122235
     3 y       0.138841 -0.099117 -0.137405  0.018376 -0.004169  0.124176
     3 z      -0.090105  0.044135 -0.003735  0.116627  0.174577  0.070852
     4 x       0.075547 -0.185452 -0.062546  0.153477  0.265568 -0.100520
     4 y      -0.337101 -0.043987 -0.076225 -0.631689  0.064352  0.434064
     4 z       0.004380  0.588956  0.199078 -0.023926 -0.299887  0.004130
     5 x       0.388200 -0.129132  0.557697  0.155879  0.132862  0.390061
     5 y       0.069851  0.163476 -0.170428 -0.119775 -0.070453 -0.139911
     5 z      -0.405718 -0.372810  0.137481  0.273681 -0.376799  0.163699
     6 x       0.153431 -0.046930 -0.194917 -0.169654 -0.176227 -0.106014
     6 y      -0.120134  0.116446  0.070627  0.209544  0.228459 -0.107701
     6 z       0.025357  0.010602  0.005945  0.070729 -0.096367 -0.061453
     7 x      -0.084854  0.011263 -0.131039  0.084647 -0.058274  0.142820
     7 y      -0.178038 -0.120850 -0.099858  0.286361 -0.280884 -0.051232
     7 z      -0.027942  0.009023 -0.007989 -0.065851 -0.101214  0.059940
     8 x      -0.378741 -0.035953  0.404042 -0.162989  0.086796 -0.289545
     8 y      -0.120260 -0.193802  0.358944 -0.238801  0.128476 -0.294140
     8 z       0.395466 -0.386547  0.091409 -0.297455 -0.374907 -0.167832
     9 x       0.011403  0.223580  0.013060 -0.022169 -0.098091 -0.060875
     9 y      -0.036142  0.051756  0.012759  0.089530 -0.024253  0.262868
     9 z       0.000352  0.054577 -0.129769  0.012498  0.161542  0.002502
    10 x      -0.015575 -0.182883 -0.211916 -0.002545  0.281499 -0.036803
    10 y       0.056553 -0.041929 -0.037938  0.096441  0.064278  0.158927
    10 z      -0.001077 -0.125864 -0.253960  0.023657  0.095734  0.001513
    11 x       0.047539 -0.011279 -0.099753  0.022213 -0.073518  0.236227
    11 y       0.179586  0.114223  0.004290  0.059949  0.000707 -0.084734
    11 z       0.090483  0.034787  0.012452 -0.107818  0.175783  0.099142
    12 x      -0.120938  0.043349 -0.094421 -0.029525 -0.064988 -0.175352
    12 y       0.139182 -0.111783 -0.039666  0.049979 -0.036124 -0.178137
    12 z      -0.086553  0.034910  0.031118  0.104927  0.175433 -0.101643


  Frequency     235.3315  235.3315  262.4746  262.4747  277.8010  353.8954
  IR Intensity    0.0656    0.0656    0.0000    0.0000    0.0905    0.0653
     in X         0.0072    0.0470    0.0000    0.0000    0.0157    0.0113
     in Y         0.0582    0.0066    0.0000    0.0000    0.0010    0.0007
     in Z         0.0001    0.0120    0.0000    0.0000    0.0738    0.0532
  Raman Intsty    0.0000    0.0000    0.0000    0.0000    4.9242    0.6946

     1 x      -0.061974  0.127676  0.010315 -0.048837 -0.015467 -0.035123
     1 y      -0.234105  0.147679  0.042373  0.060618  0.176405  0.154575
     1 z       0.068526 -0.017768  0.102353  0.071205  0.187624  0.215802
     2 x       0.039202  0.181563 -0.017934  0.125709 -0.245615 -0.243734
     2 y      -0.066344  0.049009 -0.053068  0.018372 -0.057395 -0.057347
     2 z       0.029477  0.244117  0.014291 -0.063448  0.054220  0.094882
     3 x       0.197218  0.135587 -0.017945 -0.027682  0.064430  0.037298
     3 y      -0.194835 -0.029644  0.065797 -0.053664 -0.168606 -0.158150
     3 z      -0.075146 -0.001656 -0.122026  0.017886  0.184341  0.212826
     4 x       0.020947  0.373113  0.017269 -0.015835 -0.105893 -0.140337
     4 y       0.117618  0.072621 -0.054300 -0.018782 -0.022810 -0.030970
     4 z      -0.000912 -0.015745 -0.036635  0.155134 -0.180019 -0.160700
     5 x      -0.065212 -0.072177  0.090507  0.014350  0.091246  0.083437
     5 y      -0.219302  0.209068  0.033757  0.056801  0.177458  0.196356
     5 z      -0.213530  0.110218 -0.077737 -0.102235 -0.065748 -0.030990
     6 x      -0.191353  0.102630  0.016211 -0.040218  0.176551  0.171552
     6 y       0.059665  0.211866 -0.017690 -0.030473 -0.129548 -0.120761
     6 z      -0.043927  0.087863 -0.037082 -0.009184 -0.077543 -0.084318
     7 x       0.186646  0.144590  0.015917 -0.047397  0.101313  0.100657
     7 y       0.097058 -0.175651 -0.025599 -0.001606  0.195342  0.185376
     7 z       0.064978  0.070761  0.036806  0.008291 -0.074451 -0.081404
     8 x       0.157874 -0.011243 -0.102491 -0.008686  0.159684  0.161122
     8 y      -0.220868 -0.172902  0.009153 -0.043255 -0.118069 -0.139100
     8 z       0.229327  0.051856  0.115484 -0.058199 -0.068561 -0.034183
     9 x      -0.105191 -0.240436 -0.012253 -0.509832  0.333590 -0.351516
     9 y       0.314300 -0.094151  0.561405  0.014945  0.075087 -0.079646
     9 z      -0.040151 -0.350015  0.046752 -0.177922  0.227477 -0.184739
    10 x       0.039611 -0.158219  0.010924  0.004775 -0.115412 -0.103559
    10 y      -0.255819 -0.002793 -0.049508 -0.010572 -0.024823 -0.022081
    10 z      -0.016478 -0.113668  0.009341 -0.042295 -0.200074 -0.199776
    11 x      -0.031063 -0.340751 -0.418043  0.285988 -0.123950  0.104154
    11 y       0.369286 -0.148094 -0.244474 -0.471564 -0.389717  0.383256
    11 z      -0.154819 -0.035993 -0.263021  0.038096 -0.037733  0.079388
    12 x      -0.220134 -0.327578  0.412421  0.258237 -0.282791  0.262342
    12 y       0.328262 -0.099019 -0.278406  0.474326  0.296180 -0.299832
    12 z       0.148275 -0.073029  0.212505  0.157756 -0.031206  0.072888


  Frequency     359.8537  359.8537  423.3588  512.8432  557.5295  557.5296
  IR Intensity    0.0010    0.0010    0.1710    0.0459    0.0198    0.0198
     in X         0.0009    0.0000    0.0297    0.0080    0.0163    0.0001
     in Y         0.0000    0.0010    0.0019    0.0005    0.0000    0.0196
     in Z         0.0002    0.0000    0.1394    0.0374    0.0035    0.0001
  Raman Intsty    0.0000    0.0000    9.6929    0.6075    0.0000    0.0000

     1 x       0.063174  0.081816  0.075289 -0.094157 -0.182861 -0.129698
     1 y      -0.046319  0.059803 -0.038710 -0.057634  0.066273  0.044645
     1 z       0.056433 -0.078405 -0.212480  0.175094 -0.139279  0.117628
     2 x      -0.000108  0.021932  0.148937 -0.050903 -0.111351 -0.036882
     2 y      -0.023950 -0.088103  0.036106 -0.013693  0.017094  0.241252
     2 z      -0.125796  0.033130 -0.169792  0.200166  0.131114 -0.020856
     3 x      -0.018509 -0.104346  0.049722 -0.109173 -0.094427  0.137067
     3 y       0.067256 -0.020354  0.071694  0.007208 -0.095025  0.140315
     3 z       0.089571  0.039338 -0.211430  0.175711 -0.172519 -0.060791
     4 x      -0.109224  0.026630  0.006400  0.371849  0.423668 -0.070941
     4 y      -0.021561  0.018428  0.000813  0.083837  0.092137 -0.033406
     4 z      -0.040736  0.011140  0.070365  0.239132  0.302991 -0.053732
     5 x      -0.017024  0.021551 -0.034151 -0.131219  0.071190 -0.151532
     5 y      -0.025491  0.111330 -0.040382 -0.427214  0.168832 -0.480429
     5 z      -0.014056  0.035087  0.046860 -0.052467  0.018925 -0.033460
     6 x       0.097067  0.155478  0.173871  0.207854 -0.037469  0.363097
     6 y      -0.029941  0.030010 -0.056911 -0.130272 -0.293627  0.064575
     6 z      -0.235242 -0.199993 -0.200221 -0.130277 -0.241028 -0.050653
     7 x      -0.013552 -0.168100  0.130320  0.128891 -0.275287 -0.276692
     7 y       0.041050 -0.076072  0.131150  0.210704  0.201169 -0.182567
     7 z      -0.101555  0.290693 -0.198432 -0.127033 -0.204299  0.128108
     8 x      -0.057436 -0.045719 -0.048229 -0.305862  0.248976  0.278960
     8 y       0.059474  0.070814  0.020408  0.326926 -0.238656 -0.301914
     8 z      -0.028518 -0.021749  0.047438 -0.045291  0.023903  0.018326
     9 x       0.296859 -0.057569 -0.226739  0.048982  0.001427 -0.011076
     9 y       0.048400 -0.111270 -0.056168  0.012211  0.008419  0.045251
     9 z      -0.602146  0.161956  0.384578 -0.091161  0.037301 -0.006150
    10 x      -0.103105  0.012884  0.004870 -0.098565  0.070092 -0.104834
    10 y      -0.009785  0.067452  0.003708 -0.020362  0.085179  0.384118
    10 z       0.327914 -0.088089 -0.271148 -0.258875  0.332509 -0.054989
    11 x       0.008669  0.299357 -0.175320  0.041764 -0.032607 -0.031368
    11 y      -0.045192  0.051193 -0.003932  0.004879  0.021325 -0.015241
    11 z       0.196641 -0.601624  0.414385 -0.095344 -0.024935  0.017790
    12 x      -0.155351 -0.243801 -0.157469  0.039259 -0.006874  0.039554
    12 y      -0.013364 -0.103908 -0.081015  0.015698 -0.030885  0.011723
    12 z       0.473616  0.419656  0.413651 -0.095241 -0.030058 -0.008117


  Frequency     720.2535  720.2538  721.8977  856.6124  856.6126  970.2951
  IR Intensity    0.0409    0.0409    0.0000    0.0048    0.0048    0.0150
     in X         0.0311    0.0027    0.0000    0.0039    0.0001    0.0026
     in Y         0.0023    0.0382    0.0000    0.0001    0.0047    0.0002
     in Z         0.0076    0.0000    0.0000    0.0009    0.0000    0.0122
  Raman Intsty    0.0000    0.0000    0.0000    0.0000    0.0000    1.8911

     1 x      -0.440494  0.254101 -0.287055 -0.060020 -0.243789  0.186183
     1 y       0.195421 -0.031549  0.102968 -0.261378 -0.526962  0.485025
     1 z      -0.121367  0.207770 -0.120464  0.053607  0.068815 -0.029091
     2 x       0.128520  0.126270  0.073984 -0.421675 -0.051218 -0.372979
     2 y       0.008157 -0.566152 -0.319466 -0.098275  0.043946 -0.083013
     2 z      -0.050895 -0.003496 -0.003041 -0.471990 -0.043081 -0.353205
     3 x      -0.325374 -0.191650  0.213069 -0.248188  0.411824  0.380301
     3 y      -0.376019 -0.108699  0.216454  0.270681 -0.320686 -0.353209
     3 z      -0.141892 -0.199398  0.123500  0.071242 -0.065360 -0.037068
     4 x      -0.074684 -0.002702 -0.001665  0.292239  0.026662  0.162441
     4 y      -0.015961  0.024227  0.007183  0.065461  0.007446  0.036474
     4 z      -0.043206  0.001828  0.000068  0.218613  0.020201  0.120243
     5 x       0.005189 -0.031651  0.006453  0.050657  0.107018 -0.064919
     5 y      -0.050741 -0.066491 -0.002319  0.147030  0.320391 -0.194495
     5 z       0.000155 -0.016505  0.002708  0.008500  0.017202 -0.011544
     6 x       0.362555 -0.051782  0.307372  0.102886  0.191655 -0.096437
     6 y       0.217389  0.232740  0.312264  0.193216  0.069316  0.054464
     6 z       0.063484  0.247289  0.178179  0.133147  0.007178  0.070921
     7 x       0.416112 -0.087906 -0.414070  0.211999 -0.166639 -0.062385
     7 y      -0.019405  0.238330  0.148538 -0.124483 -0.045428 -0.092580
     7 z       0.042904 -0.246684 -0.173792  0.129097  0.017206  0.069522
     8 x      -0.013314  0.058873 -0.004788  0.151706 -0.212841 -0.143849
     8 y       0.044297 -0.049517 -0.004868 -0.152200  0.216788  0.146338
     8 z       0.002234  0.015310 -0.002776  0.008124 -0.010550 -0.008301
     9 x      -0.006047  0.000215 -0.010200  0.038702 -0.006236 -0.043832
     9 y      -0.001814  0.000109  0.044046  0.005131  0.042834 -0.010462
     9 z       0.043509 -0.001614  0.000420 -0.026895 -0.002080  0.032730
    10 x       0.046555 -0.104665  0.106700 -0.029880 -0.070631  0.035705
    10 y       0.025289  0.443561 -0.460745 -0.033991  0.289943  0.007066
    10 z       0.300372 -0.006917 -0.004379 -0.126693 -0.008910  0.126379
    11 x       0.011039  0.017505  0.039583  0.029688 -0.026155 -0.013858
    11 y       0.008866  0.014147 -0.014197 -0.004823  0.022035  0.019988
    11 z      -0.018624 -0.029692  0.016610  0.032186  0.031864  0.050104
    12 x       0.012081 -0.022775 -0.029383  0.021759  0.017963 -0.003453
    12 y      -0.002433  0.004667 -0.029848  0.010680  0.034397 -0.024946
    12 z      -0.016469  0.031176 -0.017029  0.037585 -0.024889  0.049676




--------------------------------------------------------------------------------
  Vibrational properties (for cluster):  Temperature  =       0.000 K
--------------------------------------------------------------------------------
  Zero point energy            =        0.635709 eV
--------------------------------------------------------------------------------

  Phonon density of states : 

--------------------------------------------------------------------------------
 Frequency (cm-1) Density of States                                             
--------------------------------------------------------------------------------
    0.00000 |********************                                          0.038
   15.16086 |                                                              0.000
   30.32172 |                                                              0.000
   45.48259 |                                                              0.000
   60.64345 |                                                              0.000
   75.80431 |********************                                          0.038
   90.96517 |                                                              0.000
  106.12603 |                                                              0.000
  121.28689 |****************************************                      0.077
  136.44776 |                                                              0.000
  151.60862 |****************************************                      0.077
  166.76948 |****************************************                      0.077
  181.93034 |                                                              0.000
  197.09120 |                                                              0.000
  212.25206 |                                                              0.000
  227.41293 |****************************************                      0.077
  242.57379 |                                                              0.000
  257.73465 |****************************************                      0.077
  272.89551 |********************                                          0.038
  288.05637 |                                                              0.000
  303.21724 |                                                              0.000
  318.37810 |                                                              0.000
  333.53896 |                                                              0.000
  348.69982 |************************************************************  0.115
  363.86068 |                                                              0.000
  379.02154 |                                                              0.000
  394.18241 |                                                              0.000
  409.34327 |********************                                          0.038
  424.50413 |                                                              0.000
  439.66499 |                                                              0.000
  454.82585 |                                                              0.000
  469.98671 |                                                              0.000
  485.14758 |                                                              0.000
  500.30844 |********************                                          0.038
  515.46930 |                                                              0.000
  530.63016 |                                                              0.000
  545.79102 |****************************************                      0.077
  560.95189 |                                                              0.000
  576.11275 |                                                              0.000
  591.27361 |                                                              0.000
  606.43447 |                                                              0.000
  621.59533 |                                                              0.000
  636.75619 |                                                              0.000
  651.91706 |                                                              0.000
  667.07792 |                                                              0.000
  682.23878 |                                                              0.000
  697.39964 |                                                              0.000
  712.56050 |************************************************************  0.115
  727.72136 |                                                              0.000
  742.88223 |                                                              0.000
  758.04309 |                                                              0.000
  773.20395 |                                                              0.000
  788.36481 |                                                              0.000
  803.52567 |                                                              0.000
  818.68654 |                                                              0.000
  833.84740 |                                                              0.000
  849.00826 |****************************************                      0.077
  864.16912 |                                                              0.000
  879.32998 |                                                              0.000
  894.49084 |                                                              0.000
  909.65171 |                                                              0.000
  924.81257 |                                                              0.000
  939.97343 |                                                              0.000
  955.13429 |********************                                          0.038
--------------------------------------------------------------------------------



  Time to end of optimisation =       0.0360 seconds


  Peak dynamic memory used =       0.65 MB 


  Timing analysis for GULP :

--------------------------------------------------------------------------------
  Task / Subroutine                                          Time (Seconds)
--------------------------------------------------------------------------------
  Calculation of real space energy and derivatives                0.0024
  Calculation of phonons                                          0.0016
  Calculation and manipulation of Hessian matrix                  0.0015
--------------------------------------------------------------------------------
  Total CPU time                                                  0.0361
--------------------------------------------------------------------------------


  Job Finished at 14:40.27 25th May        2022                               

