********************************************************************************
*                       GENERAL UTILITY LATTICE PROGRAM                        *
*                                 Julian Gale                                  *
*                       Curtin Institute for Computation                       *
*                           Department of Chemistry                            *
*                    Curtin University, Western Australia                      *
********************************************************************************
* Version = 5.1.1 * Last modified =  24th November 2018                        *
********************************************************************************
*  optimise     - perform optimisation run                                     *
*  conp         - constant pressure calculation                                *
*  shell        - only shells and radii to be optimised                        *
*  phonon       - calculate phonons for final geometry                         *
*  eigenvectors - output phonon eigenvectors                                   *
********************************************************************************

  Job Started  at 14:40.18 25th May        2022                               

  Number of CPUs =     1

  Host name      = login03                                 


  Total number of configurations input =      1

********************************************************************************
*  Input for Configuration =   1                                               *
********************************************************************************

  Formula = Al3F9                                                       

  Number of irreducible atoms/shells =      21


  Total number atoms/shells =      21

  Dimensionality = 0               :  Cluster


  Charge on cluster =  -0.000000


  Initial cluster dipoles : x =     -0.000000 e.Angs
                            y =     -0.000000 e.Angs
                            z =     -0.000000 e.Angs

  Temperature of configuration =  0.000     K 

  Symmetry number =      1

  Cartesian coordinates of cluster :

--------------------------------------------------------------------------------
   No.  Atomic       x           y          z         Charge      Occupancy
        Label      (Angs)      (Angs)     (Angs)        (e)         (Frac)  
--------------------------------------------------------------------------------
      1 Al    c      0.1428     -2.3615     -1.5394     3.00000    1.000000    
      2 Al    c      2.0973     -0.5252     -0.9430     3.00000    1.000000    
      3 Al    c     -0.2650      0.3268     -1.9542     3.00000    1.000000    
      4 F     c      3.5540     -0.1980      0.1226     0.59000    1.000000    
      5 F     c     -0.0159     -3.9941     -2.5567     0.59000    1.000000    
      6 F     c      1.9826     -1.8563     -2.2435     0.59000    1.000000    
      7 F     c      1.6220      0.7327     -2.4101     0.59000    1.000000    
      8 F     c     -1.5631      1.6322     -2.0025     0.59000    1.000000    
      9 F     c     -1.2244     -1.1990     -0.9317     0.59000    1.000000    
     10 F     c     -0.1049     -1.1099     -3.1312     0.59000    1.000000    
     11 F     c      0.5596      0.3585     -0.2175     0.59000    1.000000    
     12 F     c      1.1152     -2.0458      0.0607     0.59000    1.000000    
     13 F     s      3.5540 *   -0.1980 *    0.1226 *  -1.59000    1.000000    
     14 F     s     -0.0159 *   -3.9941 *   -2.5567 *  -1.59000    1.000000    
     15 F     s      1.9826 *   -1.8563 *   -2.2435 *  -1.59000    1.000000    
     16 F     s      1.6220 *    0.7327 *   -2.4101 *  -1.59000    1.000000    
     17 F     s     -1.5631 *    1.6322 *   -2.0025 *  -1.59000    1.000000    
     18 F     s     -1.2244 *   -1.1990 *   -0.9317 *  -1.59000    1.000000    
     19 F     s     -0.1049 *   -1.1099 *   -3.1312 *  -1.59000    1.000000    
     20 F     s      0.5596 *    0.3585 *   -0.2175 *  -1.59000    1.000000    
     21 F     s      1.1152 *   -2.0458 *    0.0607 *  -1.59000    1.000000    
--------------------------------------------------------------------------------


  Brillouin zone sampling points :

--------------------------------------------------------------------------------
  Point number          x          y          z            Weight
--------------------------------------------------------------------------------
        1           0.000000   0.000000   0.000000     1.00000000
--------------------------------------------------------------------------------


********************************************************************************
*  General input information                                                   *
********************************************************************************

  Species output for all configurations : 

--------------------------------------------------------------------------------
  Species    Type    Atomic    Atomic    Charge       Radii (Angs)     Library
                     Number     Mass       (e)     Cova   Ionic  VDW   Symbol
--------------------------------------------------------------------------------
    Al       Core       13      26.98   3.000000   1.350  0.000  2.050          
    F        Core        9      19.00   0.590000   0.710  0.000  1.300          
    F        Shell       9       0.00  -1.590000   0.710  0.000  1.300          
--------------------------------------------------------------------------------


  Accuracy factor for short range sums = 12.000

  Time limit = Infinity

  Maximum range for interatomic potentials =    100000.000000 Angstroms

  General interatomic potentials :

--------------------------------------------------------------------------------
Atom  Types   Potential      Parameter       Value         Units   Cutoffs(Ang)
  1     2                                                            Min /  Max 
--------------------------------------------------------------------------------
Al   c F    s Buckingham    Buckingham A     3760.0008    eV        0.000 10.000
                            Buckingham rho  0.22200000    Ang       
                            Buckingham C     0.0000000    eV*Ang^6  
--------------------------------------------------------------------------------
F    s F    s Buck 4 range  Buck4 A          1127.7000    eV        0.000 12.000
                            Buck4 rho       0.27530000    Ang       
                            Buck4 C          15.830000    eV*Ang^6  
                            Buck4 minimum    2.7900000    Ang       
--------------------------------------------------------------------------------
F    c F    s Spring (c-s)  Spring k 2       20.770000    eV*Ang^-2 0.000  0.800
                            Spring k 4       0.0000000    eV*Ang^-4 
--------------------------------------------------------------------------------

********************************************************************************
*  Output for configuration   1                                                *
********************************************************************************


  Components of energy : 

--------------------------------------------------------------------------------
  Interatomic potentials     =           9.65131221 eV    
  Monopole - monopole (real) =        -175.16267948 eV    
--------------------------------------------------------------------------------
  Total lattice energy       =        -165.51136728 eV    
--------------------------------------------------------------------------------
  Total lattice energy       =          -15969.3169 kJ/mol
--------------------------------------------------------------------------------


  Number of variables =       27

  Maximum number of calculations  =          2000
  Maximum Hessian update interval =            10
  Maximum step size               =   1.000000000
  Maximum parameter tolerance     =   0.000001000
  Maximum function  tolerance     =   0.000010000
  Maximum gradient  tolerance     =   0.000000010
  Maximum gradient  component     =   0.010000000

  Symmetry not applied to optimisation

  Newton-Raphson optimiser to be used

  BFGS hessian update to be used

  Lower half triangular hessian to be used

  Minimiser to switch to RFO
  When gradient norm is less than     0.010000

  Shell only optimisation

  Start of cluster optimisation :

  Cycle:      0 Energy:      -165.511367  Gnorm:      1.538668  CPU:    0.005
  ** Hessian calculated **
  Cycle:      1 Energy:      -183.282559  Gnorm:      0.691561  CPU:    0.007
  ** Hessian calculated **
  Cycle:      2 Energy:      -185.194765  Gnorm:      0.038082  CPU:    0.009
  Cycle:      3 Energy:      -185.203830  Gnorm:      0.006801  CPU:    0.011
  ** Hessian has required structure
  Cycle:      4 Energy:      -185.204194  Gnorm:      0.002633  CPU:    0.014
  ** Hessian has required structure
  Cycle:      5 Energy:      -185.204248  Gnorm:      0.000570  CPU:    0.015
  ** Hessian has required structure
  Cycle:      6 Energy:      -185.204250  Gnorm:      0.000361  CPU:    0.017
  ** Hessian has required structure
  Cycle:      7 Energy:      -185.204251  Gnorm:      0.000194  CPU:    0.019
  ** Hessian has required structure
  Cycle:      8 Energy:      -185.204252  Gnorm:      0.000142  CPU:    0.021
  ** Hessian has required structure
  Cycle:      9 Energy:      -185.204252  Gnorm:      0.000122  CPU:    0.022
  ** Hessian has required structure
  Cycle:     10 Energy:      -185.204252  Gnorm:      0.000087  CPU:    0.024
  ** Hessian has required structure
  Cycle:     11 Energy:      -185.204252  Gnorm:      0.000084  CPU:    0.026
  ** Hessian has required structure
  Cycle:     12 Energy:      -185.204252  Gnorm:      0.000000  CPU:    0.028
  ** Hessian has required structure
  Cycle:     13 Energy:      -185.204252  Gnorm:      0.000000  CPU:    0.029
  ** Hessian has required structure
  Cycle:     14 Energy:      -185.204252  Gnorm:      0.000000  CPU:    0.031
  ** Hessian has required structure
  Cycle:     15 Energy:      -185.204252  Gnorm:      0.000000  CPU:    0.033
  ** Hessian has required structure
  Cycle:     16 Energy:      -185.204252  Gnorm:      0.000000  CPU:    0.035
  ** Hessian has required structure
  Cycle:     17 Energy:      -185.204252  Gnorm:      0.000000  CPU:    0.037
  ** Hessian calculated **

  XYZ File written as 006/2/sp_mod_-70/sp_mod_-70_eig.xyz



  **** Optimisation achieved ****


  Final energy =    -185.20425179 eV
  Final Gnorm  =       0.00000007

  Components of energy : 

--------------------------------------------------------------------------------
  Interatomic potentials     =          37.64397412 eV    
  Monopole - monopole (real) =        -222.84822591 eV    
--------------------------------------------------------------------------------
  Total lattice energy       =        -185.20425179 eV    
--------------------------------------------------------------------------------
  Total lattice energy       =          -17869.3792 kJ/mol
--------------------------------------------------------------------------------

  Final cartesian coordinates of atoms :

--------------------------------------------------------------------------------
   No.  Atomic        x           y          z          Radius
        Label       (Angs)      (Angs)     (Angs)       (Angs) 
--------------------------------------------------------------------------------
     1  Al    c     0.142752   -2.361527   -1.539384    0.000000
     2  Al    c     2.097269   -0.525168   -0.943047    0.000000
     3  Al    c    -0.264971    0.326817   -1.954205    0.000000
     4  F     c     3.553978   -0.197964    0.122581    0.000000
     5  F     c    -0.015863   -3.994082   -2.556749    0.000000
     6  F     c     1.982611   -1.856313   -2.243457    0.000000
     7  F     c     1.622031    0.732659   -2.410086    0.000000
     8  F     c    -1.563066    1.632168   -2.002468    0.000000
     9  F     c    -1.224435   -1.198953   -0.931726    0.000000
    10  F     c    -0.104949   -1.109894   -3.131196    0.000000
    11  F     c     0.559614    0.358505   -0.217460    0.000000
    12  F     c     1.115226   -2.045761    0.060655    0.000000
    13  F     s     3.324631   -0.247948   -0.067746    0.000000
    14  F     s    -0.004461   -3.705778   -2.337364    0.000000
    15  F     s     1.867019   -1.737089   -2.030930    0.000000
    16  F     s     1.497249    0.590498   -2.244257    0.000000
    17  F     s    -1.340389    1.421118   -2.013191    0.000000
    18  F     s    -1.014795   -1.246363   -1.069915    0.000000
    19  F     s    -0.115523   -1.024928   -2.876802    0.000000
    20  F     s     0.633677    0.256761   -0.472611    0.000000
    21  F     s     1.067997   -1.997609   -0.185235    0.000000
--------------------------------------------------------------------------------


  Final Cartesian derivatives :

--------------------------------------------------------------------------------
   No.  Atomic          x             y             z           Radius
        Label       (eV/Angs)     (eV/Angs)    (eV/Angs)      (eV/Angs)
--------------------------------------------------------------------------------
      1 Al    c       0.000000      0.000000      0.000000      0.000000
      2 Al    c       0.000000      0.000000      0.000000      0.000000
      3 Al    c       0.000000      0.000000      0.000000      0.000000
      4 F     c       0.000000      0.000000      0.000000      0.000000
      5 F     c       0.000000      0.000000      0.000000      0.000000
      6 F     c       0.000000      0.000000      0.000000      0.000000
      7 F     c       0.000000      0.000000      0.000000      0.000000
      8 F     c       0.000000      0.000000      0.000000      0.000000
      9 F     c       0.000000      0.000000      0.000000      0.000000
     10 F     c       0.000000      0.000000      0.000000      0.000000
     11 F     c       0.000000      0.000000      0.000000      0.000000
     12 F     c       0.000000      0.000000      0.000000      0.000000
     13 F     s       0.000000      0.000000      0.000001      0.000000
     14 F     s       0.000000     -0.000001     -0.000001      0.000000
     15 F     s       0.000000     -0.000000     -0.000000      0.000000
     16 F     s       0.000000      0.000000      0.000000      0.000000
     17 F     s      -0.000001      0.000001      0.000000      0.000000
     18 F     s      -0.000000     -0.000000      0.000000      0.000000
     19 F     s       0.000000     -0.000000     -0.000000      0.000000
     20 F     s       0.000000      0.000000     -0.000000      0.000000
     21 F     s      -0.000000     -0.000000      0.000000      0.000000
--------------------------------------------------------------------------------
  Maximum abs         0.000001      0.000001      0.000001      0.000000
--------------------------------------------------------------------------------


  Born effective charge tensors : 

-------------------------------------------------------------------------------
  Atom             x           y             z
-------------------------------------------------------------------------------
    1 Al    x       1.3149      0.1039     -0.0283
            y       0.0777      1.1327     -0.2991
            z      -0.0536     -0.3636      1.1214
-------------------------------------------------------------------------------
    2 Al    x       0.9934      0.0576     -0.1615
            y       0.0972      1.3555     -0.4671
            z      -0.2036     -0.4134      1.0793
-------------------------------------------------------------------------------
    3 Al    x       1.2643      0.3881     -0.1616
            y       0.3811      1.0945     -0.2957
            z      -0.0894     -0.2697      1.0738
-------------------------------------------------------------------------------
    4 F     x      -0.1585      0.0816      0.2733
            y       0.0771     -0.5201      0.0746
            z       0.2583      0.0665     -0.3328
-------------------------------------------------------------------------------
    5 F     x      -0.5129      0.0305      0.0185
            y       0.0285     -0.1906      0.2105
            z       0.0172      0.2062     -0.3819
-------------------------------------------------------------------------------
    6 F     x      -0.6568     -0.0338      0.0612
            y      -0.0205     -0.2777      0.1699
            z       0.0528      0.1343     -0.2726
-------------------------------------------------------------------------------
    7 F     x      -0.5216      0.0257     -0.0713
            y       0.0463     -0.3947      0.0609
            z      -0.0560      0.1029     -0.3657
-------------------------------------------------------------------------------
    8 F     x      -0.2516     -0.2906      0.0107
            y      -0.2961     -0.2442      0.0016
            z       0.0183     -0.0146     -0.5195
-------------------------------------------------------------------------------
    9 F     x      -0.3318     -0.2295     -0.0018
            y      -0.1960     -0.5751      0.1566
            z       0.0424      0.1460     -0.3812
-------------------------------------------------------------------------------
   10 F     x      -0.4338      0.0482     -0.0754
            y       0.0130     -0.3498      0.2739
            z      -0.0861      0.2589     -0.4353
-------------------------------------------------------------------------------
   11 F     x      -0.3103     -0.0475     -0.0039
            y      -0.0535     -0.4167      0.0096
            z      -0.0069     -0.0004     -0.3065
-------------------------------------------------------------------------------
   12 F     x      -0.3954     -0.1341      0.1400
            y      -0.1548     -0.6138      0.1043
            z       0.1067      0.1468     -0.2790
-------------------------------------------------------------------------------




  Moment of inertia tensor (10^-46 x kgm^2): 

-------------------------------------------------------------------------------
                x           y           z           Principal axis system
-------------------------------------------------------------------------------
       x        131.27        2.83      -22.68          120.731385
       y          2.83      121.49       -6.10          120.743801
       z        -22.68       -6.10      169.62          180.904624
-------------------------------------------------------------------------------
  Centre of mass (Ang) =     0.658350    -0.853293    -1.478879
-------------------------------------------------------------------------------


  Vibrational Frequency Calculation : 

--------------------------------------------------------------------------------

  Frequencies (cm-1) and Eigenvectors : 

  Frequency     -14.8794   -2.8799   -0.0000   -0.0000    0.0000   12.3872
  IR Intensity    0.0009    0.0014    0.0000    0.0000    0.0000    0.0000
     in X         0.0002    0.0010    0.0000    0.0000    0.0000    0.0000
     in Y         0.0006    0.0002    0.0000    0.0000    0.0000    0.0000
     in Z         0.0000    0.0002    0.0000    0.0000    0.0000    0.0000
  Raman Intsty    1.6565    0.0000    0.0000    0.0000    0.0000    0.0001

     1 x       0.155391  0.015221 -0.316013 -0.008881  0.084533  0.267461
     1 y       0.000678 -0.004552  0.067729 -0.222950  0.229772 -0.096024
     1 z      -0.390434 -0.013417 -0.051356 -0.239381 -0.217136  0.106733
     2 x      -0.080134 -0.122028 -0.316013 -0.008881  0.084533 -0.063525
     2 y      -0.018071 -0.031098  0.067729 -0.222950  0.229772  0.290848
     2 z       0.174777  0.323992 -0.051356 -0.239381 -0.217136  0.002631
     3 x      -0.096057  0.155951 -0.316013 -0.008881  0.084533 -0.194433
     3 y      -0.017390  0.015579  0.067729 -0.222950  0.229772 -0.200310
     3 z       0.216108 -0.289560 -0.051356 -0.239381 -0.217136 -0.105001
     4 x      -0.100421 -0.177219 -0.265192 -0.007453  0.070938 -0.094991
     4 y      -0.051587 -0.075098  0.056837 -0.187095  0.192820  0.406970
     4 z       0.204342  0.389989 -0.043097 -0.200884 -0.182217  0.008765
     5 x       0.175087  0.012536 -0.265192 -0.007453  0.070938  0.315695
     5 y       0.042498  0.000399  0.056837 -0.187095  0.192820 -0.111937
     5 z      -0.401694 -0.017872 -0.043097 -0.200884 -0.182217  0.125727
     6 x       0.131018 -0.007940 -0.265192 -0.007453  0.070938  0.132643
     6 y       0.191057 -0.019346  0.056837 -0.187095  0.192820  0.118282
     6 z      -0.110130  0.238486 -0.043097 -0.200884 -0.182217  0.112114
     7 x      -0.088165  0.221250 -0.265192 -0.007453  0.070938 -0.183870
     7 y       0.129979 -0.072538  0.056837 -0.187095  0.192820  0.066771
     7 z       0.283780  0.109300 -0.043097 -0.200884 -0.182217 -0.071399
     8 x      -0.117772  0.182814 -0.265192 -0.007453  0.070938 -0.266143
     8 y      -0.048450  0.060174  0.056837 -0.187095  0.192820 -0.272444
     8 z       0.240559 -0.353879 -0.043097 -0.200884 -0.182217 -0.152131
     9 x       0.044797 -0.026455 -0.265192 -0.007453  0.070938  0.064294
     9 y      -0.161409  0.067873  0.056837 -0.187095  0.192820 -0.198728
     9 z      -0.137270 -0.300605 -0.043097 -0.200884 -0.182217 -0.034335
    10 x       0.102000  0.173743 -0.265192 -0.007453  0.070938  0.080551
    10 y       0.204426 -0.012639  0.056837 -0.187095  0.192820 -0.188435
    10 z      -0.097794 -0.187794 -0.043097 -0.200884 -0.182217 -0.028446
    11 x      -0.110031 -0.192871 -0.265192 -0.007453  0.070938 -0.182294
    11 y      -0.116944  0.060956  0.056837 -0.187095  0.192820  0.060001
    11 z       0.208595 -0.069855 -0.043097 -0.200884 -0.182217 -0.071663
    12 x      -0.011725 -0.244420 -0.265192 -0.007453  0.070938  0.122793
    12 y      -0.148120  0.014134  0.056837 -0.187095  0.192820  0.126058
    12 z      -0.190925  0.167187 -0.043097 -0.200884 -0.182217  0.106170


  Frequency      60.5175   93.7271  131.8213  148.0755  149.5019  156.4659
  IR Intensity    0.0132    0.0102    0.0008    0.0148    0.0038    0.0293
     in X         0.0096    0.0021    0.0003    0.0000    0.0016    0.0052
     in Y         0.0015    0.0074    0.0000    0.0140    0.0022    0.0054
     in Z         0.0021    0.0008    0.0005    0.0008    0.0000    0.0187
  Raman Intsty    0.0035    2.0470    0.0006    0.0139    0.0150    0.2395

     1 x      -0.159170 -0.113690 -0.084840  0.026147 -0.091877 -0.001594
     1 y       0.061503 -0.042698  0.031335  0.069586  0.067585  0.015059
     1 z      -0.064629  0.233225 -0.052105  0.100131  0.021167  0.106088
     2 x       0.111990  0.099382 -0.012680 -0.006428  0.145713  0.100690
     2 y       0.051928  0.065400 -0.228559  0.016269  0.149978  0.073713
     2 z      -0.217637 -0.138581 -0.052320 -0.027271 -0.020450 -0.201743
     3 x      -0.105727  0.081835  0.088757 -0.001799  0.012396  0.043790
     3 y      -0.053219  0.099375  0.196411  0.137458 -0.125954  0.049714
     3 z       0.210007 -0.138416  0.071996 -0.015572  0.000349 -0.181074
     4 x      -0.048132 -0.021461 -0.345261  0.206013 -0.035367 -0.300230
     4 y       0.097490  0.225096  0.094090 -0.608283 -0.104398 -0.190250
     4 z      -0.001093 -0.025290  0.327935 -0.126941  0.288674  0.441862
     5 x      -0.131826 -0.004463  0.073157  0.076720 -0.208742  0.028078
     5 y       0.048384  0.040777 -0.024354  0.019676  0.095143  0.015373
     5 z      -0.049451  0.057842  0.013255  0.155460 -0.013094  0.092238
     6 x       0.413317 -0.081394  0.151449 -0.052094  0.013705 -0.003221
     6 y      -0.296767  0.065465 -0.046722  0.060768  0.239003 -0.020312
     6 z       0.201278 -0.030568 -0.264145 -0.074473 -0.019569 -0.060013
     7 x      -0.059269  0.088372  0.081050  0.089490 -0.150489  0.099412
     7 y       0.014795  0.360765 -0.060188  0.260944  0.194948  0.007782
     7 z      -0.032442  0.130223 -0.003791  0.175556 -0.041142 -0.266423
     8 x      -0.073364  0.147197 -0.012803 -0.358150 -0.114548 -0.164226
     8 y      -0.041190  0.167029  0.060177 -0.240143 -0.255339 -0.118819
     8 z      -0.047751  0.034372 -0.377135 -0.222564 -0.316192  0.575627
     9 x      -0.254973 -0.273140 -0.096298 -0.133767  0.175318 -0.045194
     9 y       0.106818 -0.183773 -0.238394 -0.101850  0.392162  0.022689
     9 z      -0.125409 -0.142215  0.286904 -0.079346  0.179090 -0.130064
    10 x       0.506815  0.094673 -0.092753  0.165194 -0.000102  0.041051
    10 y      -0.050502  0.019533 -0.000498  0.123493 -0.155901  0.004369
    10 z       0.192437  0.065336  0.295217  0.071363 -0.018892 -0.077338
    11 x       0.109275 -0.179946  0.005493 -0.084640  0.154374  0.095693
    11 y      -0.039441 -0.550365  0.025898 -0.012816 -0.079128  0.048502
    11 z       0.041258 -0.055847 -0.023017 -0.016016  0.037938 -0.239614
    12 x      -0.279633  0.149694  0.246408  0.069881  0.086928  0.078367
    12 y       0.088662 -0.289997  0.190959  0.232102 -0.435655  0.065641
    12 z      -0.092720  0.018307 -0.216578  0.048694 -0.098085 -0.006514


  Frequency     167.2199  195.5501  204.8344  235.9960  245.1168  248.0629
  IR Intensity    0.0126    0.0090    0.0045    0.0009    0.0249    0.0084
     in X         0.0112    0.0003    0.0034    0.0006    0.0192    0.0000
     in Y         0.0004    0.0075    0.0004    0.0001    0.0019    0.0079
     in Z         0.0009    0.0012    0.0007    0.0002    0.0038    0.0005
  Raman Intsty    0.0032    0.5814    0.0000    0.0000    0.0067    0.2701

     1 x       0.077389 -0.083264 -0.300514  0.044567 -0.022570 -0.118931
     1 y      -0.035771 -0.004782  0.113383 -0.019261 -0.026490 -0.299427
     1 z       0.018181  0.178690 -0.133597  0.030744  0.002765  0.049242
     2 x      -0.014555  0.067952  0.002315  0.128489 -0.296160 -0.054486
     2 y       0.230431  0.068104 -0.168023  0.017977 -0.127553  0.053661
     2 z      -0.181349 -0.029016  0.175121 -0.296714  0.007850 -0.097653
     3 x      -0.267558  0.032673  0.196808 -0.124816 -0.056865  0.120632
     3 y      -0.154927  0.077135  0.087424 -0.009506  0.261513 -0.063285
     3 z       0.105808 -0.064606 -0.089158  0.293566 -0.172744  0.028185
     4 x      -0.072115  0.075606  0.108120 -0.167910 -0.174890 -0.101586
     4 y      -0.436290 -0.097631  0.081681  0.132434 -0.066338  0.051187
     4 z       0.115624  0.006825 -0.051431  0.075252 -0.197749 -0.038690
     5 x       0.289570  0.378312  0.563613  0.313481  0.173013 -0.003911
     5 y      -0.107286  0.383681 -0.209578 -0.102221 -0.080053 -0.186611
     5 z       0.101010 -0.576787  0.250264  0.121795  0.054198 -0.193489
     6 x       0.065604  0.007156  0.056736 -0.339532  0.077478 -0.321704
     6 y       0.070886 -0.117127  0.159987 -0.232137 -0.273529  0.123462
     6 z       0.009427  0.243738 -0.086387 -0.013058  0.118478 -0.085977
     7 x      -0.288808  0.040886 -0.100167  0.194553 -0.055393  0.101972
     7 y       0.072524 -0.037396  0.047181 -0.082441  0.066213  0.367370
     7 z      -0.101701 -0.148911 -0.045544  0.088952 -0.023827  0.091057
     8 x       0.372404 -0.094189 -0.018554 -0.129451 -0.163330  0.137348
     8 y       0.460871 -0.050980 -0.115245 -0.035177  0.181582 -0.055444
     8 z      -0.093509 -0.049815  0.099675 -0.215792  0.066058  0.025739
     9 x      -0.026290 -0.083739 -0.210538  0.077171  0.298750  0.007774
     9 y      -0.012337 -0.073508  0.234212  0.141194  0.173914 -0.217873
     9 z       0.008371  0.194173 -0.044430 -0.132770  0.220158  0.083225
    10 x      -0.035824 -0.229196 -0.092262 -0.092987  0.309549  0.241468
    10 y      -0.104993 -0.055935 -0.145449  0.388094  0.132535 -0.101673
    10 z       0.027595  0.142042  0.067543 -0.168768  0.057366  0.154927
    11 x      -0.026249  0.018027  0.083748  0.203773 -0.184117  0.216737
    11 y      -0.002014 -0.046084 -0.024377 -0.085216  0.116887  0.470619
    11 z       0.019357 -0.086403  0.026137  0.099155 -0.095923 -0.030290
    12 x      -0.034335 -0.133552 -0.269876 -0.116583  0.166513 -0.215198
    12 y       0.011290 -0.072394 -0.067480 -0.111671 -0.379275 -0.082759
    12 z      -0.017819  0.173769 -0.159065  0.112348 -0.005559  0.017599


  Frequency     268.8135  275.6420  306.9265  326.4559  359.5603  372.8173
  IR Intensity    0.0136    0.0203    0.0446    0.0365    0.0009    0.0001
     in X         0.0000    0.0047    0.0087    0.0260    0.0000    0.0000
     in Y         0.0069    0.0122    0.0306    0.0048    0.0004    0.0000
     in Z         0.0066    0.0034    0.0053    0.0057    0.0005    0.0000
  Raman Intsty    0.1215    1.1239    0.5755    0.0050    0.0817    0.0001

     1 x      -0.013597 -0.018444 -0.045871  0.117577 -0.089543  0.218087
     1 y       0.049339  0.080045  0.036439 -0.031764 -0.183387 -0.070090
     1 z       0.075832  0.109684  0.138565  0.041165  0.078120  0.089503
     2 x       0.009116 -0.070278 -0.067016 -0.010809 -0.179792 -0.066258
     2 y       0.051934 -0.137557 -0.178449 -0.266924  0.221433 -0.067286
     2 z       0.130049  0.013866 -0.005224  0.135008 -0.091753 -0.083177
     3 x      -0.062964 -0.055164 -0.051860  0.167874  0.304342 -0.062480
     3 y       0.077003 -0.143812 -0.170221  0.177400  0.089356  0.108542
     3 z       0.102937  0.026316 -0.008426 -0.049117  0.087589  0.023604
     4 x       0.122906 -0.083233 -0.102620 -0.021832 -0.177700 -0.133824
     4 y      -0.005610  0.029993  0.021300  0.035254 -0.085088 -0.012733
     4 z       0.004645 -0.033664 -0.046835  0.071884 -0.117354 -0.108988
     5 x       0.008806  0.141296  0.105843 -0.066446 -0.006510 -0.058445
     5 y       0.077115  0.218734  0.185113  0.028007 -0.141631  0.028691
     5 z       0.047145 -0.136507 -0.093857 -0.023345 -0.119933 -0.018911
     6 x      -0.085904 -0.381628  0.014019 -0.063003 -0.015576  0.267740
     6 y       0.205779  0.165174 -0.298326 -0.126454  0.017811  0.168122
     6 z       0.021458 -0.323808 -0.013405 -0.028811  0.156653 -0.360435
     7 x      -0.047150 -0.067868 -0.113060 -0.609593  0.068946  0.164977
     7 y      -0.393447 -0.272192  0.171452  0.221532 -0.015980 -0.060696
     7 z      -0.219349 -0.045700  0.385673 -0.258079 -0.293450  0.080315
     8 x      -0.076986  0.078401  0.095726 -0.006242  0.119785 -0.143329
     8 y       0.066833 -0.020603 -0.044842  0.002041 -0.193168  0.117098
     8 z      -0.080786  0.035705  0.033222 -0.082481 -0.000457 -0.000516
     9 x      -0.359778  0.024146 -0.173078  0.100809  0.087497  0.169470
     9 y      -0.186483  0.241289  0.253051 -0.135824  0.164189  0.149039
     9 z      -0.281697  0.101976 -0.307829 -0.198682 -0.232683 -0.339933
    10 x       0.149647  0.503593 -0.160187  0.038810 -0.088343 -0.175068
    10 y       0.125647 -0.145343 -0.233359  0.147969  0.035733 -0.203290
    10 z       0.115948  0.045036 -0.079396 -0.002940  0.162107  0.393426
    11 x       0.097661 -0.104420  0.097703  0.326501 -0.209105  0.027727
    11 y       0.316322 -0.203997  0.269813 -0.120802 -0.063518 -0.006710
    11 z       0.043522  0.063181  0.022010  0.103580  0.506089 -0.005142
    12 x       0.271170  0.061172  0.431974 -0.026277  0.179288 -0.225719
    12 y      -0.418596  0.226850  0.047864  0.092807  0.129835 -0.145161
    12 z      -0.018886  0.115195 -0.048437  0.267468 -0.149101  0.324520


  Frequency     401.4561  425.8064  475.5381  478.6043  495.7155  525.9634
  IR Intensity    0.0008    0.0854    0.0246    0.0549    0.0002    0.1850
     in X         0.0001    0.0198    0.0059    0.0215    0.0000    0.0407
     in Y         0.0000    0.0380    0.0091    0.0210    0.0001    0.0659
     in Z         0.0006    0.0276    0.0097    0.0124    0.0001    0.0784
  Raman Intsty    0.0064    2.5552    0.0067    0.0175    6.2366    0.0484

     1 x       0.022764 -0.312043 -0.040651  0.051480  0.011161  0.156994
     1 y      -0.097366 -0.401692  0.006753  0.013312  0.022875  0.161074
     1 z      -0.145176  0.393857  0.031645 -0.147278 -0.007824 -0.258125
     2 x       0.150131  0.076225 -0.106029 -0.200202 -0.099724  0.107311
     2 y       0.021544 -0.025920  0.063209 -0.141443  0.017832  0.223236
     2 z       0.107849 -0.001257 -0.027794  0.207490 -0.018923 -0.230649
     3 x      -0.140637 -0.048270 -0.030977 -0.157122  0.071341  0.210094
     3 y       0.119356  0.026346  0.125310 -0.143566 -0.037479  0.187777
     3 z      -0.008568 -0.065077 -0.221771  0.184998  0.049337 -0.194120
     4 x       0.257201  0.106463 -0.222730 -0.153072 -0.292576 -0.082128
     4 y       0.060607  0.022280 -0.048828 -0.023547 -0.071142 -0.036302
     4 z       0.192472  0.050074 -0.145800 -0.137440 -0.214145 -0.017761
     5 x      -0.030281 -0.001245  0.006671 -0.029549  0.012116 -0.059705
     5 y      -0.282011 -0.261410  0.071377 -0.252340  0.145182 -0.353922
     5 z      -0.166437 -0.222484  0.041170 -0.145157  0.094165 -0.157597
     6 x      -0.342253  0.301528 -0.010334  0.091839 -0.030729 -0.045603
     6 y      -0.060717  0.220157  0.177872  0.177134  0.244663 -0.024351
     6 z       0.234158 -0.101432  0.215042  0.144389  0.297417  0.013977
     7 x      -0.011806 -0.143939  0.106226  0.288911 -0.161993 -0.221121
     7 y      -0.012902 -0.184842 -0.133084  0.229277 -0.174215 -0.224287
     7 z       0.040220  0.179787  0.161203 -0.286605  0.234696  0.306922
     8 x      -0.228954 -0.077700 -0.261148  0.006338  0.238639  0.048175
     8 y       0.232782  0.087424  0.250878  0.020145 -0.247706 -0.091437
     8 z      -0.004961 -0.023266 -0.008986 -0.022234  0.007257  0.031633
     9 x       0.149402  0.023802  0.037927 -0.283897  0.138449 -0.294006
     9 y       0.155148  0.153830 -0.166720  0.194045 -0.032230  0.105021
     9 z      -0.207726  0.012501  0.038073  0.104835 -0.098670  0.184673
    10 x      -0.003162  0.028907  0.055936 -0.016912 -0.035443  0.000713
    10 y      -0.178512  0.298886 -0.297346  0.059118  0.228660 -0.032805
    10 z       0.370849 -0.200538 -0.227825 -0.058790  0.269596  0.042275
    11 x       0.030618  0.041664  0.497151  0.228781  0.173153 -0.008962
    11 y      -0.122973  0.000525 -0.157019 -0.152536 -0.132942  0.015618
    11 z      -0.198978 -0.095173  0.320174 -0.177397 -0.446078  0.044383
    12 x       0.140795  0.059051  0.002004  0.232014 -0.021093  0.097324
    12 y       0.156701  0.141313  0.070176  0.072468  0.035883 -0.039255
    12 z      -0.204906  0.010242 -0.133369  0.286197 -0.171157  0.365257


  Frequency     603.2467  654.5704  686.7792  781.7040  802.3172  891.8209
  IR Intensity    0.0008    0.1014    0.0522    0.0165    0.0066    0.0001
     in X         0.0005    0.0789    0.0003    0.0000    0.0052    0.0000
     in Y         0.0001    0.0077    0.0276    0.0092    0.0006    0.0001
     in Z         0.0001    0.0148    0.0243    0.0073    0.0009    0.0000
  Raman Intsty    0.0000    0.0006    0.0574    0.0142    0.0001    2.7472

     1 x       0.392650 -0.493941 -0.056723 -0.032712 -0.133484 -0.057330
     1 y      -0.132434  0.167968  0.008041 -0.571759  0.063932 -0.372150
     1 z       0.158341 -0.207329  0.090936 -0.403371 -0.046677 -0.181149
     2 x      -0.225053 -0.206330 -0.284947 -0.195950  0.372837  0.449723
     2 y       0.207161  0.247551  0.441316  0.058294  0.211892  0.115608
     2 z       0.207055  0.034037  0.229525 -0.153063  0.332833  0.305864
     3 x      -0.122288 -0.254527  0.232815  0.248979  0.295066 -0.366866
     3 y      -0.098707 -0.115787  0.233741 -0.115222 -0.456116  0.399752
     3 z      -0.345874 -0.242108  0.419424  0.017560 -0.066816 -0.031003
     4 x       0.072601  0.164195  0.030745  0.150379 -0.308702 -0.223752
     4 y       0.015366  0.021416 -0.018032  0.032061 -0.072712 -0.050680
     4 z       0.042620  0.109486 -0.000405  0.113314 -0.226424 -0.165874
     5 x      -0.023358  0.040426  0.000217  0.035586  0.002197  0.012107
     5 y       0.000670 -0.005062 -0.041403  0.382307 -0.010427  0.144719
     5 z      -0.013477  0.021725 -0.032081  0.241380 -0.004494  0.094708
     6 x      -0.022959  0.064510  0.001801  0.003091 -0.012626 -0.022605
     6 y      -0.225206 -0.124609 -0.243422  0.030973 -0.136640 -0.075568
     6 z      -0.208697 -0.146323 -0.252891  0.035370 -0.128502 -0.073366
     7 x       0.040506  0.097151 -0.037284 -0.028961 -0.039387  0.019914
     7 y      -0.006272 -0.025528 -0.069453 -0.021432  0.012803  0.009437
     7 z       0.007162  0.031826  0.027013  0.039909 -0.014691 -0.032523
     8 x       0.066386  0.150016 -0.020924 -0.147400 -0.269142  0.192455
     8 y      -0.067544 -0.130856 -0.002577  0.144705  0.275411 -0.193168
     8 z       0.011631  0.019193 -0.022823 -0.003233 -0.008610  0.005129
     9 x      -0.265735  0.249849  0.021267 -0.133169  0.031181 -0.040483
     9 y       0.169756 -0.173411 -0.042020  0.123410 -0.032960  0.052964
     9 z       0.137434 -0.097470 -0.032293  0.067635 -0.011714  0.021586
    10 x      -0.022625  0.006912  0.027134 -0.008029 -0.014690  0.017069
    10 y       0.248419  0.126694 -0.240012  0.042222  0.152259 -0.090118
    10 z       0.203926  0.193205 -0.222586  0.038416  0.119799 -0.055493
    11 x       0.240509  0.202551  0.110269  0.013949 -0.046705 -0.019819
    11 y      -0.088624 -0.070801 -0.128740 -0.025013  0.018143  0.007431
    11 z       0.098598  0.095469 -0.313348 -0.048132 -0.015415  0.041320
    12 x      -0.139319  0.162165 -0.003511  0.090344  0.021041  0.034695
    12 y      -0.017990  0.024985 -0.028345  0.039935  0.008966  0.024328
    12 z      -0.302461  0.267898 -0.032262  0.157484  0.028680  0.052842




--------------------------------------------------------------------------------
  Vibrational properties (for cluster):  Temperature  =       0.000 K
--------------------------------------------------------------------------------
  Zero point energy            =        0.692495 eV
--------------------------------------------------------------------------------

  Phonon density of states : 

--------------------------------------------------------------------------------
 Frequency (cm-1) Density of States                                             
--------------------------------------------------------------------------------
    0.00000 |************************************************************  0.062
   13.93470 |                                                              0.000
   27.86941 |                                                              0.000
   41.80411 |                                                              0.000
   55.73881 |******************************                                0.031
   69.67351 |                                                              0.000
   83.60822 |******************************                                0.031
   97.54292 |                                                              0.000
  111.47762 |                                                              0.000
  125.41233 |******************************                                0.031
  139.34703 |************************************************************  0.062
  153.28173 |******************************                                0.031
  167.21644 |******************************                                0.031
  181.15114 |                                                              0.000
  195.08584 |************************************************************  0.062
  209.02054 |                                                              0.000
  222.95525 |******************************                                0.031
  236.88995 |************************************************************  0.062
  250.82465 |                                                              0.000
  264.75936 |************************************************************  0.062
  278.69406 |                                                              0.000
  292.62876 |                                                              0.000
  306.56346 |******************************                                0.031
  320.49817 |******************************                                0.031
  334.43287 |                                                              0.000
  348.36757 |******************************                                0.031
  362.30228 |******************************                                0.031
  376.23698 |                                                              0.000
  390.17168 |******************************                                0.031
  404.10639 |                                                              0.000
  418.04109 |******************************                                0.031
  431.97579 |                                                              0.000
  445.91049 |                                                              0.000
  459.84520 |                                                              0.000
  473.77990 |************************************************************  0.062
  487.71460 |******************************                                0.031
  501.64931 |                                                              0.000
  515.58401 |******************************                                0.031
  529.51871 |                                                              0.000
  543.45342 |                                                              0.000
  557.38812 |                                                              0.000
  571.32282 |                                                              0.000
  585.25752 |                                                              0.000
  599.19223 |******************************                                0.031
  613.12693 |                                                              0.000
  627.06163 |                                                              0.000
  640.99634 |******************************                                0.031
  654.93104 |                                                              0.000
  668.86574 |                                                              0.000
  682.80044 |******************************                                0.031
  696.73515 |                                                              0.000
  710.66985 |                                                              0.000
  724.60455 |                                                              0.000
  738.53926 |                                                              0.000
  752.47396 |                                                              0.000
  766.40866 |                                                              0.000
  780.34337 |******************************                                0.031
  794.27807 |******************************                                0.031
  808.21277 |                                                              0.000
  822.14747 |                                                              0.000
  836.08218 |                                                              0.000
  850.01688 |                                                              0.000
  863.95158 |                                                              0.000
  877.88629 |******************************                                0.031
--------------------------------------------------------------------------------



  Time to end of optimisation =       0.0469 seconds


  Peak dynamic memory used =       0.65 MB 


  Timing analysis for GULP :

--------------------------------------------------------------------------------
  Task / Subroutine                                          Time (Seconds)
--------------------------------------------------------------------------------
  Calculation of real space energy and derivatives                0.0033
  Calculation of phonons                                          0.0015
  Calculation and manipulation of Hessian matrix                  0.0018
--------------------------------------------------------------------------------
  Total CPU time                                                  0.0470
--------------------------------------------------------------------------------


  Job Finished at 14:40.18 25th May        2022                               

