------------------------------------------------------------
          Invoking FHI-aims ...

          When using FHI-aims, please cite the following reference:

            Volker Blum, Ralf Gehrke, Felix Hanke, Paula Havu,
            Ville Havu, Xinguo Ren, Karsten Reuter, and Matthias Scheffler,
            'Ab Initio Molecular Simulations with Numeric Atom-Centered Orbitals',
            Computer Physics Communications 180, 2175-2196 (2009)

          In addition, many other developments in FHI-aims are likely important for
          your particular application. A partial list of references is given at the end of
          this file. Thank you for giving credit to the authors of these developments.

          For any questions about FHI-aims, please visit our slack channel at

            https://fhi-aims.slack.com

          and our main development and support site at

            https://aims-git.rz-berlin.mpg.de .

          The latter site, in particular, has a wiki to collect information, as well
          as an issue tracker to log discussions, suggest improvements, and report issues
          or bugs. https://aims-git.rz-berlin.mpg.de is also the main development site
          of the project and all new and updated code versions can be obtained there.
          Please send an email to aims-coordinators@fhi-berlin.mpg.de and we will add
          you to these sites. They are for you and everyone is welcome there.

------------------------------------------------------------



  Date     :  20220517, Time     :  112837.384
  Time zero on CPU 1             :   0.403180000000000E-01  s.
  Internal wall clock time zero  :           422018917.384  s.

  FHI-aims created a unique identifier for this run for later identification
  aims_uuid : D10E02B2-43FA-4356-AD87-F88793E8D7E0

  Build configuration of the current instance of FHI-aims
  -------------------------------------------------------
  FHI-aims version      : 210914
  Commit number         : GITDIR-NOTFOUND
  CMake host system     : Linux-3.10.0-693.17.1.el7.x86_64
  CMake version         : 3.21.1
  Fortran compiler      : /shared/ucl/apps/intel/2018.Update3/impi/2018.3.222/intel64/bin/mpiifort (Intel) version 18.0.3.20180410
  Fortran compiler flags: -O3 -ip -fp-model precise
  C compiler            : /shared/ucl/apps/intel/2018.Update3/compilers_and_libraries_2018.3.222/linux/bin/intel64/icc (Intel) version 18.0.3.20180410
  C compiler flags      : -O3 -ip -fp-model precise -std=gnu99
  ELPA2 kernel          : AVX2
  Using MPI
  Using ScaLAPACK
  Using LibXC
  Using i-PI
  Using RLSY
  Linking against: /shared/ucl/apps/intel/2019.Update5/compilers_and_libraries_2019.5.281/linux/mkl/lib/intel64/libmkl_intel_lp64.so
                   /shared/ucl/apps/intel/2019.Update5/compilers_and_libraries_2019.5.281/linux/mkl/lib/intel64/libmkl_sequential.so
                   /shared/ucl/apps/intel/2019.Update5/compilers_and_libraries_2019.5.281/linux/mkl/lib/intel64/libmkl_core.so
                   /shared/ucl/apps/intel/2019.Update5/compilers_and_libraries_2019.5.281/linux/mkl/lib/intel64/libmkl_blacs_intelmpi_lp64.so
                   /shared/ucl/apps/intel/2019.Update5/compilers_and_libraries_2019.5.281/linux/mkl/lib/intel64/libmkl_scalapack_lp64.so

  Using       24 parallel tasks.
  Task        0 on host node-k98e-006 reporting.
  Task        1 on host node-k98e-006 reporting.
  Task        2 on host node-k98e-006 reporting.
  Task        3 on host node-k98e-006 reporting.
  Task        4 on host node-k98e-006 reporting.
  Task        5 on host node-k98e-006 reporting.
  Task        6 on host node-k98e-006 reporting.
  Task        7 on host node-k98e-006 reporting.
  Task        8 on host node-k98e-006 reporting.
  Task        9 on host node-k98e-006 reporting.
  Task       10 on host node-k98e-006 reporting.
  Task       11 on host node-k98e-006 reporting.
  Task       12 on host node-k98e-006 reporting.
  Task       13 on host node-k98e-006 reporting.
  Task       14 on host node-k98e-006 reporting.
  Task       15 on host node-k98e-006 reporting.
  Task       16 on host node-k98e-006 reporting.
  Task       17 on host node-k98e-006 reporting.
  Task       18 on host node-k98e-006 reporting.
  Task       19 on host node-k98e-006 reporting.
  Task       20 on host node-k98e-006 reporting.
  Task       21 on host node-k98e-006 reporting.
  Task       22 on host node-k98e-006 reporting.
  Task       23 on host node-k98e-006 reporting.

  Performing system and environment tests:
  | Environment variable OMP_NUM_THREADS correctly set to 1.
  | Checking for ScaLAPACK...
  | Testing pdtran()...
  | All pdtran() tests passed.

  Obtaining array dimensions for all initial allocations:
  
  -----------------------------------------------------------------------
  Parsing control.in (first pass over file, find array dimensions only).
  The contents of control.in will be repeated verbatim below
  unless switched off by setting 'verbatim_writeout .false.' .
  in the first line of control.in .
  -----------------------------------------------------------------------
  
  #########################################################################################  Physical model
  #########################################################################################
  xc                 pbesol
  spin               none
  relativistic       atomic_zora scalar
  charge             0.0
  #  SCF convergence
  occupation_type    gaussian 0.01
  mixer              pulay
  n_max_pulay        10
  charge_mix_param   0.5
  sc_accuracy_rho    1E-5
  sc_accuracy_eev    1E-3
  sc_accuracy_etot   1E-6
  sc_accuracy_forces 1E-4
  sc_iter_limit      1500
  #  Relaxation
  #relax_geometry   bfgs 1.e-3
  
  ################################################################################
  #
  #  FHI-aims code project
  #  VB, Fritz-Haber Institut, 2009
  #
  #  Suggested "light" defaults for Al atom (to be pasted into control.in file)
  #  Be sure to double-check any results obtained with these settings for post-processing,
  #  e.g., with the "tight" defaults and larger basis sets.
  #
  ################################################################################
    species        Al
  #     global species definitions
      nucleus             13
      mass                26.9815386
  #
      l_hartree           4
  #
      cut_pot             3.5          1.5  1.0
      basis_dep_cutoff    1e-4
  #
      radial_base         41 5.0
      radial_multiplier   1
      angular_grids       specified
        division   0.6594  110
        division   0.8170  194
        division   0.9059  302
  #      division   1.0363  434
  #      division   1.1443  590
  #      division   1.2621  770
  #      division   2.8177  974
  #      outer_grid   974
        outer_grid   302
  ################################################################################
  #
  #  Definition of "minimal" basis
  #
  ################################################################################
  #     valence basis states
      valence      3  s   2.
      valence      3  p   1.
  #     ion occupancy
      ion_occ      3  s   1.
      ion_occ      2  p   6.
  ################################################################################
  #
  #  Suggested additional basis functions. For production calculations,
  #  uncomment them one after another (the most important basis functions are
  #  listed first).
  #
  #  Constructed for dimers: 2.0 A, 2.5 A, 3.0 A, 3.75 A, 4.5 A
  #
  ################################################################################
  #  "First tier" - improvements: -199.47 meV to -10.63 meV
       ionic 3 d auto
       ionic 3 p auto
  #     hydro 4 f 4.7
       ionic 3 s auto
  #  "Second tier" - improvements: -5.35 meV to -1.57 meV
  #     hydro 5 g 7
  #     hydro 3 d 6
  #     hydro 2 s 11.6
  #     hydro 2 p 0.9
  #  "Third tier" - improvements: -0.63 meV to -0.20 meV
  #     hydro 5 f 7.6
  #     hydro 4 p 7.2
  #     hydro 4 s 3.7
  #     hydro 4 d 7.6
  #  "Fourth tier" - improvements: -0.17 meV to -0.08 meV
  #     hydro 4 d 13.6
  #     hydro 5 g 11.2
  #     hydro 4 d 0.9
  #     hydro 1 s 0.4
  #     hydro 4 p 0.1
  #     hydro 5 f 9.8
  #  Further basis functions that fell out of the optimization - noise level...
  #     hydro 4 p 5
  
  ################################################################################
  #
  #  FHI-aims code project
  #  VB, Fritz-Haber Institut, 2009
  #
  #  Suggested "light" defaults for F atom (to be pasted into control.in file)
  #  Be sure to double-check any results obtained with these settings for post-processing,
  #  e.g., with the "tight" defaults and larger basis sets.
  #
  ################################################################################
    species        F
  #     global species definitions
      nucleus             9
      mass                18.9984032
  #
      l_hartree           4
  #
      cut_pot             3.5  1.5  1.0
      basis_dep_cutoff    1e-4
  #
      radial_base         37 5.0
      radial_multiplier   1
      angular_grids specified
        division   0.4014  110
        division   0.5291  194
        division   0.6019  302
  #      division   0.6814  434
  #      division   0.7989  590
  #      division   0.8965  770
  #      division   1.3427  974
  #      outer_grid   974
        outer_grid   302
  ################################################################################
  #
  #  Definition of "minimal" basis
  #
  ################################################################################
  #     valence basis states
      valence      2  s   2.
      valence      2  p   5.
  #     ion occupancy
      ion_occ      2  s   1.
      ion_occ      2  p   4.
  ################################################################################
  #
  #  Suggested additional basis functions. For production calculations,
  #  uncomment them one after another (the most important basis functions are
  #  listed first).
  #
  #  Constructed for dimers: 1.2 A, 1.418 A, 1.75 A, 2.25 A, 3.25 A
  #
  ################################################################################
  #  "First tier" - improvements: -149.44 meV to -45.88 meV
       hydro 2 p 1.7
       hydro 3 d 7.4
       hydro 3 s 6.8
  #  "Second tier" - improvements: -12.96 meV to -1.56 meV
  #     hydro 4 f 11.2
  #     ionic 2 p auto
  #     hydro 1 s 0.75
  #     hydro 4 d 8.8
  #     hydro 5 g 16.8
  #  "Third tier" - improvements: -0.58 meV to -0.05 meV
  #     hydro 3 p 6.2
  #     hydro 3 s 3.2
  #     hydro 4 f 9.6
  #     hydro 3 s 19.6
  #     hydro 4 d 8.6
  #     hydro 5 g 14.4
  # Further basis functions: -0.05 meV and below
  #     hydro 3 p 4.2
  
  -----------------------------------------------------------------------
  Completed first pass over input file control.in .
  -----------------------------------------------------------------------
  
  
  -----------------------------------------------------------------------
  Parsing geometry.in (first pass over file, find array dimensions only).
  The contents of geometry.in will be repeated verbatim below
  unless switched off by setting 'verbatim_writeout .false.' .
  in the first line of geometry.in .
  -----------------------------------------------------------------------
  
  atom 0.486856195 -0.597553078 1.760405717 Al
  atom 2.278219363 -1.727282854 -0.409408490 Al
  atom -0.929204982 -1.893253740 -1.117822136 Al
  atom 3.240981711 -0.238986793 -0.901748203 F
  atom -1.993301851 -0.826937889 -2.154872621 F
  atom 2.412576387 -3.564477677 -0.250644592 F
  atom -1.468230573 -3.618375185 -1.392924669 F
  atom 2.074332996 -1.386368332 1.375813400 F
  atom 0.812968164 -1.508734882 -1.492018665 F
  atom 0.438462751 -1.168129441 3.491278281 F
  atom 0.625910579 1.137977366 1.230586072 F
  atom -0.743126869 -1.475212321 0.687125812 F
  
  -----------------------------------------------------------------------
  Completed first pass over input file geometry.in .
  -----------------------------------------------------------------------
  

  Basic array size parameters:
  | Number of species                 :        2
  | Number of atoms                   :       12
  | Max. basis fn. angular momentum   :        2
  | Max. atomic/ionic basis occupied n:        3
  | Max. number of basis fn. types    :        3
  | Max. radial fns per species/type  :        5
  | Max. logarithmic grid size        :     1340
  | Max. radial integration grid size :       41
  | Max. angular integration grid size:      302
  | Max. angular grid division number :        8
  | Radial grid for Hartree potential :     1340
  | Number of spin channels           :        1

------------------------------------------------------------
          Reading file control.in.
------------------------------------------------------------
  XC: Using PBEsol gradient-corrected functionals.
  Spin treatment: No spin polarisation.
  Scalar relativistic treatment of kinetic energy: on-site free-atom approximation to ZORA.
  Charge =   0.000000E+00: Neutral system requested explicitly.
  Occupation type: Gaussian broadening, width =   0.100000E-01 eV.
  Using pulay charge density mixing.
  Pulay mixing - number of memorized iterations:   10
  Charge density mixing - mixing parameter:     0.5000
  Convergence accuracy of self-consistent charge density:  0.1000E-04
  Convergence accuracy of sum of eigenvalues:  0.1000E-02
  Convergence accuracy of total energy:  0.1000E-05
  Convergence accuracy of forces:  0.1000E-03
  Maximum number of s.-c. iterations  :  1500
 
  Reading configuration options for species Al                  .
  | Found nuclear charge :  13.0000
  | Found atomic mass :    26.9815386000000      amu
  | Found l_max for Hartree potential  :   4
  | Found cutoff potl. onset [A], width [A], scale factor :    3.50000    1.50000    1.00000
  | Threshold for basis-dependent cutoff potential is   0.100000E-03
  | Found data for basic radial integration grid :    41 points, outermost radius =    5.000 A
  | Found multiplier for basic radial grid :   1
  | Found angular grid specification: user-specified.
  | Specified grid contains     4 separate shells.
  | Check grid settings after all constraints further below.
  | Found free-atom valence shell :  3 s   2.000
  | Found free-atom valence shell :  3 p   1.000
  | Found free-ion valence shell :  3 s   1.000
  | Found free-ion valence shell :  2 p   6.000
  | Found ionic basis function :  3 d , default cutoff radius.
  | Found ionic basis function :  3 p , default cutoff radius.
  | Found ionic basis function :  3 s , default cutoff radius.
  Species Al                  : Missing cutoff potential type.
  Defaulting to exp(1/x)/(1-x)^2 type cutoff potential.
  Species Al: No 'logarithmic' tag. Using default grid for free atom:
  | Default logarithmic grid data [bohr] : 0.1000E-03 0.1000E+03 0.1012E+01
  | Will include ionic basis functions of  2.0-fold positive Al                   ion.
  Species Al: On-site basis accuracy parameter (for Gram-Schmidt orthonormalisation) not specified.
  Using default value basis_acc =  0.1000000E-03.
  Species Al                  : Using default innermost maximum threshold i_radial=  2 for radial functions.
  Species Al                  : Default cutoff onset for free atom density etc. : 0.35000000E+01 AA.
  Species Al                  : Basic radial grid will be enhanced according to radial_multiplier =   1, to contain    41 grid points.
 
  Reading configuration options for species F                   .
  | Found nuclear charge :   9.0000
  | Found atomic mass :    18.9984032000000      amu
  | Found l_max for Hartree potential  :   4
  | Found cutoff potl. onset [A], width [A], scale factor :    3.50000    1.50000    1.00000
  | Threshold for basis-dependent cutoff potential is   0.100000E-03
  | Found data for basic radial integration grid :    37 points, outermost radius =    5.000 A
  | Found multiplier for basic radial grid :   1
  | Found angular grid specification: user-specified.
  | Specified grid contains     4 separate shells.
  | Check grid settings after all constraints further below.
  | Found free-atom valence shell :  2 s   2.000
  | Found free-atom valence shell :  2 p   5.000
  | Found free-ion valence shell :  2 s   1.000
  | Found free-ion valence shell :  2 p   4.000
  | Found hydrogenic basis function :  2 p   1.700
  | Found hydrogenic basis function :  3 d   7.400
  | Found hydrogenic basis function :  3 s   6.800
  Species F                   : Missing cutoff potential type.
  Defaulting to exp(1/x)/(1-x)^2 type cutoff potential.
  Species F : No 'logarithmic' tag. Using default grid for free atom:
  | Default logarithmic grid data [bohr] : 0.1000E-03 0.1000E+03 0.1012E+01
  Species F : On-site basis accuracy parameter (for Gram-Schmidt orthonormalisation) not specified.
  Using default value basis_acc =  0.1000000E-03.
  Species F                   : Using default innermost maximum threshold i_radial=  2 for radial functions.
  Species F                   : Default cutoff onset for free atom density etc. : 0.35000000E+01 AA.
  Species F                   : Basic radial grid will be enhanced according to radial_multiplier =   1, to contain    37 grid points.
 
  Finished reading input file 'control.in'.
 
------------------------------------------------------------


------------------------------------------------------------
          Reading geometry description geometry.in.
------------------------------------------------------------
  | The smallest distance between any two atoms is         1.81389728 AA.
  | The first atom of this pair is atom number                      1 .
  | The second atom of this pair is atom number                     8 .
  Input structure read successfully.
  The structure contains       12 atoms,  and a total of        120.000 electrons.

  Input geometry:
  | No unit cell requested.
  | Atomic structure:
  |       Atom                x [A]            y [A]            z [A]
  |    1: Species Al            0.48685619       -0.59755308        1.76040572
  |    2: Species Al            2.27821936       -1.72728285       -0.40940849
  |    3: Species Al           -0.92920498       -1.89325374       -1.11782214
  |    4: Species F             3.24098171       -0.23898679       -0.90174820
  |    5: Species F            -1.99330185       -0.82693789       -2.15487262
  |    6: Species F             2.41257639       -3.56447768       -0.25064459
  |    7: Species F            -1.46823057       -3.61837519       -1.39292467
  |    8: Species F             2.07433300       -1.38636833        1.37581340
  |    9: Species F             0.81296816       -1.50873488       -1.49201867
  |   10: Species F             0.43846275       -1.16812944        3.49127828
  |   11: Species F             0.62591058        1.13797737        1.23058607
  |   12: Species F            -0.74312687       -1.47521232        0.68712581

 
  Finished reading input file 'control.in'.
 

------------------------------------------------------------
          Reading geometry description geometry.in.
------------------------------------------------------------
 
  Consistency checks for stacksize environment parameter are next.
 
  | Maximum stacksize for task 0: unlimited
  | Maximum stacksize for task 1: unlimited
  | Maximum stacksize for task 2: unlimited
  | Maximum stacksize for task 3: unlimited
  | Maximum stacksize for task 4: unlimited
  | Maximum stacksize for task 5: unlimited
  | Maximum stacksize for task 6: unlimited
  | Maximum stacksize for task 7: unlimited
  | Maximum stacksize for task 8: unlimited
  | Maximum stacksize for task 9: unlimited
  | Maximum stacksize for task 10: unlimited
  | Maximum stacksize for task 11: unlimited
  | Maximum stacksize for task 12: unlimited
  | Maximum stacksize for task 13: unlimited
  | Maximum stacksize for task 14: unlimited
  | Maximum stacksize for task 15: unlimited
  | Maximum stacksize for task 16: unlimited
  | Maximum stacksize for task 17: unlimited
  | Maximum stacksize for task 18: unlimited
  | Maximum stacksize for task 19: unlimited
  | Maximum stacksize for task 20: unlimited
  | Maximum stacksize for task 21: unlimited
  | Maximum stacksize for task 22: unlimited
  | Maximum stacksize for task 23: unlimited
  | Current stacksize for task 0: unlimited
  | Current stacksize for task 1: unlimited
  | Current stacksize for task 2: unlimited
  | Current stacksize for task 3: unlimited
  | Current stacksize for task 4: unlimited
  | Current stacksize for task 5: unlimited
  | Current stacksize for task 6: unlimited
  | Current stacksize for task 7: unlimited
  | Current stacksize for task 8: unlimited
  | Current stacksize for task 9: unlimited
  | Current stacksize for task 10: unlimited
  | Current stacksize for task 11: unlimited
  | Current stacksize for task 12: unlimited
  | Current stacksize for task 13: unlimited
  | Current stacksize for task 14: unlimited
  | Current stacksize for task 15: unlimited
  | Current stacksize for task 16: unlimited
  | Current stacksize for task 17: unlimited
  | Current stacksize for task 18: unlimited
  | Current stacksize for task 19: unlimited
  | Current stacksize for task 20: unlimited
  | Current stacksize for task 21: unlimited
  | Current stacksize for task 22: unlimited
  | Current stacksize for task 23: unlimited
 
  Consistency checks for the contents of control.in are next.
 
  MPI_IN_PLACE appears to work with this MPI implementation.
  | Keeping use_mpi_in_place .true. (see manual).
  Target number of points in a grid batch is not set. Defaulting to  100
  Method for grid partitioning is not set. Defaulting to parallel hash+maxmin partitioning.
  Batch size limit is not set. Defaulting to    200
  By default, will store active basis functions for each batch.
  If in need of memory, prune_basis_once .false. can be used to disable this option.
  communication_type for Hartree potential was not specified.
  Defaulting to calc_hartree .
  Pulay mixer: Number of initial linear mixing iterations not set.
  Defaulting to    0 iterations.
  Work space size for distributed Hartree potential not set.
  Defaulting to   0.200000E+03 MB.
  Algorithm-dependent basis array size parameters:
  | n_max_pulay                         :       10
  Presetting      1001 iterations before the initial mixing cycle
  is restarted anyway using the sc_init_iter criterion / keyword.
  Presetting a factor      1.000 between actual scf density residual
  and density convergence criterion sc_accuracy_rho below which sc_init_iter
  takes no effect.
  Geometry relaxation not requested: no relaxation will be performed.
  Forces evaluation will include force correction term due to incomplete self-consistency (default).
  Handling of forces: Unphysical translation and rotation will be removed from forces.
  No accuracy limit for integral partition fn. given. Defaulting to  0.1000E-14.
  No threshold value for u(r) in integrations given. Defaulting to  0.1000E-05.
  No accuracy for occupation numbers given. Defaulting to  0.1000E-12.
  No threshold value for occupation numbers given. Defaulting to  0.0000E+00.
  No accuracy for fermi level given. Defaulting to  0.1000E-19.
  Maximum # of iterations to find E_F not set. Defaulting to  200.
  Preferred method for the eigenvalue solver ('KS_method') not specified in 'control.in'.
  Calling BLACS routine to test compilation state
  Since ScaLAPACK support is enabled, defaulting to ELPA (via ELSI).
  Will not use alltoall communication since running on < 1024 CPUs.
  Threshold for basis singularities not set.
  Default threshold for basis singularities:  0.1000E-04
  partition_type (choice of integration weights) for integrals was not specified.
  | Using a version of the partition function of Stratmann and coworkers ('stratmann_sparse').
  | At each grid point, the set of atoms used to build the partition table is smoothly restricted to
  | only those atoms whose free-atom density would be non-zero at that grid point.
  Partitioning for Hartree potential was not defined. Using partition_type for integrals.
  | Adjusted default value of keyword multip_moments_threshold to:       0.10000000E-11
  | This value may affect high angular momentum components of the Hartree potential in periodic systems.
  No q(lm)/r^(l+1) cutoff set for long-range Hartree potential.
  | Using default value of  0.100000E-09 .
  | Verify using the multipole_threshold keyword.
  Defaulting to new monopole extrapolation.
  Density update method: automatic selection selected.
  Charge integration errors on the 3D integration grid will be compensated
  by explicit normalization and distribution of residual charges.
  Use the "compensate_multipole_errors" flag to change this behaviour.
  Set 'collect_eigenvectors' to be '.true.' for use_density_matrix .false.
 
  Consistency checks for the contents of geometry.in are next.
 
  Number of empty states per atom not set in control.in - providing a guess from actual geometry.
  | Total number of empty states used during s.c.f. cycle:       36
  If you use a very high smearing, use empty_states (per atom!) in control.in to increase this value.

  Structure-dependent array size parameters: 
  | Maximum number of distinct radial functions  :       14
  | Maximum number of basis functions            :      180
  | Number of Kohn-Sham states (occupied + empty):       96
------------------------------------------------------------

------------------------------------------------------------
          Preparing all fixed parts of the calculation.
------------------------------------------------------------
  Determining machine precision:
    2.225073858507201E-308
  Setting up grids for atomic and cluster calculations.

  Creating wave function, potential, and density for free atoms.

  Species: Al

  List of occupied orbitals and eigenvalues:
    n    l              occ      energy [Ha]    energy [eV]
    1    0           2.0000       -55.621123     -1513.5278
    2    0           2.0000        -3.957030      -107.6763
    3    0           2.0000        -0.272233        -7.4078
    2    1           6.0000        -2.540949       -69.1427
    3    1           1.0000        -0.083300        -2.2667


  Species: F

  List of occupied orbitals and eigenvalues:
    n    l              occ      energy [Ha]    energy [eV]
    1    0           2.0000       -24.399611      -663.9472
    2    0           2.0000        -1.098702       -29.8972
    2    1           5.0000        -0.408210       -11.1080


  Adding cutoff potential to free-atom effective potential.
  Creating fixed part of basis set: Ionic, confined, hydrogenic.
 
  Al                   ion:

  List of free ionic orbitals and eigenvalues:
    n    l      energy [Ha]    energy [eV]
    1    0       -56.418846     -1535.2349
    2    0        -4.732717      -128.7838
    3    0        -0.872690       -23.7471
    2    1        -3.317230       -90.2664


  List of ionic basis orbitals and eigenvalues:
    n    l      energy [Ha]    energy [eV]    outer radius [A]
    3    2        -0.346815        -9.4373       4.594041
    3    1        -0.631870       -17.1940       4.538221
    3    0        -0.872657       -23.7462       4.538221

 
  F                    hydrogenic:
 
  List of hydrogenic basis orbitals: 
    n    l      effective z      eigenvalue [eV]  inner max. [A]     outer max. [A]     outer radius [A]   
    2    1         1.700000        -9.7616           1.243167           1.243167           4.598524
    3    2         7.400000       -82.7828           0.642437           0.642437           3.305741
    3    0         6.800000       -69.9026           0.057798           1.022307           3.781556
 
  Creating atomic-like basis functions for current effective potential.

  Species Al                  :

  List of atomic basis orbitals and eigenvalues:
    n    l      energy [Ha]    energy [eV]    outer radius [A]
    1    0       -55.621123     -1513.5278       0.850197
    2    0        -3.957030      -107.6763       3.144911
    3    0        -0.272233        -7.4078       4.594041
    2    1        -2.540949       -69.1427       3.731966
    3    1        -0.083300        -2.2667       4.594041


  Species F                   :

  List of atomic basis orbitals and eigenvalues:
    n    l      energy [Ha]    energy [eV]    outer radius [A]
    1    0       -24.399611      -663.9472       1.258458
    2    0        -1.098702       -29.8972       4.325857
    2    1        -0.408210       -11.1080       4.487453

  Assembling full basis from fixed parts.
  | Species Al :   atomic orbital   1 s accepted.
  | Species Al :   atomic orbital   2 s accepted.
  | Species Al :    ionic orbital   3 s accepted.
  | Species Al :   atomic orbital   3 s accepted.
  | Species Al :   atomic orbital   2 p accepted.
  | Species Al :    ionic orbital   3 p accepted.
  | Species Al :   atomic orbital   3 p accepted.
  | Species Al :    ionic orbital   3 d accepted.
  | Species F :   atomic orbital   1 s accepted.
  | Species F :    hydro orbital   3 s accepted.
  | Species F :   atomic orbital   2 s accepted.
  | Species F :   atomic orbital   2 p accepted.
  | Species F :    hydro orbital   2 p accepted.
  | Species F :    hydro orbital   3 d accepted.
 
  Basis size parameters after reduction:
  | Total number of radial functions:       14
  | Total number of basis functions :      180
 
  Per-task memory consumption for arrays in subroutine allocate_ext:
  |           4.807768MB.
  Testing on-site integration grid accuracy.
  |  Species  Function  <phi|h_atom|phi> (log., in eV)  <phi|h_atom|phi> (rad., in eV)
           1        1              -1513.5277717935              -1513.5271881332
           1        2               -107.6762691836               -107.6762662489
           1        3                 -6.9467474784                 -6.9471269649
           1        4                  5.5771951849                  5.4862107220 ***
           1        5                -69.1427313144                -69.1427312731
           1        6                 -1.5197375330                 -1.5230432022
           1        7                  6.8210948310                  6.5529872240 ***
           1        8                  4.3216540965                  4.2851170187 ***
           2        9               -663.9471986398               -663.9470363334
           2       10                 16.8514011578                 16.8512525338
           2       11                -28.4490593856                -28.4490661472
           2       12                -11.1080115307                -11.1080620173
           2       13                  7.1940182175                  7.1685154137
           2       14                 44.8544281765                 44.8543763625
 * Note: Onsite integrals marked "***" above are less accurate than
 * onsite_accuracy_threshold =    0.03000 eV. Usually, this is harmless.
 * When in doubt, tighten the "radial" and/or "radial_multiplier" flags to check.

  Preparing densities etc. for the partition functions (integrals / Hartree potential).

  Preparations completed.
  max(cpu_time)          :      0.185 s.
  Wall clock time (cpu1) :      0.185 s.
------------------------------------------------------------

------------------------------------------------------------
          Begin self-consistency loop: Initialization.

          Date     :  20220517, Time     :  112840.204
------------------------------------------------------------

  Initializing index lists of integration centers etc. from given atomic structure:
  | Number of centers in hartree potential         :        12
  | Number of centers in hartree multipole         :        12
  | Number of centers in electron density summation:        12
  | Number of centers in basis integrals           :        12
  | Number of centers in integrals                 :        12
  | Number of centers in hamiltonian               :        12
  * Using 24 tasks for Scalapack Eigenvalue solver.
  Detailed listing of tasks and assigned k-points:
  (for non-periodic systems, the "k-point" denotes an internal label only)
   Task     0 k-point     1 on node-k98e-006
   Task     1 k-point     1 on node-k98e-006
   Task     2 k-point     1 on node-k98e-006
   Task     3 k-point     1 on node-k98e-006
   Task     4 k-point     1 on node-k98e-006
   Task     5 k-point     1 on node-k98e-006
   Task     6 k-point     1 on node-k98e-006
   Task     7 k-point     1 on node-k98e-006
   Task     8 k-point     1 on node-k98e-006
   Task     9 k-point     1 on node-k98e-006
   Task    10 k-point     1 on node-k98e-006
   Task    11 k-point     1 on node-k98e-006
   Task    12 k-point     1 on node-k98e-006
   Task    13 k-point     1 on node-k98e-006
   Task    14 k-point     1 on node-k98e-006
   Task    15 k-point     1 on node-k98e-006
   Task    16 k-point     1 on node-k98e-006
   Task    17 k-point     1 on node-k98e-006
   Task    18 k-point     1 on node-k98e-006
   Task    19 k-point     1 on node-k98e-006
   Task    20 k-point     1 on node-k98e-006
   Task    21 k-point     1 on node-k98e-006
   Task    22 k-point     1 on node-k98e-006
   Task    23 k-point     1 on node-k98e-006
  Tasks:    24 split into      6 X      4 BLACS grid
  Calculating block size based on n_basis =          180  max_nprow =            6  max_npcol =            4
  ScaLAPACK block size set to:           16
  Allocating        0.012 MB for ovlp
  Allocating        0.012 MB for ham
  Allocating        0.012 MB for eigenvec
  Required Scalapack workspace - INTEGER:            1  REAL:             1
  Partitioning the integration grid into batches with parallel hashing+maxmin method.
  | Number of batches:      977
  | Maximal batch size:     191
  | Minimal batch size:      24
  | Average batch size:      94.084
  | Standard deviation of batch sizes:      27.562

  Integration load balanced across    24 MPI tasks.
  Work distribution over tasks is as follows:
  Task     0 has       3846 integration points.
  Task     1 has       3877 integration points.
  Task     2 has       3833 integration points.
  Task     3 has       3781 integration points.
  Task     4 has       3843 integration points.
  Task     5 has       3766 integration points.
  Task     6 has       3864 integration points.
  Task     7 has       3855 integration points.
  Task     8 has       3860 integration points.
  Task     9 has       3841 integration points.
  Task    10 has       3857 integration points.
  Task    11 has       3852 integration points.
  Task    12 has       3846 integration points.
  Task    13 has       3843 integration points.
  Task    14 has       3774 integration points.
  Task    15 has       3774 integration points.
  Task    16 has       3838 integration points.
  Task    17 has       3838 integration points.
  Task    18 has       3866 integration points.
  Task    19 has       3759 integration points.
  Task    20 has       3840 integration points.
  Task    21 has       3781 integration points.
  Task    22 has       3838 integration points.
  Task    23 has       3848 integration points.
  Initializing partition tables, free-atom densities, potentials, etc. across the integration grid (initialize_grid_storage).
  | initialize_grid_storage: Actual outermost partition radius vs. multipole_radius_free
  | (-- VB: in principle, multipole_radius_free should be larger, hence this output)
  | Species        1: Confinement radius =              4.999999999999999 AA, multipole_radius_free =              5.004487022111096 AA.
  | Species        1: outer_partition_radius set to              5.004487022111096 AA .
  | Species        2: Confinement radius =              4.999999999999999 AA, multipole_radius_free =              5.009370088163274 AA.
  | Species        2: outer_partition_radius set to              5.009370088163274 AA .
  | The sparse table of interatomic distances needs          1.64 kbyte instead of         1.15 kbyte of memory.
  | Using the partition_type stratmann_smoother will reduce your memory usage.
  | Net number of integration points:    91920
  | of which are non-zero points    :    85790
  Renormalizing the initial density to the exact electron count on the 3D integration grid.
  | Initial density: Formal number of electrons (from input files) :     120.0000000000
  | Integrated number of electrons on 3D grid     :     119.9998805020
  | Charge integration error                      :      -0.0001194980
  | Normalization factor for density and gradient :       1.0000009958
  Renormalizing the free-atom superposition density to the exact electron count on the 3D integration grid.
  | Formal number of electrons (from input files) :     120.0000000000
  | Integrated number of electrons on 3D grid     :     119.9998805020
  | Charge integration error                      :      -0.0001194980
  | Normalization factor for density and gradient :       1.0000009958
  Obtaining max. number of non-zero basis functions in each batch (get_n_compute_maxes).
  | Maximal number of non-zero basis functions:      169 in task     0
  | Maximal number of non-zero basis functions:      159 in task     1
  | Maximal number of non-zero basis functions:      171 in task     2
  | Maximal number of non-zero basis functions:      163 in task     3
  | Maximal number of non-zero basis functions:      164 in task     4
  | Maximal number of non-zero basis functions:      170 in task     5
  | Maximal number of non-zero basis functions:      166 in task     6
  | Maximal number of non-zero basis functions:      166 in task     7
  | Maximal number of non-zero basis functions:      171 in task     8
  | Maximal number of non-zero basis functions:      170 in task     9
  | Maximal number of non-zero basis functions:      171 in task    10
  | Maximal number of non-zero basis functions:      169 in task    11
  | Maximal number of non-zero basis functions:      166 in task    12
  | Maximal number of non-zero basis functions:      162 in task    13
  | Maximal number of non-zero basis functions:      166 in task    14
  | Maximal number of non-zero basis functions:      161 in task    15
  | Maximal number of non-zero basis functions:      163 in task    16
  | Maximal number of non-zero basis functions:      164 in task    17
  | Maximal number of non-zero basis functions:      165 in task    18
  | Maximal number of non-zero basis functions:      166 in task    19
  | Maximal number of non-zero basis functions:      165 in task    20
  | Maximal number of non-zero basis functions:      165 in task    21
  | Maximal number of non-zero basis functions:      163 in task    22
  | Maximal number of non-zero basis functions:      170 in task    23
  Selecting the method for density update.
  Loop over occupied states selected for charge density update.
  Allocating        0.132 MB for KS_eigenvector
  Integrating Hamiltonian matrix: batch-based integration.
  Time summed over all CPUs for integration: real work        0.720 s, elapsed        0.782 s
  Integrating overlap matrix.
  Time summed over all CPUs for integration: real work        0.275 s, elapsed        0.296 s
  Deallocating overlap matrix.

  Updating Kohn-Sham eigenvalues and eigenvectors using ELSI and the ELPA eigensolver.
  Overlap matrix is not singular
  | Lowest and highest eigenvalues :  0.4086E-02,  0.5166E+01
  Finished singularity check of overlap matrix
  | Time :     0.004 s
  Starting ELPA eigensolver
  Finished Cholesky decomposition
  | Time :     0.002 s
  Finished transformation to standard eigenproblem
  | Time :     0.001 s
  Finished solving standard eigenproblem
  | Time :     0.004 s
  Finished back-transformation of eigenvectors
  | Time :     0.000 s

  Obtaining occupation numbers and chemical potential using ELSI.
  | Chemical potential (Fermi level):    -7.99536833 eV
  Writing Kohn-Sham eigenvalues.

  State    Occupation    Eigenvalue [Ha]    Eigenvalue [eV]
      1       2.00000         -55.483623        -1509.78621
      2       2.00000         -55.483469        -1509.78201
      3       2.00000         -55.483042        -1509.77039
      4       2.00000         -24.378375         -663.36932
      5       2.00000         -24.376720         -663.32431
      6       2.00000         -24.370605         -663.15791
      7       2.00000         -24.340125         -662.32849
      8       2.00000         -24.339764         -662.31867
      9       2.00000         -24.339169         -662.30249
     10       2.00000         -24.339093         -662.30043
     11       2.00000         -24.337915         -662.26836
     12       2.00000         -24.336916         -662.24119
     13       2.00000          -3.948897         -107.45496
     14       2.00000          -3.948635         -107.44782
     15       2.00000          -3.948063         -107.43226
     16       2.00000          -2.541235          -69.15053
     17       2.00000          -2.541008          -69.14434
     18       2.00000          -2.540778          -69.13810
     19       2.00000          -2.540663          -69.13495
     20       2.00000          -2.540564          -69.13226
     21       2.00000          -2.540513          -69.13089
     22       2.00000          -2.539933          -69.11510
     23       2.00000          -2.539809          -69.11171
     24       2.00000          -2.539367          -69.09968
     25       2.00000          -1.206080          -32.81910
     26       2.00000          -1.201045          -32.68210
     27       2.00000          -1.190757          -32.40216
     28       2.00000          -1.149184          -31.27089
     29       2.00000          -1.148896          -31.26304
     30       2.00000          -1.147047          -31.21275
     31       2.00000          -1.145421          -31.16848
     32       2.00000          -1.144932          -31.15517
     33       2.00000          -1.143547          -31.11749
     34       2.00000          -0.578426          -15.73978
     35       2.00000          -0.573329          -15.60109
     36       2.00000          -0.551305          -15.00177
     37       2.00000          -0.539320          -14.67563
     38       2.00000          -0.514634          -14.00391
     39       2.00000          -0.506615          -13.78571
     40       2.00000          -0.503874          -13.71111
     41       2.00000          -0.500386          -13.61619
     42       2.00000          -0.494921          -13.46748
     43       2.00000          -0.491458          -13.37324
     44       2.00000          -0.487365          -13.26189
     45       2.00000          -0.484380          -13.18066
     46       2.00000          -0.479395          -13.04501
     47       2.00000          -0.478276          -13.01454
     48       2.00000          -0.474920          -12.92322
     49       2.00000          -0.456166          -12.41290
     50       2.00000          -0.454761          -12.37468
     51       2.00000          -0.453378          -12.33704
     52       2.00000          -0.452252          -12.30642
     53       2.00000          -0.449490          -12.23125
     54       2.00000          -0.448926          -12.21591
     55       2.00000          -0.447539          -12.17816
     56       2.00000          -0.447251          -12.17033
     57       2.00000          -0.446239          -12.14278
     58       2.00000          -0.445626          -12.12609
     59       2.00000          -0.444561          -12.09713
     60       2.00000          -0.442908          -12.05215
     61       0.00000          -0.142971           -3.89044
     62       0.00000          -0.092566           -2.51886
     63       0.00000          -0.080885           -2.20099
     64       0.00000          -0.036508           -0.99343
     65       0.00000          -0.012379           -0.33685
     66       0.00000          -0.005803           -0.15791
     67       0.00000           0.006139            0.16704
     68       0.00000           0.037339            1.01604
     69       0.00000           0.045473            1.23739
     70       0.00000           0.056408            1.53495
     71       0.00000           0.079022            2.15029
     72       0.00000           0.091317            2.48485
     73       0.00000           0.139225            3.78850
     74       0.00000           0.160973            4.38030
     75       0.00000           0.168124            4.57489
     76       0.00000           0.181729            4.94510
     77       0.00000           0.184062            5.00857
     78       0.00000           0.188689            5.13448
     79       0.00000           0.192526            5.23891
     80       0.00000           0.197719            5.38020
     81       0.00000           0.203614            5.54062
     82       0.00000           0.211158            5.74590
     83       0.00000           0.222281            6.04857
     84       0.00000           0.233022            6.34084
     85       0.00000           0.246073            6.69600
     86       0.00000           0.257005            6.99346
     87       0.00000           0.279683            7.61055
     88       0.00000           0.291136            7.92220
     89       0.00000           0.296911            8.07936
     90       0.00000           0.302301            8.22602
     91       0.00000           0.309487            8.42157
     92       0.00000           0.316323            8.60758
     93       0.00000           0.335609            9.13237
     94       0.00000           0.349784            9.51811
     95       0.00000           0.355477            9.67303
     96       0.00000           0.360600            9.81243

  Highest occupied state (VBM) at    -12.05215164 eV
  | Occupation number:      2.00000000

  Lowest unoccupied state (CBM) at    -3.89044077 eV
  | Occupation number:      0.00000000

  Overall HOMO-LUMO gap:      8.16171087 eV.
  Calculating total energy contributions from superposition of free atom densities.

  Total energy components:
  | Sum of eigenvalues            :        -887.68578552 Ha      -24155.15922509 eV
  | XC energy correction          :        -144.31599142 Ha       -3927.03793197 eV
  | XC potential correction       :         187.90704902 Ha        5113.21096121 eV
  | Free-atom electrostatic energy:        -781.27727947 Ha      -21259.63645288 eV
  | Hartree energy correction     :           0.00000000 Ha           0.00000000 eV
  | Entropy correction            :           0.00000000 Ha           0.00000000 eV
  | ---------------------------
  | Total energy                  :       -1625.37200739 Ha      -44228.62264874 eV
  | Total energy, T -> 0          :       -1625.37200739 Ha      -44228.62264874 eV  <-- do not rely on this value for anything but (periodic) metals
  | Electronic free energy        :       -1625.37200739 Ha      -44228.62264874 eV

  Derived energy quantities:
  | Kinetic energy                :        1627.55903494 Ha       44288.13469618 eV
  | Electrostatic energy          :       -3108.61505092 Ha      -84589.71941295 eV
  | Energy correction for multipole
  | error in Hartree potential    :           0.00000000 Ha           0.00000000 eV
  | Sum of eigenvalues per atom                           :       -2012.92993542 eV
  | Total energy (T->0) per atom                          :       -3685.71855406 eV  <-- do not rely on this value for anything but (periodic) metals
  | Electronic free energy per atom                       :       -3685.71855406 eV
  Initialize hartree_potential_storage
  Max. number of atoms included in rho_multipole:           12

  End scf initialization - timings             :  max(cpu_time)    wall_clock(cpu1)
  | Time for scf. initialization                :        0.117 s           0.118 s
  | Boundary condition initialization           :        0.000 s           0.000 s
  | Integration                                 :        0.046 s           0.047 s
  | Solution of K.-S. eqns.                     :        0.011 s           0.011 s
  | Grid partitioning                           :        0.037 s           0.036 s
  | Preloading free-atom quantities on grid     :        0.016 s           0.016 s
  | Free-atom superposition energy              :        0.005 s           0.004 s
  | Total energy evaluation                     :        0.000 s           0.001 s

  Partial memory accounting:
  | Current value for overall tracked memory usage:
  |   Minimum:        0.273 MB (on task 23)
  |   Maximum:        0.292 MB (on task  0)
  |   Average:        0.287 MB
  | Peak value for overall tracked memory usage:
  |   Minimum:        1.308 MB (on task  1 after allocating wave)
  |   Maximum:        1.391 MB (on task  2 after allocating wave)
  |   Average:        1.352 MB
  | Largest tracked array allocation so far:
  |   Minimum:        0.232 MB (H_times_psi on task  1)
  |   Maximum:        0.500 MB (all_coords on task 10)
  |   Average:        0.269 MB
  Note:  These values currently only include a subset of arrays which are explicitly tracked.
  The "true" memory usage will be greater.
------------------------------------------------------------
  Evaluating new KS density.
  Integration grid: deviation in total charge (<rho> - N_e) =   0.000000E+00

  Time for density update prior                :  max(cpu_time)    wall_clock(cpu1)
  | self-consistency iterative process          :        0.028 s           0.028 s

------------------------------------------------------------
          Begin self-consistency iteration #    1

  Date     :  20220517, Time     :  112840.350
------------------------------------------------------------
  Pulay mixing of updated and previous charge densities.
  Renormalizing the density to the exact electron count on the 3D integration grid.
  | Formal number of electrons (from input files) :     120.0000000000
  | Integrated number of electrons on 3D grid     :     120.0000000000
  | Charge integration error                      :      -0.0000000000
  | Normalization factor for density and gradient :       1.0000000000

  Evaluating partitioned Hartree potential by multipole expansion.
  | Original multipole sum: apparent total charge =  -0.269622E-13
  | Sum of charges compensated after spline to logarithmic grids =   0.126817E-03
  | Analytical far-field extrapolation by fixed multipoles:
  | Hartree multipole sum: apparent total charge =  -0.264072E-13
  Summing up the Hartree potential.
  Time summed over all CPUs for potential: real work        0.381 s, elapsed        0.399 s
  | RMS charge density error from multipole expansion :   0.108217E-01

  Integrating Hamiltonian matrix: batch-based integration.
  Time summed over all CPUs for integration: real work        0.668 s, elapsed        0.708 s

  Updating Kohn-Sham eigenvalues and eigenvectors using ELSI and the ELPA eigensolver.
  Starting ELPA eigensolver
  Finished transformation to standard eigenproblem
  | Time :     0.001 s
  Finished solving standard eigenproblem
  | Time :     0.003 s
  Finished back-transformation of eigenvectors
  | Time :     0.000 s

  Obtaining occupation numbers and chemical potential using ELSI.
  | Chemical potential (Fermi level):    -7.74345549 eV
  Writing Kohn-Sham eigenvalues.

  State    Occupation    Eigenvalue [Ha]    Eigenvalue [eV]
      1       2.00000         -55.657785        -1514.52538
      2       2.00000         -55.650202        -1514.31904
      3       2.00000         -55.648653        -1514.27689
      4       2.00000         -24.283740         -660.79419
      5       2.00000         -24.279186         -660.67027
      6       2.00000         -24.262041         -660.20373
      7       2.00000         -24.082438         -655.31647
      8       2.00000         -24.073844         -655.08264
      9       2.00000         -24.069280         -654.95845
     10       2.00000         -24.065937         -654.86746
     11       2.00000         -24.065203         -654.84748
     12       2.00000         -24.063697         -654.80652
     13       2.00000          -4.096955         -111.48382
     14       2.00000          -4.090416         -111.30589
     15       2.00000          -4.088104         -111.24297
     16       2.00000          -2.691440          -73.23780
     17       2.00000          -2.690173          -73.20334
     18       2.00000          -2.687307          -73.12535
     19       2.00000          -2.684291          -73.04327
     20       2.00000          -2.683473          -73.02102
     21       2.00000          -2.681851          -72.97687
     22       2.00000          -2.681353          -72.96333
     23       2.00000          -2.680590          -72.94256
     24       2.00000          -2.679686          -72.91796
     25       2.00000          -1.205376          -32.79996
     26       2.00000          -1.194918          -32.51537
     27       2.00000          -1.185932          -32.27085
     28       2.00000          -1.028558          -27.98848
     29       2.00000          -1.020765          -27.77644
     30       2.00000          -1.015919          -27.64456
     31       2.00000          -1.014830          -27.61494
     32       2.00000          -1.013937          -27.59064
     33       2.00000          -1.008197          -27.43443
     34       2.00000          -0.597103          -16.24799
     35       2.00000          -0.578959          -15.75427
     36       2.00000          -0.551116          -14.99663
     37       2.00000          -0.547446          -14.89676
     38       2.00000          -0.507017          -13.79663
     39       2.00000          -0.498369          -13.56132
     40       2.00000          -0.490882          -13.35758
     41       2.00000          -0.483583          -13.15897
     42       2.00000          -0.477582          -12.99568
     43       2.00000          -0.406066          -11.04961
     44       2.00000          -0.396771          -10.79669
     45       2.00000          -0.392524          -10.68113
     46       2.00000          -0.370617          -10.08500
     47       2.00000          -0.368696          -10.03273
     48       2.00000          -0.359992           -9.79587
     49       2.00000          -0.342617           -9.32309
     50       2.00000          -0.339430           -9.23636
     51       2.00000          -0.336045           -9.14425
     52       2.00000          -0.330846           -9.00277
     53       2.00000          -0.330538           -8.99439
     54       2.00000          -0.327640           -8.91554
     55       2.00000          -0.324717           -8.83601
     56       2.00000          -0.323850           -8.81240
     57       2.00000          -0.322494           -8.77550
     58       2.00000          -0.320261           -8.71475
     59       2.00000          -0.316530           -8.61322
     60       2.00000          -0.308224           -8.38719
     61       0.00000          -0.163311           -4.44393
     62       0.00000          -0.104183           -2.83495
     63       0.00000          -0.085287           -2.32079
     64       0.00000          -0.069059           -1.87920
     65       0.00000          -0.033595           -0.91416
     66       0.00000          -0.022248           -0.60541
     67       0.00000          -0.002695           -0.07333
     68       0.00000           0.020976            0.57080
     69       0.00000           0.029794            0.81073
     70       0.00000           0.034444            0.93727
     71       0.00000           0.047860            1.30233
     72       0.00000           0.071466            1.94468
     73       0.00000           0.131962            3.59087
     74       0.00000           0.154281            4.19820
     75       0.00000           0.160198            4.35922
     76       0.00000           0.170735            4.64593
     77       0.00000           0.178577            4.85932
     78       0.00000           0.185329            5.04305
     79       0.00000           0.190442            5.18220
     80       0.00000           0.192266            5.23182
     81       0.00000           0.197118            5.36385
     82       0.00000           0.210590            5.73044
     83       0.00000           0.212167            5.77337
     84       0.00000           0.223273            6.07556
     85       0.00000           0.227951            6.20287
     86       0.00000           0.249904            6.80022
     87       0.00000           0.269464            7.33249
     88       0.00000           0.278286            7.57256
     89       0.00000           0.283799            7.72255
     90       0.00000           0.288133            7.84050
     91       0.00000           0.296893            8.07886
     92       0.00000           0.302532            8.23231
     93       0.00000           0.320402            8.71858
     94       0.00000           0.339501            9.23830
     95       0.00000           0.361204            9.82885
     96       0.00000           0.372033           10.12352

  Highest occupied state (VBM) at     -8.38719483 eV
  | Occupation number:      2.00000000

  Lowest unoccupied state (CBM) at    -4.44392823 eV
  | Occupation number:      0.00000000

  Overall HOMO-LUMO gap:      3.94326659 eV.

  Total energy components:
  | Sum of eigenvalues            :        -882.55198575 Ha      -24015.46142541 eV
  | XC energy correction          :        -145.69614936 Ha       -3964.59394045 eV
  | XC potential correction       :         189.72121839 Ha        5162.57702151 eV
  | Free-atom electrostatic energy:        -781.27727947 Ha      -21259.63645288 eV
  | Hartree energy correction     :          -5.33537840 Ha        -145.18303313 eV
  | Entropy correction            :           0.00000000 Ha           0.00000000 eV
  | ---------------------------
  | Total energy                  :       -1625.13957459 Ha      -44222.29783036 eV
  | Total energy, T -> 0          :       -1625.13957459 Ha      -44222.29783036 eV  <-- do not rely on this value for anything but (periodic) metals
  | Electronic free energy        :       -1625.13957459 Ha      -44222.29783036 eV

  Derived energy quantities:
  | Kinetic energy                :        1634.22126593 Ha       44469.42322524 eV
  | Electrostatic energy          :       -3113.66469116 Ha      -84727.12711515 eV
  | Energy correction for multipole
  | error in Hartree potential    :           0.04343757 Ha           1.18199654 eV
  | Sum of eigenvalues per atom                           :       -2001.28845212 eV
  | Total energy (T->0) per atom                          :       -3685.19148586 eV  <-- do not rely on this value for anything but (periodic) metals
  | Electronic free energy per atom                       :       -3685.19148586 eV
  Evaluating new KS density.
  Integration grid: deviation in total charge (<rho> - N_e) =   2.842171E-14

  Self-consistency convergence accuracy:
  | Change of charge density      :  0.6155E+00
  | Change of sum of eigenvalues  :  0.1397E+03 eV
  | Change of total energy        :  0.6325E+01 eV


------------------------------------------------------------
  End self-consistency iteration #     1       :  max(cpu_time)    wall_clock(cpu1)
  | Time for this iteration                     :        0.081 s           0.081 s
  | Charge density update                       :        0.027 s           0.027 s
  | Density mixing                              :        0.000 s           0.001 s
  | Hartree multipole update                    :        0.001 s           0.001 s
  | Hartree multipole summation                 :        0.017 s           0.017 s
  | Integration                                 :        0.030 s           0.030 s
  | Solution of K.-S. eqns.                     :        0.004 s           0.005 s
  | Total energy evaluation                     :        0.000 s           0.000 s

  Partial memory accounting:
  | Current value for overall tracked memory usage:
  |   Minimum:        0.273 MB (on task 23)
  |   Maximum:        0.292 MB (on task  0)
  |   Average:        0.287 MB
  | Peak value for overall tracked memory usage:
  |   Minimum:        1.308 MB (on task  1 after allocating wave)
  |   Maximum:        1.391 MB (on task  2 after allocating wave)
  |   Average:        1.352 MB
  | Largest tracked array allocation so far:
  |   Minimum:        0.695 MB (gradient_basis_wave on task  1)
  |   Maximum:        0.748 MB (gradient_basis_wave on task  2)
  |   Average:        0.726 MB
  Note:  These values currently only include a subset of arrays which are explicitly tracked.
  The "true" memory usage will be greater.
------------------------------------------------------------

------------------------------------------------------------
          Begin self-consistency iteration #    2

  Date     :  20220517, Time     :  112840.438
------------------------------------------------------------
  Pulay mixing of updated and previous charge densities.
  Renormalizing the density to the exact electron count on the 3D integration grid.
  | Formal number of electrons (from input files) :     120.0000000000
  | Integrated number of electrons on 3D grid     :     120.0000000000
  | Charge integration error                      :       0.0000000000
  | Normalization factor for density and gradient :       1.0000000000

  Evaluating partitioned Hartree potential by multipole expansion.
  | Original multipole sum: apparent total charge =  -0.238752E-14
  | Sum of charges compensated after spline to logarithmic grids =   0.895909E-04
  | Analytical far-field extrapolation by fixed multipoles:
  | Hartree multipole sum: apparent total charge =  -0.235985E-14
  Summing up the Hartree potential.
  Time summed over all CPUs for potential: real work        0.380 s, elapsed        0.397 s
  | RMS charge density error from multipole expansion :   0.126914E-01

  Integrating Hamiltonian matrix: batch-based integration.
  Time summed over all CPUs for integration: real work        0.668 s, elapsed        0.707 s

  Updating Kohn-Sham eigenvalues and eigenvectors using ELSI and the ELPA eigensolver.
  Starting ELPA eigensolver
  Finished transformation to standard eigenproblem
  | Time :     0.000 s
  Finished solving standard eigenproblem
  | Time :     0.003 s
  Finished back-transformation of eigenvectors
  | Time :     0.000 s

  Obtaining occupation numbers and chemical potential using ELSI.
  | Chemical potential (Fermi level):    -8.08492126 eV
  Highest occupied state (VBM) at     -9.60645146 eV
  | Occupation number:      2.00000000

  Lowest unoccupied state (CBM) at    -4.63111247 eV
  | Occupation number:      0.00000000

  Overall HOMO-LUMO gap:      4.97533899 eV.

  Checking to see if s.c.f. parameters should be adjusted.

  Total energy components:
  | Sum of eigenvalues            :        -885.76612313 Ha      -24102.92255357 eV
  | XC energy correction          :        -145.18186717 Ha       -3950.59961008 eV
  | XC potential correction       :         189.04457399 Ha        5144.16459056 eV
  | Free-atom electrostatic energy:        -781.27727947 Ha      -21259.63645288 eV
  | Hartree energy correction     :          -1.88543727 Ha         -51.30535849 eV
  | Entropy correction            :           0.00000000 Ha           0.00000000 eV
  | ---------------------------
  | Total energy                  :       -1625.06613305 Ha      -44220.29938447 eV
  | Total energy, T -> 0          :       -1625.06613305 Ha      -44220.29938447 eV  <-- do not rely on this value for anything but (periodic) metals
  | Electronic free energy        :       -1625.06613305 Ha      -44220.29938447 eV

  Derived energy quantities:
  | Kinetic energy                :        1630.25124095 Ha       44361.39334907 eV
  | Electrostatic energy          :       -3110.13550683 Ha      -84631.09312346 eV
  | Energy correction for multipole
  | error in Hartree potential    :           0.04709920 Ha           1.28163440 eV
  | Sum of eigenvalues per atom                           :       -2008.57687946 eV
  | Total energy (T->0) per atom                          :       -3685.02494871 eV  <-- do not rely on this value for anything but (periodic) metals
  | Electronic free energy per atom                       :       -3685.02494871 eV
  Evaluating new KS density.
  Integration grid: deviation in total charge (<rho> - N_e) =   2.842171E-14

  Self-consistency convergence accuracy:
  | Change of charge density      :  0.5101E+00
  | Change of sum of eigenvalues  : -0.8746E+02 eV
  | Change of total energy        :  0.1998E+01 eV


------------------------------------------------------------
  End self-consistency iteration #     2       :  max(cpu_time)    wall_clock(cpu1)
  | Time for this iteration                     :        0.084 s           0.080 s
  | Charge density update                       :        0.027 s           0.027 s
  | Density mixing                              :        0.004 s           0.001 s
  | Hartree multipole update                    :        0.001 s           0.001 s
  | Hartree multipole summation                 :        0.017 s           0.017 s
  | Integration                                 :        0.030 s           0.030 s
  | Solution of K.-S. eqns.                     :        0.004 s           0.004 s
  | Total energy evaluation                     :        0.000 s           0.000 s

  Partial memory accounting:
  | Current value for overall tracked memory usage:
  |   Minimum:        0.274 MB (on task 23)
  |   Maximum:        0.293 MB (on task  0)
  |   Average:        0.288 MB
  | Peak value for overall tracked memory usage:
  |   Minimum:        1.308 MB (on task  1 after allocating wave)
  |   Maximum:        1.391 MB (on task  2 after allocating wave)
  |   Average:        1.352 MB
  | Largest tracked array allocation so far:
  |   Minimum:        0.695 MB (gradient_basis_wave on task  1)
  |   Maximum:        0.748 MB (gradient_basis_wave on task  2)
  |   Average:        0.726 MB
  Note:  These values currently only include a subset of arrays which are explicitly tracked.
  The "true" memory usage will be greater.
------------------------------------------------------------

------------------------------------------------------------
          Begin self-consistency iteration #    3

  Date     :  20220517, Time     :  112840.524
------------------------------------------------------------
  Pulay mixing of updated and previous charge densities.
  Renormalizing the density to the exact electron count on the 3D integration grid.
  | Formal number of electrons (from input files) :     120.0000000000
  | Integrated number of electrons on 3D grid     :     120.0000000000
  | Charge integration error                      :       0.0000000000
  | Normalization factor for density and gradient :       1.0000000000

  Evaluating partitioned Hartree potential by multipole expansion.
  | Original multipole sum: apparent total charge =  -0.364293E-13
  | Sum of charges compensated after spline to logarithmic grids =   0.116338E-03
  | Analytical far-field extrapolation by fixed multipoles:
  | Hartree multipole sum: apparent total charge =  -0.384586E-13
  Summing up the Hartree potential.
  Time summed over all CPUs for potential: real work        0.380 s, elapsed        0.397 s
  | RMS charge density error from multipole expansion :   0.172896E-01

  Integrating Hamiltonian matrix: batch-based integration.
  Time summed over all CPUs for integration: real work        0.668 s, elapsed        0.707 s

  Updating Kohn-Sham eigenvalues and eigenvectors using ELSI and the ELPA eigensolver.
  Starting ELPA eigensolver
  Finished transformation to standard eigenproblem
  | Time :     0.000 s
  Finished solving standard eigenproblem
  | Time :     0.004 s
  Finished back-transformation of eigenvectors
  | Time :     0.000 s

  Obtaining occupation numbers and chemical potential using ELSI.
  | Chemical potential (Fermi level):    -8.12347013 eV
  Highest occupied state (VBM) at     -9.36874071 eV
  | Occupation number:      2.00000000

  Lowest unoccupied state (CBM) at    -4.89284395 eV
  | Occupation number:      0.00000000

  Overall HOMO-LUMO gap:      4.47589676 eV.

  Total energy components:
  | Sum of eigenvalues            :        -886.89922758 Ha      -24133.75589432 eV
  | XC energy correction          :        -145.14896293 Ha       -3949.70424000 eV
  | XC potential correction       :         189.00002713 Ha        5142.95240872 eV
  | Free-atom electrostatic energy:        -781.27727947 Ha      -21259.63645288 eV
  | Hartree energy correction     :          -0.73945868 Ha         -20.12169458 eV
  | Entropy correction            :           0.00000000 Ha           0.00000000 eV
  | ---------------------------
  | Total energy                  :       -1625.06490153 Ha      -44220.26587306 eV
  | Total energy, T -> 0          :       -1625.06490153 Ha      -44220.26587306 eV  <-- do not rely on this value for anything but (periodic) metals
  | Electronic free energy        :       -1625.06490153 Ha      -44220.26587306 eV

  Derived energy quantities:
  | Kinetic energy                :        1628.59398152 Ha       44316.29702554 eV
  | Electrostatic energy          :       -3108.50992013 Ha      -84586.85865861 eV
  | Energy correction for multipole
  | error in Hartree potential    :           0.06189893 Ha           1.68435562 eV
  | Sum of eigenvalues per atom                           :       -2011.14632453 eV
  | Total energy (T->0) per atom                          :       -3685.02215609 eV  <-- do not rely on this value for anything but (periodic) metals
  | Electronic free energy per atom                       :       -3685.02215609 eV
  Evaluating new KS density.
  Integration grid: deviation in total charge (<rho> - N_e) =   5.684342E-14

  Self-consistency convergence accuracy:
  | Change of charge density      :  0.1295E+00
  | Change of sum of eigenvalues  : -0.3083E+02 eV
  | Change of total energy        :  0.3351E-01 eV


------------------------------------------------------------
  End self-consistency iteration #     3       :  max(cpu_time)    wall_clock(cpu1)
  | Time for this iteration                     :        0.083 s           0.081 s
  | Charge density update                       :        0.027 s           0.027 s
  | Density mixing                              :        0.004 s           0.002 s
  | Hartree multipole update                    :        0.001 s           0.001 s
  | Hartree multipole summation                 :        0.017 s           0.017 s
  | Integration                                 :        0.030 s           0.030 s
  | Solution of K.-S. eqns.                     :        0.004 s           0.004 s
  | Total energy evaluation                     :        0.000 s           0.000 s

  Partial memory accounting:
  | Current value for overall tracked memory usage:
  |   Minimum:        0.274 MB (on task 23)
  |   Maximum:        0.293 MB (on task  0)
  |   Average:        0.288 MB
  | Peak value for overall tracked memory usage:
  |   Minimum:        1.308 MB (on task  1 after allocating wave)
  |   Maximum:        1.391 MB (on task  2 after allocating wave)
  |   Average:        1.352 MB
  | Largest tracked array allocation so far:
  |   Minimum:        0.695 MB (gradient_basis_wave on task  1)
  |   Maximum:        0.748 MB (gradient_basis_wave on task  2)
  |   Average:        0.726 MB
  Note:  These values currently only include a subset of arrays which are explicitly tracked.
  The "true" memory usage will be greater.
------------------------------------------------------------

------------------------------------------------------------
          Begin self-consistency iteration #    4

  Date     :  20220517, Time     :  112840.612
------------------------------------------------------------
  Pulay mixing of updated and previous charge densities.
  Renormalizing the density to the exact electron count on the 3D integration grid.
  | Formal number of electrons (from input files) :     120.0000000000
  | Integrated number of electrons on 3D grid     :     120.0000000000
  | Charge integration error                      :       0.0000000000
  | Normalization factor for density and gradient :       1.0000000000

  Evaluating partitioned Hartree potential by multipole expansion.
  | Original multipole sum: apparent total charge =  -0.384278E-13
  | Sum of charges compensated after spline to logarithmic grids =   0.130031E-03
  | Analytical far-field extrapolation by fixed multipoles:
  | Hartree multipole sum: apparent total charge =  -0.363555E-13
  Summing up the Hartree potential.
  Time summed over all CPUs for potential: real work        0.380 s, elapsed        0.396 s
  | RMS charge density error from multipole expansion :   0.197147E-01

  Integrating Hamiltonian matrix: batch-based integration.
  Time summed over all CPUs for integration: real work        0.667 s, elapsed        0.707 s

  Updating Kohn-Sham eigenvalues and eigenvectors using ELSI and the ELPA eigensolver.
  Starting ELPA eigensolver
  Finished transformation to standard eigenproblem
  | Time :     0.000 s
  Finished solving standard eigenproblem
  | Time :     0.003 s
  Finished back-transformation of eigenvectors
  | Time :     0.000 s

  Obtaining occupation numbers and chemical potential using ELSI.
  | Chemical potential (Fermi level):    -8.14151516 eV
  Highest occupied state (VBM) at     -9.43969853 eV
  | Occupation number:      2.00000000

  Lowest unoccupied state (CBM) at    -4.85742224 eV
  | Occupation number:      0.00000000

  Overall HOMO-LUMO gap:      4.58227629 eV.

  Total energy components:
  | Sum of eigenvalues            :        -887.10852424 Ha      -24139.45114625 eV
  | XC energy correction          :        -145.12723536 Ha       -3949.11300287 eV
  | XC potential correction       :         188.97061735 Ha        5142.15212795 eV
  | Free-atom electrostatic energy:        -781.27727947 Ha      -21259.63645288 eV
  | Hartree energy correction     :          -0.52008420 Ha         -14.15221107 eV
  | Entropy correction            :           0.00000000 Ha           0.00000000 eV
  | ---------------------------
  | Total energy                  :       -1625.06250592 Ha      -44220.20068512 eV
  | Total energy, T -> 0          :       -1625.06250592 Ha      -44220.20068512 eV  <-- do not rely on this value for anything but (periodic) metals
  | Electronic free energy        :       -1625.06250592 Ha      -44220.20068512 eV

  Derived energy quantities:
  | Kinetic energy                :        1627.78931461 Ha       44294.40092479 eV
  | Electrostatic energy          :       -3107.72458517 Ha      -84565.48860705 eV
  | Energy correction for multipole
  | error in Hartree potential    :           0.06927793 Ha           1.88514844 eV
  | Sum of eigenvalues per atom                           :       -2011.62092885 eV
  | Total energy (T->0) per atom                          :       -3685.01672376 eV  <-- do not rely on this value for anything but (periodic) metals
  | Electronic free energy per atom                       :       -3685.01672376 eV
  Evaluating new KS density.
  Integration grid: deviation in total charge (<rho> - N_e) =   5.684342E-14

  Self-consistency convergence accuracy:
  | Change of charge density      :  0.9132E-01
  | Change of sum of eigenvalues  : -0.5695E+01 eV
  | Change of total energy        :  0.6519E-01 eV


------------------------------------------------------------
  End self-consistency iteration #     4       :  max(cpu_time)    wall_clock(cpu1)
  | Time for this iteration                     :        0.084 s           0.081 s
  | Charge density update                       :        0.027 s           0.027 s
  | Density mixing                              :        0.004 s           0.002 s
  | Hartree multipole update                    :        0.001 s           0.001 s
  | Hartree multipole summation                 :        0.017 s           0.017 s
  | Integration                                 :        0.030 s           0.029 s
  | Solution of K.-S. eqns.                     :        0.004 s           0.004 s
  | Total energy evaluation                     :        0.000 s           0.000 s

  Partial memory accounting:
  | Current value for overall tracked memory usage:
  |   Minimum:        0.274 MB (on task 23)
  |   Maximum:        0.293 MB (on task  0)
  |   Average:        0.288 MB
  | Peak value for overall tracked memory usage:
  |   Minimum:        1.308 MB (on task  1 after allocating wave)
  |   Maximum:        1.391 MB (on task  2 after allocating wave)
  |   Average:        1.352 MB
  | Largest tracked array allocation so far:
  |   Minimum:        0.695 MB (gradient_basis_wave on task  1)
  |   Maximum:        0.748 MB (gradient_basis_wave on task  2)
  |   Average:        0.726 MB
  Note:  These values currently only include a subset of arrays which are explicitly tracked.
  The "true" memory usage will be greater.
------------------------------------------------------------

------------------------------------------------------------
          Begin self-consistency iteration #    5

  Date     :  20220517, Time     :  112840.700
------------------------------------------------------------
  Pulay mixing of updated and previous charge densities.
  Renormalizing the density to the exact electron count on the 3D integration grid.
  | Formal number of electrons (from input files) :     120.0000000000
  | Integrated number of electrons on 3D grid     :     120.0000000000
  | Charge integration error                      :       0.0000000000
  | Normalization factor for density and gradient :       1.0000000000

  Evaluating partitioned Hartree potential by multipole expansion.
  | Original multipole sum: apparent total charge =   0.591822E-13
  | Sum of charges compensated after spline to logarithmic grids =   0.130058E-03
  | Analytical far-field extrapolation by fixed multipoles:
  | Hartree multipole sum: apparent total charge =   0.579338E-13
  Summing up the Hartree potential.
  Time summed over all CPUs for potential: real work        0.380 s, elapsed        0.397 s
  | RMS charge density error from multipole expansion :   0.194410E-01

  Integrating Hamiltonian matrix: batch-based integration.
  Time summed over all CPUs for integration: real work        0.668 s, elapsed        0.707 s

  Updating Kohn-Sham eigenvalues and eigenvectors using ELSI and the ELPA eigensolver.
  Starting ELPA eigensolver
  Finished transformation to standard eigenproblem
  | Time :     0.000 s
  Finished solving standard eigenproblem
  | Time :     0.003 s
  Finished back-transformation of eigenvectors
  | Time :     0.000 s

  Obtaining occupation numbers and chemical potential using ELSI.
  | Chemical potential (Fermi level):    -8.12141745 eV
  Highest occupied state (VBM) at     -9.49606591 eV
  | Occupation number:      2.00000000

  Lowest unoccupied state (CBM) at    -4.78522000 eV
  | Occupation number:      0.00000000

  Overall HOMO-LUMO gap:      4.71084592 eV.

  Total energy components:
  | Sum of eigenvalues            :        -886.87359952 Ha      -24133.05851956 eV
  | XC energy correction          :        -145.12147735 Ha       -3948.95631929 eV
  | XC potential correction       :         188.96327822 Ha        5141.95241990 eV
  | Free-atom electrostatic energy:        -781.27727947 Ha      -21259.63645288 eV
  | Hartree energy correction     :          -0.75325393 Ha         -20.49708243 eV
  | Entropy correction            :           0.00000000 Ha           0.00000000 eV
[...]
   Total forces(   7)            :  0.130797E+01  0.301408E+01  0.852701E+00
  atom #    8
   Hellmann-Feynman              :  0.507713E+00 -0.912461E+00  0.382258E+00
   Ionic forces                  :  0.000000E+00  0.000000E+00  0.000000E+00
   Multipole                     :  0.163970E+00  0.178434E-01  0.279933E+00
   Hartree pot. SCF incomplete   :  0.158108E-05  0.154810E-06  0.102616E-05
   Pulay + GGA                   : -0.153562E+01  0.103066E+01 -0.171850E+01
   ----------------------------------------------------------------
   Total forces(   8)            : -0.863936E+00  0.136045E+00 -0.105631E+01
  atom #    9
   Hellmann-Feynman              :  0.704114E-01  0.742047E+00 -0.225645E+00
   Ionic forces                  :  0.000000E+00  0.000000E+00  0.000000E+00
   Multipole                     :  0.852293E-02  0.141973E+00 -0.389148E+00
   Hartree pot. SCF incomplete   : -0.293817E-06  0.761469E-06 -0.273380E-06
   Pulay + GGA                   : -0.221325E+00 -0.107026E+01  0.137666E+01
   ----------------------------------------------------------------
   Total forces(   9)            : -0.142391E+00 -0.186235E+00  0.761869E+00
  atom #   10
   Hellmann-Feynman              : -0.649969E-02 -0.104709E+01  0.292594E+01
   Ionic forces                  :  0.000000E+00  0.000000E+00  0.000000E+00
   Multipole                     :  0.436977E-01 -0.267616E+00  0.648417E+00
   Hartree pot. SCF incomplete   : -0.236533E-07 -0.134178E-05  0.143058E-05
   Pulay + GGA                   : -0.358936E+00  0.238177E+01 -0.669076E+01
   ----------------------------------------------------------------
   Total forces(  10)            : -0.321738E+00  0.106706E+01 -0.311640E+01
  atom #   11
   Hellmann-Feynman              :  0.179025E+00  0.276151E+01 -0.112492E+01
   Ionic forces                  :  0.000000E+00  0.000000E+00  0.000000E+00
   Multipole                     :  0.159723E+00  0.701775E+00 -0.255929E+00
   Hartree pot. SCF incomplete   :  0.740286E-06 -0.531009E-06 -0.294335E-05
   Pulay + GGA                   : -0.775157E+00 -0.671824E+01  0.208845E+01
   ----------------------------------------------------------------
   Total forces(  11)            : -0.436409E+00 -0.325496E+01  0.707598E+00
  atom #   12
   Hellmann-Feynman              :  0.249257E+00 -0.427742E+00 -0.156942E+00
   Ionic forces                  :  0.000000E+00  0.000000E+00  0.000000E+00
   Multipole                     : -0.304110E+00 -0.172048E+00  0.242168E+00
   Hartree pot. SCF incomplete   : -0.404578E-06 -0.168872E-05 -0.162316E-06
   Pulay + GGA                   :  0.640889E+00  0.790436E+00 -0.383591E+00
   ----------------------------------------------------------------
   Total forces(  12)            :  0.586035E+00  0.190644E+00 -0.298366E+00


  Self-consistency convergence accuracy:
  | Change of charge density      :  0.1576E-06
  | Change of sum of eigenvalues  : -0.8878E-05 eV
  | Change of total energy        :  0.2203E-08 eV
  | Change of forces              :  0.4571E-06 eV/A

  Writing Kohn-Sham eigenvalues.

  State    Occupation    Eigenvalue [Ha]    Eigenvalue [eV]
      1       2.00000         -55.638176        -1513.99181
      2       2.00000         -55.633797        -1513.87265
      3       2.00000         -55.633167        -1513.85549
      4       2.00000         -24.345638         -662.47852
      5       2.00000         -24.339278         -662.30546
      6       2.00000         -24.326094         -661.94670
      7       2.00000         -24.224153         -659.17275
      8       2.00000         -24.221114         -659.09006
      9       2.00000         -24.216735         -658.97090
     10       2.00000         -24.210924         -658.81277
     11       2.00000         -24.207817         -658.72822
     12       2.00000         -24.206495         -658.69223
     13       2.00000          -4.091808         -111.34376
     14       2.00000          -4.087458         -111.22539
     15       2.00000          -4.086808         -111.20769
     16       2.00000          -2.686241          -73.09635
     17       2.00000          -2.684841          -73.05825
     18       2.00000          -2.681121          -72.95703
     19       2.00000          -2.680990          -72.95346
     20       2.00000          -2.679998          -72.92645
     21       2.00000          -2.679026          -72.90001
     22       2.00000          -2.677536          -72.85946
     23       2.00000          -2.676158          -72.82197
     24       2.00000          -2.675671          -72.80870
     25       2.00000          -1.225083          -33.33622
     26       2.00000          -1.214914          -33.05948
     27       2.00000          -1.205790          -32.81122
     28       2.00000          -1.071428          -29.15503
     29       2.00000          -1.065627          -28.99717
     30       2.00000          -1.061220          -28.87726
     31       2.00000          -1.057843          -28.78538
     32       2.00000          -1.056140          -28.73903
     33       2.00000          -1.050392          -28.58263
     34       2.00000          -0.616038          -16.76325
     35       2.00000          -0.597612          -16.26185
     36       2.00000          -0.570293          -15.51846
     37       2.00000          -0.565502          -15.38809
     38       2.00000          -0.524440          -14.27073
     39       2.00000          -0.519325          -14.13154
     40       2.00000          -0.509967          -13.87692
     41       2.00000          -0.503908          -13.71204
     42       2.00000          -0.496602          -13.51322
     43       2.00000          -0.440744          -11.99326
     44       2.00000          -0.432589          -11.77136
     45       2.00000          -0.429553          -11.68872
     46       2.00000          -0.413329          -11.24725
     47       2.00000          -0.410814          -11.17882
     48       2.00000          -0.400748          -10.90490
     49       2.00000          -0.381002          -10.36759
     50       2.00000          -0.378054          -10.28738
     51       2.00000          -0.375675          -10.22263
     52       2.00000          -0.370297          -10.07631
     53       2.00000          -0.367700          -10.00563
     54       2.00000          -0.366720           -9.97896
     55       2.00000          -0.366121           -9.96267
     56       2.00000          -0.365377           -9.94242
     57       2.00000          -0.363442           -9.88975
     58       2.00000          -0.361273           -9.83073
     59       2.00000          -0.356269           -9.69456
     60       2.00000          -0.347905           -9.46698
     61       0.00000          -0.176036           -4.79020
     62       0.00000          -0.116246           -3.16322
     63       0.00000          -0.097817           -2.66172
     64       0.00000          -0.075822           -2.06321
     65       0.00000          -0.039477           -1.07422
     66       0.00000          -0.027019           -0.73524
     67       0.00000          -0.008087           -0.22005
     68       0.00000           0.015312            0.41666
     69       0.00000           0.026467            0.72020
     70       0.00000           0.029854            0.81237
     71       0.00000           0.042468            1.15560
     72       0.00000           0.064505            1.75526
     73       0.00000           0.124012            3.37455
     74       0.00000           0.148902            4.05182
     75       0.00000           0.154308            4.19892
     76       0.00000           0.164500            4.47628
     77       0.00000           0.172064            4.68211
     78       0.00000           0.180902            4.92260
     79       0.00000           0.183670            4.99791
     80       0.00000           0.185191            5.03930
     81       0.00000           0.189082            5.14517
     82       0.00000           0.203279            5.53150
     83       0.00000           0.203438            5.53584
     84       0.00000           0.216021            5.87824
     85       0.00000           0.222016            6.04138
     86       0.00000           0.241271            6.56533
     87       0.00000           0.262488            7.14266
     88       0.00000           0.272197            7.40685
     89       0.00000           0.279023            7.59259
     90       0.00000           0.282346            7.68302
     91       0.00000           0.290948            7.91710
     92       0.00000           0.297144            8.08570
     93       0.00000           0.314217            8.55028
     94       0.00000           0.332951            9.06006
     95       0.00000           0.354209            9.63853
     96       0.00000           0.357850            9.73758

  Highest occupied state (VBM) at     -9.46697795 eV
  | Occupation number:      2.00000000

  Lowest unoccupied state (CBM) at    -4.79019598 eV
  | Occupation number:      0.00000000

  Overall HOMO-LUMO gap:      4.67678197 eV.
  | Chemical Potential                          :    -8.11862272 eV

  Self-consistency cycle converged.


------------------------------------------------------------
  End self-consistency iteration #    14       :  max(cpu_time)    wall_clock(cpu1)
  | Time for this iteration                     :        0.266 s           0.265 s
  | Charge density & force component update     :        0.144 s           0.144 s
  | Density mixing                              :        0.005 s           0.003 s
  | Hartree multipole update                    :        0.001 s           0.002 s
  | Hartree multipole summation                 :        0.049 s           0.049 s
  | Hartree pot. SCF incomplete forces          :        0.032 s           0.033 s
  | Integration                                 :        0.030 s           0.029 s
  | Solution of K.-S. eqns.                     :        0.004 s           0.004 s
  | Total energy evaluation                     :        0.000 s           0.000 s

  Partial memory accounting:
  | Current value for overall tracked memory usage:
  |   Minimum:        0.274 MB (on task 23)
  |   Maximum:        0.293 MB (on task  0)
  |   Average:        0.289 MB
  | Peak value for overall tracked memory usage:
  |   Minimum:        2.872 MB (on task  1 after allocating hessian_basis_wave)
  |   Maximum:        3.047 MB (on task  2 after allocating hessian_basis_wave)
  |   Average:        2.970 MB
  | Largest tracked array allocation so far:
  |   Minimum:        1.390 MB (hessian_basis_wave on task  1)
  |   Maximum:        1.495 MB (hessian_basis_wave on task  2)
  |   Average:        1.452 MB
  Note:  These values currently only include a subset of arrays which are explicitly tracked.
  The "true" memory usage will be greater.
------------------------------------------------------------
  Removing unitary transformations (pure translations, rotations) from forces on atoms.
  Atomic forces before filtering:
  | Net force on center of mass :  -0.720851E-02 -0.103870E-01 -0.124998E-02 eV/A
  | Net torque on center of mass:  -0.893791E-02 -0.464530E-02  0.356053E-02 eV
  Atomic forces after filtering:
  | Net force on center of mass :   0.267609E-15 -0.289910E-15  0.713624E-15 eV/A
  | Net torque on center of mass:  -0.330430E-14  0.250182E-14  0.424248E-14 eV

  Energy and forces in a compact form:
  | Total energy uncorrected      :         -0.442201954618635E+05 eV
  | Total energy corrected        :         -0.442201954618635E+05 eV  <-- do not rely on this value for anything but (periodic) metals
  | Electronic free energy        :         -0.442201954618635E+05 eV
  Total atomic forces (unitary forces cleaned) [eV/Ang]:
  |    1          0.203036591173273E+00          0.196548506235510E+01          0.305727893981765E+01
  |    2          0.272676991611236E+01         -0.654310311353233E+00         -0.683484834941238E+00
  |    3         -0.322288844871742E+01         -0.123819228648669E+01         -0.262574853945638E+01
  |    4         -0.169677911689481E+01         -0.299203282855292E+01          0.800541451988632E+00
  |    5          0.209126391375655E+01         -0.155713546494693E+01          0.213915683648591E+01
  |    6         -0.234835461020763E+00          0.350492432098179E+01         -0.539687128561148E+00
  |    7          0.130838032303452E+01          0.301528110987842E+01          0.852568275152871E+00
  |    8         -0.863231074468399E+00          0.136620922689410E+00         -0.105631967823531E+01
  |    9         -0.141917817124011E+00         -0.185093535988435E+00          0.761937505991712E+00
  |   10         -0.320856027700543E+00          0.106731057394828E+01         -0.311623773906320E+01
  |   11         -0.435625300781678E+00         -0.325430226923867E+01          0.708161852248205E+00
  |   12          0.586682502630926E+00          0.191444706713881E+00         -0.298166941427702E+00

  ------------------------------------ 
  Start decomposition of the XC Energy 
  ------------------------------------ 
  X and C from original XC functional choice 
  Hartree-Fock Energy :          0.000000000 Ha              0.000000000 eV
  X Energy            :       -140.190794617 Ha          -3814.785615685 eV
  C Energy            :         -4.935909683 Ha           -134.312936238 eV
  Total XC Energy     :       -145.126704300 Ha          -3949.098551923 eV
  ------------------------------------ 
  LDA X and C from self-consistent density 
  X Energy LDA        :       -132.759155110 Ha          -3612.560415597 eV
  C Energy LDA        :         -8.822544361 Ha           -240.073646879 eV
  ------------------------------------ 
  End decomposition of the XC Energy 
  ------------------------------------ 

------------------------------------------------------------

------------------------------------------------------------------------------
  Final output of selected total energy values:

  The following output summarizes some interesting total energy values
  at the end of a run (AFTER all relaxation, molecular dynamics, etc.).

  | Total energy of the DFT / Hartree-Fock s.c.f. calculation      :         -44220.195461864 eV
  | Final zero-broadening corrected energy (caution - metals only) :         -44220.195461864 eV
  | For reference only, the value of 1 Hartree used in FHI-aims is :             27.211384500 eV

  Before relying on these values, please be sure to understand exactly which
  total energy value is referred to by a given number. Different objects may
  all carry the same name 'total energy'. Definitions:

  Total energy of the DFT / Hartree-Fock s.c.f. calculation:
  | Note that this energy does not include ANY quantities calculated after the
  | s.c.f. cycle, in particular not ANY RPA, MP2, etc. many-body perturbation terms.

  Final zero-broadening corrected energy:
  | For metallic systems only, a broadening of the occupation numbers at the Fermi
  | level can be extrapolated back to zero broadening by an electron-gas inspired
  | formula. For all systems that are not real metals, this value can be
  | meaningless and should be avoided.

------------------------------------------------------------------------------
  Methods described in the following list of references were used in this FHI-aims run.
  If you publish the results, please make sure to cite these reference if they apply.
  FHI-aims is an academic code, and for our developers (often, Ph.D. students
  and postdocs), scientific credit in the community is essential.
  Thank you for helping us!

  For any use of FHI-aims, please cite:

    Volker Blum, Ralf Gehrke, Felix Hanke, Paula Havu, Ville Havu,
    Xinguo Ren, Karsten Reuter, and Matthias Scheffler
    'Ab initio molecular simulations with numeric atom-centered orbitals'
    Computer Physics Communications 180, 2175-2196 (2009)
    http://dx.doi.org/10.1016/j.cpc.2009.06.022


  The ELSI infrastructure was used in your run to solve the Kohn-Sham electronic structure.
  Please check out http://elsi-interchange.org to learn more.
  If scalability is important for your project, please acknowledge ELSI by citing:

    V. W-z. Yu, F. Corsetti, A. Garcia, W. P. Huhn, M. Jacquelin, W. Jia,
    B. Lange, L. Lin, J. Lu, W. Mi, A. Seifitokaldani, A. Vazquez-Mayagoitia,
    C. Yang, H. Yang, and V. Blum
    'ELSI: A unified software interface for Kohn-Sham electronic structure solvers'
    Computer Physics Communications 222, 267-285 (2018).
    http://dx.doi.org/10.1016/j.cpc.2017.09.007


  For the real-space grid partitioning and parallelization used in this calculation, please cite:

    Ville Havu, Volker Blum, Paula Havu, and Matthias Scheffler,
    'Efficient O(N) integration for all-electron electronic structure calculation'
    'using numerically tabulated basis functions'
    Journal of Computational Physics 228, 8367-8379 (2009).
    http://dx.doi.org/10.1016/j.jcp.2009.08.008

  Of course, there are many other important community references, e.g., those cited in the
  above references. Our list is limited to references that describe implementations in the
  FHI-aims code. The reason is purely practical (length of this list) - please credit others as well.

------------------------------------------------------------
          Leaving FHI-aims.
          Date     :  20220517, Time     :  112841.960

          Computational steps:
          | Number of self-consistency cycles          :           14
          | Number of SCF (re)initializations          :            1

          Detailed time accounting                     :  max(cpu_time)    wall_clock(cpu1)
          | Total time                                  :        1.914 s           4.576 s
          | Preparation time                            :        0.185 s           0.185 s
          | Boundary condition initalization            :        0.000 s           0.000 s
          | Grid partitioning                           :        0.037 s           0.036 s
          | Preloading free-atom quantities on grid     :        0.016 s           0.016 s
          | Free-atom superposition energy              :        0.005 s           0.004 s
          | Total time for integrations                 :        0.464 s           0.461 s
          | Total time for solution of K.-S. equations  :        0.068 s           0.069 s
          | Total time for density & force components   :        0.644 s           0.642 s
          | Total time for mixing                       :        0.064 s           0.038 s
          | Total time for Hartree multipole update     :        0.018 s           0.019 s
          | Total time for Hartree multipole sum        :        0.301 s           0.302 s
          | Total time for total energy evaluation      :        0.002 s           0.003 s
          | Total time NSC force correction             :        0.064 s           0.065 s
          | Total time for scaled ZORA corrections      :        0.000 s           0.000 s

          Partial memory accounting:
          | Residual value for overall tracked memory usage across tasks:     0.000000 MB (should be 0.000000 MB)
          | Peak values for overall tracked memory usage:
          |   Minimum:        2.872 MB (on task  1 after allocating hessian_basis_wave)
          |   Maximum:        3.047 MB (on task  2 after allocating hessian_basis_wave)
          |   Average:        2.970 MB
          | Largest tracked array allocation:
          |   Minimum:        1.390 MB (hessian_basis_wave on task  1)
          |   Maximum:        1.495 MB (hessian_basis_wave on task  2)
          |   Average:        1.452 MB
          Note:  These values currently only include a subset of arrays which are explicitly tracked.
          The "true" memory usage will be greater.

          Have a nice day.
------------------------------------------------------------
