------------------------------------------------------------
          Invoking FHI-aims ...

          When using FHI-aims, please cite the following reference:

            Volker Blum, Ralf Gehrke, Felix Hanke, Paula Havu,
            Ville Havu, Xinguo Ren, Karsten Reuter, and Matthias Scheffler,
            'Ab Initio Molecular Simulations with Numeric Atom-Centered Orbitals',
            Computer Physics Communications 180, 2175-2196 (2009)

          In addition, many other developments in FHI-aims are likely important for
          your particular application. A partial list of references is given at the end of
          this file. Thank you for giving credit to the authors of these developments.

          For any questions about FHI-aims, please visit our slack channel at

            https://fhi-aims.slack.com

          and our main development and support site at

            https://aims-git.rz-berlin.mpg.de .

          The latter site, in particular, has a wiki to collect information, as well
          as an issue tracker to log discussions, suggest improvements, and report issues
          or bugs. https://aims-git.rz-berlin.mpg.de is also the main development site
          of the project and all new and updated code versions can be obtained there.
          Please send an email to aims-coordinators@fhi-berlin.mpg.de and we will add
          you to these sites. They are for you and everyone is welcome there.

------------------------------------------------------------



  Date     :  20220517, Time     :  111456.038
  Time zero on CPU 1             :   0.408030000000000E-01  s.
  Internal wall clock time zero  :           422018096.038  s.

  FHI-aims created a unique identifier for this run for later identification
  aims_uuid : 03D18E9C-B232-4FE4-A6AA-E3188C7B1AE4

  Build configuration of the current instance of FHI-aims
  -------------------------------------------------------
  FHI-aims version      : 210914
  Commit number         : GITDIR-NOTFOUND
  CMake host system     : Linux-3.10.0-693.17.1.el7.x86_64
  CMake version         : 3.21.1
  Fortran compiler      : /shared/ucl/apps/intel/2018.Update3/impi/2018.3.222/intel64/bin/mpiifort (Intel) version 18.0.3.20180410
  Fortran compiler flags: -O3 -ip -fp-model precise
  C compiler            : /shared/ucl/apps/intel/2018.Update3/compilers_and_libraries_2018.3.222/linux/bin/intel64/icc (Intel) version 18.0.3.20180410
  C compiler flags      : -O3 -ip -fp-model precise -std=gnu99
  ELPA2 kernel          : AVX2
  Using MPI
  Using ScaLAPACK
  Using LibXC
  Using i-PI
  Using RLSY
  Linking against: /shared/ucl/apps/intel/2019.Update5/compilers_and_libraries_2019.5.281/linux/mkl/lib/intel64/libmkl_intel_lp64.so
                   /shared/ucl/apps/intel/2019.Update5/compilers_and_libraries_2019.5.281/linux/mkl/lib/intel64/libmkl_sequential.so
                   /shared/ucl/apps/intel/2019.Update5/compilers_and_libraries_2019.5.281/linux/mkl/lib/intel64/libmkl_core.so
                   /shared/ucl/apps/intel/2019.Update5/compilers_and_libraries_2019.5.281/linux/mkl/lib/intel64/libmkl_blacs_intelmpi_lp64.so
                   /shared/ucl/apps/intel/2019.Update5/compilers_and_libraries_2019.5.281/linux/mkl/lib/intel64/libmkl_scalapack_lp64.so

  Using       24 parallel tasks.
  Task        0 on host node-k98i-010 reporting.
  Task        1 on host node-k98i-010 reporting.
  Task        2 on host node-k98i-010 reporting.
  Task        3 on host node-k98i-010 reporting.
  Task        4 on host node-k98i-010 reporting.
  Task        5 on host node-k98i-010 reporting.
  Task        6 on host node-k98i-010 reporting.
  Task        7 on host node-k98i-010 reporting.
  Task        8 on host node-k98i-010 reporting.
  Task        9 on host node-k98i-010 reporting.
  Task       10 on host node-k98i-010 reporting.
  Task       11 on host node-k98i-010 reporting.
  Task       12 on host node-k98i-010 reporting.
  Task       13 on host node-k98i-010 reporting.
  Task       14 on host node-k98i-010 reporting.
  Task       15 on host node-k98i-010 reporting.
  Task       16 on host node-k98i-010 reporting.
  Task       17 on host node-k98i-010 reporting.
  Task       18 on host node-k98i-010 reporting.
  Task       19 on host node-k98i-010 reporting.
  Task       20 on host node-k98i-010 reporting.
  Task       21 on host node-k98i-010 reporting.
  Task       22 on host node-k98i-010 reporting.
  Task       23 on host node-k98i-010 reporting.

  Performing system and environment tests:
  | Environment variable OMP_NUM_THREADS correctly set to 1.
  | Checking for ScaLAPACK...
  | Testing pdtran()...
  | All pdtran() tests passed.

  Obtaining array dimensions for all initial allocations:
  
  -----------------------------------------------------------------------
  Parsing control.in (first pass over file, find array dimensions only).
  The contents of control.in will be repeated verbatim below
  unless switched off by setting 'verbatim_writeout .false.' .
  in the first line of control.in .
  -----------------------------------------------------------------------
  
  #########################################################################################  Physical model
  #########################################################################################
  xc                 pbesol
  spin               none
  relativistic       atomic_zora scalar
  charge             0.0
  #  SCF convergence
  occupation_type    gaussian 0.01
  mixer              pulay
  n_max_pulay        10
  charge_mix_param   0.5
  sc_accuracy_rho    1E-5
  sc_accuracy_eev    1E-3
  sc_accuracy_etot   1E-6
  sc_accuracy_forces 1E-4
  sc_iter_limit      1500
  #  Relaxation
  #relax_geometry   bfgs 1.e-3
  
  ################################################################################
  #
  #  FHI-aims code project
  #  VB, Fritz-Haber Institut, 2009
  #
  #  Suggested "light" defaults for Al atom (to be pasted into control.in file)
  #  Be sure to double-check any results obtained with these settings for post-processing,
  #  e.g., with the "tight" defaults and larger basis sets.
  #
  ################################################################################
    species        Al
  #     global species definitions
      nucleus             13
      mass                26.9815386
  #
      l_hartree           4
  #
      cut_pot             3.5          1.5  1.0
      basis_dep_cutoff    1e-4
  #
      radial_base         41 5.0
      radial_multiplier   1
      angular_grids       specified
        division   0.6594  110
        division   0.8170  194
        division   0.9059  302
  #      division   1.0363  434
  #      division   1.1443  590
  #      division   1.2621  770
  #      division   2.8177  974
  #      outer_grid   974
        outer_grid   302
  ################################################################################
  #
  #  Definition of "minimal" basis
  #
  ################################################################################
  #     valence basis states
      valence      3  s   2.
      valence      3  p   1.
  #     ion occupancy
      ion_occ      3  s   1.
      ion_occ      2  p   6.
  ################################################################################
  #
  #  Suggested additional basis functions. For production calculations,
  #  uncomment them one after another (the most important basis functions are
  #  listed first).
  #
  #  Constructed for dimers: 2.0 A, 2.5 A, 3.0 A, 3.75 A, 4.5 A
  #
  ################################################################################
  #  "First tier" - improvements: -199.47 meV to -10.63 meV
       ionic 3 d auto
       ionic 3 p auto
  #     hydro 4 f 4.7
       ionic 3 s auto
  #  "Second tier" - improvements: -5.35 meV to -1.57 meV
  #     hydro 5 g 7
  #     hydro 3 d 6
  #     hydro 2 s 11.6
  #     hydro 2 p 0.9
  #  "Third tier" - improvements: -0.63 meV to -0.20 meV
  #     hydro 5 f 7.6
  #     hydro 4 p 7.2
  #     hydro 4 s 3.7
  #     hydro 4 d 7.6
  #  "Fourth tier" - improvements: -0.17 meV to -0.08 meV
  #     hydro 4 d 13.6
  #     hydro 5 g 11.2
  #     hydro 4 d 0.9
  #     hydro 1 s 0.4
  #     hydro 4 p 0.1
  #     hydro 5 f 9.8
  #  Further basis functions that fell out of the optimization - noise level...
  #     hydro 4 p 5
  
  ################################################################################
  #
  #  FHI-aims code project
  #  VB, Fritz-Haber Institut, 2009
  #
  #  Suggested "light" defaults for F atom (to be pasted into control.in file)
  #  Be sure to double-check any results obtained with these settings for post-processing,
  #  e.g., with the "tight" defaults and larger basis sets.
  #
  ################################################################################
    species        F
  #     global species definitions
      nucleus             9
      mass                18.9984032
  #
      l_hartree           4
  #
      cut_pot             3.5  1.5  1.0
      basis_dep_cutoff    1e-4
  #
      radial_base         37 5.0
      radial_multiplier   1
      angular_grids specified
        division   0.4014  110
        division   0.5291  194
        division   0.6019  302
  #      division   0.6814  434
  #      division   0.7989  590
  #      division   0.8965  770
  #      division   1.3427  974
  #      outer_grid   974
        outer_grid   302
  ################################################################################
  #
  #  Definition of "minimal" basis
  #
  ################################################################################
  #     valence basis states
      valence      2  s   2.
      valence      2  p   5.
  #     ion occupancy
      ion_occ      2  s   1.
      ion_occ      2  p   4.
  ################################################################################
  #
  #  Suggested additional basis functions. For production calculations,
  #  uncomment them one after another (the most important basis functions are
  #  listed first).
  #
  #  Constructed for dimers: 1.2 A, 1.418 A, 1.75 A, 2.25 A, 3.25 A
  #
  ################################################################################
  #  "First tier" - improvements: -149.44 meV to -45.88 meV
       hydro 2 p 1.7
       hydro 3 d 7.4
       hydro 3 s 6.8
  #  "Second tier" - improvements: -12.96 meV to -1.56 meV
  #     hydro 4 f 11.2
  #     ionic 2 p auto
  #     hydro 1 s 0.75
  #     hydro 4 d 8.8
  #     hydro 5 g 16.8
  #  "Third tier" - improvements: -0.58 meV to -0.05 meV
  #     hydro 3 p 6.2
  #     hydro 3 s 3.2
  #     hydro 4 f 9.6
  #     hydro 3 s 19.6
  #     hydro 4 d 8.6
  #     hydro 5 g 14.4
  # Further basis functions: -0.05 meV and below
  #     hydro 3 p 4.2
  
  -----------------------------------------------------------------------
  Completed first pass over input file control.in .
  -----------------------------------------------------------------------
  
  
  -----------------------------------------------------------------------
  Parsing geometry.in (first pass over file, find array dimensions only).
  The contents of geometry.in will be repeated verbatim below
  unless switched off by setting 'verbatim_writeout .false.' .
  in the first line of geometry.in .
  -----------------------------------------------------------------------
  
  atom 1.276108062 -0.032604684 2.611421037 Al
  atom 1.438016800 1.110038200 0.396681000 Al
  atom -0.207139585 0.865543364 -2.176106673 Al
  atom -1.829635004 -0.511086944 -2.208172877 F
  atom 2.019383792 -0.236030354 0.612733913 F
  atom 0.088484584 1.924868454 -3.954069994 F
  atom -0.498053026 1.959232081 -0.894338295 F
  atom 2.585007753 2.422356109 -0.328891444 F
  atom 1.202189423 -0.023736872 -1.793106777 F
  atom 0.475954071 1.564047423 1.428608302 F
  atom 2.410428330 0.537592619 3.499233809 F
  atom 0.168092359 -1.053788859 2.768389586 F
  
  -----------------------------------------------------------------------
  Completed first pass over input file geometry.in .
  -----------------------------------------------------------------------
  

  Basic array size parameters:
  | Number of species                 :        2
  | Number of atoms                   :       12
  | Max. basis fn. angular momentum   :        2
  | Max. atomic/ionic basis occupied n:        3
  | Max. number of basis fn. types    :        3
  | Max. radial fns per species/type  :        5
  | Max. logarithmic grid size        :     1340
  | Max. radial integration grid size :       41
  | Max. angular integration grid size:      302
  | Max. angular grid division number :        8
  | Radial grid for Hartree potential :     1340
  | Number of spin channels           :        1

------------------------------------------------------------
          Reading file control.in.
------------------------------------------------------------
  XC: Using PBEsol gradient-corrected functionals.
  Spin treatment: No spin polarisation.
  Scalar relativistic treatment of kinetic energy: on-site free-atom approximation to ZORA.
  Charge =   0.000000E+00: Neutral system requested explicitly.
  Occupation type: Gaussian broadening, width =   0.100000E-01 eV.
  Using pulay charge density mixing.
  Pulay mixing - number of memorized iterations:   10
  Charge density mixing - mixing parameter:     0.5000
  Convergence accuracy of self-consistent charge density:  0.1000E-04
  Convergence accuracy of sum of eigenvalues:  0.1000E-02
  Convergence accuracy of total energy:  0.1000E-05
  Convergence accuracy of forces:  0.1000E-03
  Maximum number of s.-c. iterations  :  1500
 
  Reading configuration options for species Al                  .
  | Found nuclear charge :  13.0000
  | Found atomic mass :    26.9815386000000      amu
  | Found l_max for Hartree potential  :   4
  | Found cutoff potl. onset [A], width [A], scale factor :    3.50000    1.50000    1.00000
  | Threshold for basis-dependent cutoff potential is   0.100000E-03
  | Found data for basic radial integration grid :    41 points, outermost radius =    5.000 A
  | Found multiplier for basic radial grid :   1
  | Found angular grid specification: user-specified.
  | Specified grid contains     4 separate shells.
  | Check grid settings after all constraints further below.
  | Found free-atom valence shell :  3 s   2.000
  | Found free-atom valence shell :  3 p   1.000
  | Found free-ion valence shell :  3 s   1.000
  | Found free-ion valence shell :  2 p   6.000
  | Found ionic basis function :  3 d , default cutoff radius.
  | Found ionic basis function :  3 p , default cutoff radius.
  | Found ionic basis function :  3 s , default cutoff radius.
  Species Al                  : Missing cutoff potential type.
  Defaulting to exp(1/x)/(1-x)^2 type cutoff potential.
  Species Al: No 'logarithmic' tag. Using default grid for free atom:
  | Default logarithmic grid data [bohr] : 0.1000E-03 0.1000E+03 0.1012E+01
  | Will include ionic basis functions of  2.0-fold positive Al                   ion.
  Species Al: On-site basis accuracy parameter (for Gram-Schmidt orthonormalisation) not specified.
  Using default value basis_acc =  0.1000000E-03.
  Species Al                  : Using default innermost maximum threshold i_radial=  2 for radial functions.
  Species Al                  : Default cutoff onset for free atom density etc. : 0.35000000E+01 AA.
  Species Al                  : Basic radial grid will be enhanced according to radial_multiplier =   1, to contain    41 grid points.
 
  Reading configuration options for species F                   .
  | Found nuclear charge :   9.0000
  | Found atomic mass :    18.9984032000000      amu
  | Found l_max for Hartree potential  :   4
  | Found cutoff potl. onset [A], width [A], scale factor :    3.50000    1.50000    1.00000
  | Threshold for basis-dependent cutoff potential is   0.100000E-03
  | Found data for basic radial integration grid :    37 points, outermost radius =    5.000 A
  | Found multiplier for basic radial grid :   1
  | Found angular grid specification: user-specified.
  | Specified grid contains     4 separate shells.
  | Check grid settings after all constraints further below.
  | Found free-atom valence shell :  2 s   2.000
  | Found free-atom valence shell :  2 p   5.000
  | Found free-ion valence shell :  2 s   1.000
  | Found free-ion valence shell :  2 p   4.000
  | Found hydrogenic basis function :  2 p   1.700
  | Found hydrogenic basis function :  3 d   7.400
  | Found hydrogenic basis function :  3 s   6.800
  Species F                   : Missing cutoff potential type.
  Defaulting to exp(1/x)/(1-x)^2 type cutoff potential.
  Species F : No 'logarithmic' tag. Using default grid for free atom:
  | Default logarithmic grid data [bohr] : 0.1000E-03 0.1000E+03 0.1012E+01
  Species F : On-site basis accuracy parameter (for Gram-Schmidt orthonormalisation) not specified.
  Using default value basis_acc =  0.1000000E-03.
  Species F                   : Using default innermost maximum threshold i_radial=  2 for radial functions.
  Species F                   : Default cutoff onset for free atom density etc. : 0.35000000E+01 AA.
  Species F                   : Basic radial grid will be enhanced according to radial_multiplier =   1, to contain    37 grid points.
 
  Finished reading input file 'control.in'.
 
------------------------------------------------------------


------------------------------------------------------------
          Reading geometry description geometry.in.
------------------------------------------------------------
  | The smallest distance between any two atoms is         1.48208064 AA.
  | The first atom of this pair is atom number                      2 .
  | The second atom of this pair is atom number                    10 .
  Input structure read successfully.
  The structure contains       12 atoms,  and a total of        120.000 electrons.

  Input geometry:
  | No unit cell requested.
  | Atomic structure:
  |       Atom                x [A]            y [A]            z [A]
  |    1: Species Al            1.27610806       -0.03260468        2.61142104
  |    2: Species Al            1.43801680        1.11003820        0.39668100
  |    3: Species Al           -0.20713958        0.86554336       -2.17610667
  |    4: Species F            -1.82963500       -0.51108694       -2.20817288
  |    5: Species F             2.01938379       -0.23603035        0.61273391
  |    6: Species F             0.08848458        1.92486845       -3.95406999
  |    7: Species F            -0.49805303        1.95923208       -0.89433829
  |    8: Species F             2.58500775        2.42235611       -0.32889144
  |    9: Species F             1.20218942       -0.02373687       -1.79310678
  |   10: Species F             0.47595407        1.56404742        1.42860830
  |   11: Species F             2.41042833        0.53759262        3.49923381
  |   12: Species F             0.16809236       -1.05378886        2.76838959

 
  Finished reading input file 'control.in'.
 

------------------------------------------------------------
          Reading geometry description geometry.in.
------------------------------------------------------------
 
  Consistency checks for stacksize environment parameter are next.
 
  | Maximum stacksize for task 0: unlimited
  | Maximum stacksize for task 1: unlimited
  | Maximum stacksize for task 2: unlimited
  | Maximum stacksize for task 3: unlimited
  | Maximum stacksize for task 4: unlimited
  | Maximum stacksize for task 5: unlimited
  | Maximum stacksize for task 6: unlimited
  | Maximum stacksize for task 7: unlimited
  | Maximum stacksize for task 8: unlimited
  | Maximum stacksize for task 9: unlimited
  | Maximum stacksize for task 10: unlimited
  | Maximum stacksize for task 11: unlimited
  | Maximum stacksize for task 12: unlimited
  | Maximum stacksize for task 13: unlimited
  | Maximum stacksize for task 14: unlimited
  | Maximum stacksize for task 15: unlimited
  | Maximum stacksize for task 16: unlimited
  | Maximum stacksize for task 17: unlimited
  | Maximum stacksize for task 18: unlimited
  | Maximum stacksize for task 19: unlimited
  | Maximum stacksize for task 20: unlimited
  | Maximum stacksize for task 21: unlimited
  | Maximum stacksize for task 22: unlimited
  | Maximum stacksize for task 23: unlimited
  | Current stacksize for task 0: unlimited
  | Current stacksize for task 1: unlimited
  | Current stacksize for task 2: unlimited
  | Current stacksize for task 3: unlimited
  | Current stacksize for task 4: unlimited
  | Current stacksize for task 5: unlimited
  | Current stacksize for task 6: unlimited
  | Current stacksize for task 7: unlimited
  | Current stacksize for task 8: unlimited
  | Current stacksize for task 9: unlimited
  | Current stacksize for task 10: unlimited
  | Current stacksize for task 11: unlimited
  | Current stacksize for task 12: unlimited
  | Current stacksize for task 13: unlimited
  | Current stacksize for task 14: unlimited
  | Current stacksize for task 15: unlimited
  | Current stacksize for task 16: unlimited
  | Current stacksize for task 17: unlimited
  | Current stacksize for task 18: unlimited
  | Current stacksize for task 19: unlimited
  | Current stacksize for task 20: unlimited
  | Current stacksize for task 21: unlimited
  | Current stacksize for task 22: unlimited
  | Current stacksize for task 23: unlimited
 
  Consistency checks for the contents of control.in are next.
 
  MPI_IN_PLACE appears to work with this MPI implementation.
  | Keeping use_mpi_in_place .true. (see manual).
  Target number of points in a grid batch is not set. Defaulting to  100
  Method for grid partitioning is not set. Defaulting to parallel hash+maxmin partitioning.
  Batch size limit is not set. Defaulting to    200
  By default, will store active basis functions for each batch.
  If in need of memory, prune_basis_once .false. can be used to disable this option.
  communication_type for Hartree potential was not specified.
  Defaulting to calc_hartree .
  Pulay mixer: Number of initial linear mixing iterations not set.
  Defaulting to    0 iterations.
  Work space size for distributed Hartree potential not set.
  Defaulting to   0.200000E+03 MB.
  Algorithm-dependent basis array size parameters:
  | n_max_pulay                         :       10
  Presetting      1001 iterations before the initial mixing cycle
  is restarted anyway using the sc_init_iter criterion / keyword.
  Presetting a factor      1.000 between actual scf density residual
  and density convergence criterion sc_accuracy_rho below which sc_init_iter
  takes no effect.
  Geometry relaxation not requested: no relaxation will be performed.
  Forces evaluation will include force correction term due to incomplete self-consistency (default).
  Handling of forces: Unphysical translation and rotation will be removed from forces.
  No accuracy limit for integral partition fn. given. Defaulting to  0.1000E-14.
  No threshold value for u(r) in integrations given. Defaulting to  0.1000E-05.
  No accuracy for occupation numbers given. Defaulting to  0.1000E-12.
  No threshold value for occupation numbers given. Defaulting to  0.0000E+00.
  No accuracy for fermi level given. Defaulting to  0.1000E-19.
  Maximum # of iterations to find E_F not set. Defaulting to  200.
  Preferred method for the eigenvalue solver ('KS_method') not specified in 'control.in'.
  Calling BLACS routine to test compilation state
  Since ScaLAPACK support is enabled, defaulting to ELPA (via ELSI).
  Will not use alltoall communication since running on < 1024 CPUs.
  Threshold for basis singularities not set.
  Default threshold for basis singularities:  0.1000E-04
  partition_type (choice of integration weights) for integrals was not specified.
  | Using a version of the partition function of Stratmann and coworkers ('stratmann_sparse').
  | At each grid point, the set of atoms used to build the partition table is smoothly restricted to
  | only those atoms whose free-atom density would be non-zero at that grid point.
  Partitioning for Hartree potential was not defined. Using partition_type for integrals.
  | Adjusted default value of keyword multip_moments_threshold to:       0.10000000E-11
  | This value may affect high angular momentum components of the Hartree potential in periodic systems.
  No q(lm)/r^(l+1) cutoff set for long-range Hartree potential.
  | Using default value of  0.100000E-09 .
  | Verify using the multipole_threshold keyword.
  Defaulting to new monopole extrapolation.
  Density update method: automatic selection selected.
  Charge integration errors on the 3D integration grid will be compensated
  by explicit normalization and distribution of residual charges.
  Use the "compensate_multipole_errors" flag to change this behaviour.
  Set 'collect_eigenvectors' to be '.true.' for use_density_matrix .false.
 
  Consistency checks for the contents of geometry.in are next.
 
  Number of empty states per atom not set in control.in - providing a guess from actual geometry.
  | Total number of empty states used during s.c.f. cycle:       36
  If you use a very high smearing, use empty_states (per atom!) in control.in to increase this value.

  Structure-dependent array size parameters: 
  | Maximum number of distinct radial functions  :       14
  | Maximum number of basis functions            :      180
  | Number of Kohn-Sham states (occupied + empty):       96
------------------------------------------------------------

------------------------------------------------------------
          Preparing all fixed parts of the calculation.
------------------------------------------------------------
  Determining machine precision:
    2.225073858507201E-308
  Setting up grids for atomic and cluster calculations.

  Creating wave function, potential, and density for free atoms.

  Species: Al

  List of occupied orbitals and eigenvalues:
    n    l              occ      energy [Ha]    energy [eV]
    1    0           2.0000       -55.621123     -1513.5278
    2    0           2.0000        -3.957030      -107.6763
    3    0           2.0000        -0.272233        -7.4078
    2    1           6.0000        -2.540949       -69.1427
    3    1           1.0000        -0.083300        -2.2667


  Species: F

  List of occupied orbitals and eigenvalues:
    n    l              occ      energy [Ha]    energy [eV]
    1    0           2.0000       -24.399611      -663.9472
    2    0           2.0000        -1.098702       -29.8972
    2    1           5.0000        -0.408210       -11.1080


  Adding cutoff potential to free-atom effective potential.
  Creating fixed part of basis set: Ionic, confined, hydrogenic.
 
  Al                   ion:

  List of free ionic orbitals and eigenvalues:
    n    l      energy [Ha]    energy [eV]
    1    0       -56.418846     -1535.2349
    2    0        -4.732717      -128.7838
    3    0        -0.872690       -23.7471
    2    1        -3.317230       -90.2664


  List of ionic basis orbitals and eigenvalues:
    n    l      energy [Ha]    energy [eV]    outer radius [A]
    3    2        -0.346815        -9.4373       4.594041
    3    1        -0.631870       -17.1940       4.538221
    3    0        -0.872657       -23.7462       4.538221

 
  F                    hydrogenic:
 
  List of hydrogenic basis orbitals: 
    n    l      effective z      eigenvalue [eV]  inner max. [A]     outer max. [A]     outer radius [A]   
    2    1         1.700000        -9.7616           1.243167           1.243167           4.598524
    3    2         7.400000       -82.7828           0.642437           0.642437           3.305741
    3    0         6.800000       -69.9026           0.057798           1.022307           3.781556
 
  Creating atomic-like basis functions for current effective potential.

  Species Al                  :

  List of atomic basis orbitals and eigenvalues:
    n    l      energy [Ha]    energy [eV]    outer radius [A]
    1    0       -55.621123     -1513.5278       0.850197
    2    0        -3.957030      -107.6763       3.144911
    3    0        -0.272233        -7.4078       4.594041
    2    1        -2.540949       -69.1427       3.731966
    3    1        -0.083300        -2.2667       4.594041


  Species F                   :

  List of atomic basis orbitals and eigenvalues:
    n    l      energy [Ha]    energy [eV]    outer radius [A]
    1    0       -24.399611      -663.9472       1.258458
    2    0        -1.098702       -29.8972       4.325857
    2    1        -0.408210       -11.1080       4.487453

  Assembling full basis from fixed parts.
  | Species Al :   atomic orbital   1 s accepted.
  | Species Al :   atomic orbital   2 s accepted.
  | Species Al :    ionic orbital   3 s accepted.
  | Species Al :   atomic orbital   3 s accepted.
  | Species Al :   atomic orbital   2 p accepted.
  | Species Al :    ionic orbital   3 p accepted.
  | Species Al :   atomic orbital   3 p accepted.
  | Species Al :    ionic orbital   3 d accepted.
  | Species F :   atomic orbital   1 s accepted.
  | Species F :    hydro orbital   3 s accepted.
  | Species F :   atomic orbital   2 s accepted.
  | Species F :   atomic orbital   2 p accepted.
  | Species F :    hydro orbital   2 p accepted.
  | Species F :    hydro orbital   3 d accepted.
 
  Basis size parameters after reduction:
  | Total number of radial functions:       14
  | Total number of basis functions :      180
 
  Per-task memory consumption for arrays in subroutine allocate_ext:
  |           4.807768MB.
  Testing on-site integration grid accuracy.
  |  Species  Function  <phi|h_atom|phi> (log., in eV)  <phi|h_atom|phi> (rad., in eV)
           1        1              -1513.5277717935              -1513.5271881332
           1        2               -107.6762691836               -107.6762662489
           1        3                 -6.9467474784                 -6.9471269649
           1        4                  5.5771951849                  5.4862107220 ***
           1        5                -69.1427313144                -69.1427312731
           1        6                 -1.5197375330                 -1.5230432022
           1        7                  6.8210948310                  6.5529872240 ***
           1        8                  4.3216540965                  4.2851170187 ***
           2        9               -663.9471986398               -663.9470363334
           2       10                 16.8514011578                 16.8512525338
           2       11                -28.4490593856                -28.4490661472
           2       12                -11.1080115307                -11.1080620173
           2       13                  7.1940182175                  7.1685154137
           2       14                 44.8544281765                 44.8543763625
 * Note: Onsite integrals marked "***" above are less accurate than
 * onsite_accuracy_threshold =    0.03000 eV. Usually, this is harmless.
 * When in doubt, tighten the "radial" and/or "radial_multiplier" flags to check.

  Preparing densities etc. for the partition functions (integrals / Hartree potential).

  Preparations completed.
  max(cpu_time)          :      0.186 s.
  Wall clock time (cpu1) :      0.185 s.
------------------------------------------------------------

------------------------------------------------------------
          Begin self-consistency loop: Initialization.

          Date     :  20220517, Time     :  111504.780
------------------------------------------------------------

  Initializing index lists of integration centers etc. from given atomic structure:
  | Number of centers in hartree potential         :        12
  | Number of centers in hartree multipole         :        12
  | Number of centers in electron density summation:        12
  | Number of centers in basis integrals           :        12
  | Number of centers in integrals                 :        12
  | Number of centers in hamiltonian               :        12
  * Using 24 tasks for Scalapack Eigenvalue solver.
  Detailed listing of tasks and assigned k-points:
  (for non-periodic systems, the "k-point" denotes an internal label only)
   Task     0 k-point     1 on node-k98i-010
   Task     1 k-point     1 on node-k98i-010
   Task     2 k-point     1 on node-k98i-010
   Task     3 k-point     1 on node-k98i-010
   Task     4 k-point     1 on node-k98i-010
   Task     5 k-point     1 on node-k98i-010
   Task     6 k-point     1 on node-k98i-010
   Task     7 k-point     1 on node-k98i-010
   Task     8 k-point     1 on node-k98i-010
   Task     9 k-point     1 on node-k98i-010
   Task    10 k-point     1 on node-k98i-010
   Task    11 k-point     1 on node-k98i-010
   Task    12 k-point     1 on node-k98i-010
   Task    13 k-point     1 on node-k98i-010
   Task    14 k-point     1 on node-k98i-010
   Task    15 k-point     1 on node-k98i-010
   Task    16 k-point     1 on node-k98i-010
   Task    17 k-point     1 on node-k98i-010
   Task    18 k-point     1 on node-k98i-010
   Task    19 k-point     1 on node-k98i-010
   Task    20 k-point     1 on node-k98i-010
   Task    21 k-point     1 on node-k98i-010
   Task    22 k-point     1 on node-k98i-010
   Task    23 k-point     1 on node-k98i-010
  Tasks:    24 split into      6 X      4 BLACS grid
  Calculating block size based on n_basis =          180  max_nprow =            6  max_npcol =            4
  ScaLAPACK block size set to:           16
  Allocating        0.012 MB for ovlp
  Allocating        0.012 MB for ham
  Allocating        0.012 MB for eigenvec
  Required Scalapack workspace - INTEGER:            1  REAL:             1
  Partitioning the integration grid into batches with parallel hashing+maxmin method.
  | Number of batches:     1016
  | Maximal batch size:     195
  | Minimal batch size:      17
  | Average batch size:      90.472
  | Standard deviation of batch sizes:      26.775

  Integration load balanced across    24 MPI tasks.
  Work distribution over tasks is as follows:
  Task     0 has       3825 integration points.
  Task     1 has       3835 integration points.
  Task     2 has       3883 integration points.
  Task     3 has       3936 integration points.
  Task     4 has       3837 integration points.
  Task     5 has       3821 integration points.
  Task     6 has       3831 integration points.
  Task     7 has       3801 integration points.
  Task     8 has       3795 integration points.
  Task     9 has       3841 integration points.
  Task    10 has       3798 integration points.
  Task    11 has       3941 integration points.
  Task    12 has       3775 integration points.
  Task    13 has       3793 integration points.
  Task    14 has       3826 integration points.
  Task    15 has       3794 integration points.
  Task    16 has       3804 integration points.
  Task    17 has       3788 integration points.
  Task    18 has       3869 integration points.
  Task    19 has       3846 integration points.
  Task    20 has       3798 integration points.
  Task    21 has       3838 integration points.
  Task    22 has       3804 integration points.
  Task    23 has       3841 integration points.
  Initializing partition tables, free-atom densities, potentials, etc. across the integration grid (initialize_grid_storage).
  | initialize_grid_storage: Actual outermost partition radius vs. multipole_radius_free
  | (-- VB: in principle, multipole_radius_free should be larger, hence this output)
  | Species        1: Confinement radius =              4.999999999999999 AA, multipole_radius_free =              5.004487022111096 AA.
  | Species        1: outer_partition_radius set to              5.004487022111096 AA .
  | Species        2: Confinement radius =              4.999999999999999 AA, multipole_radius_free =              5.009370088163274 AA.
  | Species        2: outer_partition_radius set to              5.009370088163274 AA .
  | The sparse table of interatomic distances needs          1.64 kbyte instead of         1.15 kbyte of memory.
  | Using the partition_type stratmann_smoother will reduce your memory usage.
  | Net number of integration points:    91920
  | of which are non-zero points    :    85760
  Renormalizing the initial density to the exact electron count on the 3D integration grid.
  | Initial density: Formal number of electrons (from input files) :     120.0000000000
  | Integrated number of electrons on 3D grid     :     119.9999738248
  | Charge integration error                      :      -0.0000261752
  | Normalization factor for density and gradient :       1.0000002181
  Renormalizing the free-atom superposition density to the exact electron count on the 3D integration grid.
  | Formal number of electrons (from input files) :     120.0000000000
  | Integrated number of electrons on 3D grid     :     119.9999738248
  | Charge integration error                      :      -0.0000261752
  | Normalization factor for density and gradient :       1.0000002181
  Obtaining max. number of non-zero basis functions in each batch (get_n_compute_maxes).
  | Maximal number of non-zero basis functions:      167 in task     0
  | Maximal number of non-zero basis functions:      159 in task     1
  | Maximal number of non-zero basis functions:      159 in task     2
  | Maximal number of non-zero basis functions:      159 in task     3
  | Maximal number of non-zero basis functions:      158 in task     4
  | Maximal number of non-zero basis functions:      158 in task     5
  | Maximal number of non-zero basis functions:      165 in task     6
  | Maximal number of non-zero basis functions:      160 in task     7
  | Maximal number of non-zero basis functions:      160 in task     8
  | Maximal number of non-zero basis functions:      159 in task     9
  | Maximal number of non-zero basis functions:      160 in task    10
  | Maximal number of non-zero basis functions:      165 in task    11
  | Maximal number of non-zero basis functions:      161 in task    12
  | Maximal number of non-zero basis functions:      163 in task    13
  | Maximal number of non-zero basis functions:      163 in task    14
  | Maximal number of non-zero basis functions:      160 in task    15
  | Maximal number of non-zero basis functions:      163 in task    16
  | Maximal number of non-zero basis functions:      163 in task    17
  | Maximal number of non-zero basis functions:      159 in task    18
  | Maximal number of non-zero basis functions:      161 in task    19
  | Maximal number of non-zero basis functions:      161 in task    20
  | Maximal number of non-zero basis functions:      163 in task    21
  | Maximal number of non-zero basis functions:      158 in task    22
  | Maximal number of non-zero basis functions:      160 in task    23
  Selecting the method for density update.
  Loop over occupied states selected for charge density update.
  Allocating        0.132 MB for KS_eigenvector
  Integrating Hamiltonian matrix: batch-based integration.
  Time summed over all CPUs for integration: real work        0.680 s, elapsed        0.722 s
  Integrating overlap matrix.
  Time summed over all CPUs for integration: real work        0.259 s, elapsed        0.279 s
  Deallocating overlap matrix.

  Updating Kohn-Sham eigenvalues and eigenvectors using ELSI and the ELPA eigensolver.
  Overlap matrix is not singular
  | Lowest and highest eigenvalues :  0.3207E-02,  0.4861E+01
  Finished singularity check of overlap matrix
  | Time :     0.004 s
  Starting ELPA eigensolver
  Finished Cholesky decomposition
  | Time :     0.002 s
  Finished transformation to standard eigenproblem
  | Time :     0.000 s
  Finished solving standard eigenproblem
  | Time :     0.004 s
  Finished back-transformation of eigenvectors
  | Time :     0.000 s

  Obtaining occupation numbers and chemical potential using ELSI.
  | Chemical potential (Fermi level):    -7.63245561 eV
  Writing Kohn-Sham eigenvalues.

  State    Occupation    Eigenvalue [Ha]    Eigenvalue [eV]
      1       2.00000         -55.496590        -1510.13906
      2       2.00000         -55.492982        -1510.04087
      3       2.00000         -55.483448        -1509.78144
      4       2.00000         -24.420843         -664.52496
      5       2.00000         -24.420843         -664.52494
      6       2.00000         -24.396805         -663.87084
      7       2.00000         -24.387787         -663.62545
      8       2.00000         -24.359961         -662.86827
      9       2.00000         -24.359961         -662.86827
     10       2.00000         -24.332998         -662.13457
     11       2.00000         -24.318441         -661.73845
     12       2.00000         -24.316582         -661.68785
     13       2.00000          -3.968932         -108.00013
     14       2.00000          -3.962839         -107.83433
     15       2.00000          -3.948671         -107.44882
     16       2.00000          -2.568416          -69.89016
     17       2.00000          -2.562704          -69.73472
     18       2.00000          -2.562402          -69.72651
     19       2.00000          -2.554993          -69.52491
     20       2.00000          -2.553814          -69.49281
     21       2.00000          -2.549899          -69.38628
     22       2.00000          -2.542103          -69.17415
     23       2.00000          -2.540847          -69.13997
     24       2.00000          -2.538815          -69.08467
     25       2.00000          -1.264406          -34.40625
     26       2.00000          -1.248306          -33.96815
     27       2.00000          -1.223227          -33.28570
     28       2.00000          -1.209598          -32.91483
     29       2.00000          -1.181393          -32.14733
     30       2.00000          -1.173839          -31.94179
     31       2.00000          -1.138349          -30.97606
     32       2.00000          -1.116619          -30.38476
     33       2.00000          -1.113709          -30.30556
     34       2.00000          -0.600178          -16.33167
     35       2.00000          -0.591474          -16.09482
     36       2.00000          -0.571903          -15.56227
     37       2.00000          -0.556597          -15.14577
     38       2.00000          -0.554707          -15.09435
     39       2.00000          -0.546684          -14.87602
     40       2.00000          -0.537896          -14.63690
     41       2.00000          -0.536381          -14.59567
     42       2.00000          -0.533822          -14.52603
     43       2.00000          -0.513309          -13.96784
     44       2.00000          -0.511651          -13.92273
     45       2.00000          -0.504928          -13.73980
     46       2.00000          -0.500617          -13.62247
     47       2.00000          -0.500518          -13.61978
     48       2.00000          -0.496724          -13.51656
     49       2.00000          -0.483867          -13.16670
     50       2.00000          -0.476592          -12.96873
     51       2.00000          -0.472193          -12.84903
     52       2.00000          -0.470123          -12.79269
     53       2.00000          -0.454911          -12.37876
     54       2.00000          -0.445072          -12.11103
     55       2.00000          -0.442463          -12.04003
     56       2.00000          -0.442155          -12.03165
     57       2.00000          -0.427179          -11.62414
     58       2.00000          -0.425812          -11.58692
     59       2.00000          -0.423078          -11.51253
     60       2.00000          -0.422409          -11.49435
     61       0.00000          -0.153973           -4.18981
     62       0.00000          -0.121844           -3.31555
     63       0.00000          -0.072455           -1.97161
     64       0.00000          -0.039530           -1.07565
     65       0.00000          -0.028680           -0.78043
     66       0.00000          -0.015727           -0.42795
     67       0.00000           0.010148            0.27615
     68       0.00000           0.018820            0.51211
     69       0.00000           0.053667            1.46035
     70       0.00000           0.073735            2.00644
     71       0.00000           0.079840            2.17256
     72       0.00000           0.095323            2.59388
     73       0.00000           0.128714            3.50249
     74       0.00000           0.153934            4.18876
     75       0.00000           0.167534            4.55884
     76       0.00000           0.169322            4.60750
     77       0.00000           0.180160            4.90240
     78       0.00000           0.183747            5.00002
     79       0.00000           0.190325            5.17901
     80       0.00000           0.201731            5.48938
     81       0.00000           0.203319            5.53260
     82       0.00000           0.221684            6.03234
     83       0.00000           0.224046            6.09660
     84       0.00000           0.229121            6.23471
     85       0.00000           0.235079            6.39683
     86       0.00000           0.259038            7.04877
     87       0.00000           0.272872            7.42522
     88       0.00000           0.280544            7.63400
     89       0.00000           0.281701            7.66546
     90       0.00000           0.292685            7.96436
     91       0.00000           0.304086            8.27460
     92       0.00000           0.331121            9.01025
     93       0.00000           0.351601            9.56756
     94       0.00000           0.353232            9.61193
     95       0.00000           0.363895            9.90208
     96       0.00000           0.374249           10.18383

  Highest occupied state (VBM) at    -11.49434565 eV
  | Occupation number:      2.00000000

  Lowest unoccupied state (CBM) at    -4.18981130 eV
  | Occupation number:      0.00000000

  Overall HOMO-LUMO gap:      7.30453435 eV.
  Calculating total energy contributions from superposition of free atom densities.

  Total energy components:
  | Sum of eigenvalues            :        -889.50873477 Ha      -24204.76419803 eV
  | XC energy correction          :        -144.45797921 Ha       -3930.90161634 eV
  | XC potential correction       :         188.10009071 Ha        5118.46389288 eV
  | Free-atom electrostatic energy:        -779.32125152 Ha      -21206.41022421 eV
  | Hartree energy correction     :           0.00000000 Ha           0.00000000 eV
  | Entropy correction            :           0.00000000 Ha           0.00000000 eV
  | ---------------------------
  | Total energy                  :       -1625.18787479 Ha      -44223.61214571 eV
  | Total energy, T -> 0          :       -1625.18787479 Ha      -44223.61214571 eV  <-- do not rely on this value for anything but (periodic) metals
  | Electronic free energy        :       -1625.18787479 Ha      -44223.61214571 eV

  Derived energy quantities:
  | Kinetic energy                :        1628.16419058 Ha       44304.60181909 eV
  | Electrostatic energy          :       -3108.89408617 Ha      -84597.31234846 eV
  | Energy correction for multipole
  | error in Hartree potential    :           0.00000000 Ha           0.00000000 eV
  | Sum of eigenvalues per atom                           :       -2017.06368317 eV
  | Total energy (T->0) per atom                          :       -3685.30101214 eV  <-- do not rely on this value for anything but (periodic) metals
  | Electronic free energy per atom                       :       -3685.30101214 eV
  Initialize hartree_potential_storage
  Max. number of atoms included in rho_multipole:           12

  End scf initialization - timings             :  max(cpu_time)    wall_clock(cpu1)
  | Time for scf. initialization                :        0.109 s           0.109 s
  | Boundary condition initialization           :        0.000 s           0.000 s
  | Integration                                 :        0.043 s           0.043 s
  | Solution of K.-S. eqns.                     :        0.011 s           0.011 s
  | Grid partitioning                           :        0.034 s           0.034 s
  | Preloading free-atom quantities on grid     :        0.015 s           0.015 s
  | Free-atom superposition energy              :        0.005 s           0.005 s
  | Total energy evaluation                     :        0.000 s           0.000 s

  Partial memory accounting:
  | Current value for overall tracked memory usage:
  |   Minimum:        0.273 MB (on task 23)
  |   Maximum:        0.292 MB (on task  0)
  |   Average:        0.287 MB
  | Peak value for overall tracked memory usage:
  |   Minimum:        1.302 MB (on task 22 after allocating wave)
  |   Maximum:        1.378 MB (on task  0 after allocating wave)
  |   Average:        1.332 MB
  | Largest tracked array allocation so far:
  |   Minimum:        0.235 MB (H_times_psi on task  4)
  |   Maximum:        0.451 MB (all_coords on task 14)
  |   Average:        0.261 MB
  Note:  These values currently only include a subset of arrays which are explicitly tracked.
  The "true" memory usage will be greater.
------------------------------------------------------------
  Evaluating new KS density.
  Integration grid: deviation in total charge (<rho> - N_e) =   7.105427E-14

  Time for density update prior                :  max(cpu_time)    wall_clock(cpu1)
  | self-consistency iterative process          :        0.027 s           0.027 s

------------------------------------------------------------
          Begin self-consistency iteration #    1

  Date     :  20220517, Time     :  111504.917
------------------------------------------------------------
  Pulay mixing of updated and previous charge densities.
  Renormalizing the density to the exact electron count on the 3D integration grid.
  | Formal number of electrons (from input files) :     120.0000000000
  | Integrated number of electrons on 3D grid     :     120.0000000000
  | Charge integration error                      :       0.0000000000
  | Normalization factor for density and gradient :       1.0000000000

  Evaluating partitioned Hartree potential by multipole expansion.
  | Original multipole sum: apparent total charge =   0.488757E-13
  | Sum of charges compensated after spline to logarithmic grids =   0.109088E-03
  | Analytical far-field extrapolation by fixed multipoles:
  | Hartree multipole sum: apparent total charge =   0.510895E-13
  Summing up the Hartree potential.
  Time summed over all CPUs for potential: real work        0.380 s, elapsed        0.394 s
  | RMS charge density error from multipole expansion :   0.127133E-01

  Integrating Hamiltonian matrix: batch-based integration.
  Time summed over all CPUs for integration: real work        0.634 s, elapsed        0.672 s

  Updating Kohn-Sham eigenvalues and eigenvectors using ELSI and the ELPA eigensolver.
  Starting ELPA eigensolver
  Finished transformation to standard eigenproblem
  | Time :     0.001 s
  Finished solving standard eigenproblem
  | Time :     0.003 s
  Finished back-transformation of eigenvectors
  | Time :     0.000 s

  Obtaining occupation numbers and chemical potential using ELSI.
  | Chemical potential (Fermi level):    -6.05405936 eV
  Writing Kohn-Sham eigenvalues.

  State    Occupation    Eigenvalue [Ha]    Eigenvalue [eV]
      1       2.00000         -55.665014        -1514.72209
      2       2.00000         -55.631681        -1513.81505
      3       2.00000         -55.603504        -1513.04833
      4       2.00000         -24.274204         -660.53470
      5       2.00000         -24.274193         -660.53440
      6       2.00000         -24.170212         -657.70493
      7       2.00000         -24.166008         -657.59052
      8       2.00000         -24.150109         -657.15790
      9       2.00000         -24.150103         -657.15774
     10       2.00000         -24.055932         -654.59520
     11       2.00000         -23.973362         -652.34836
     12       2.00000         -23.972555         -652.32641
     13       2.00000          -4.118376         -112.06672
     14       2.00000          -4.093321         -111.38493
     15       2.00000          -4.043965         -110.04189
     16       2.00000          -2.712277          -73.80481
     17       2.00000          -2.711141          -73.77391
     18       2.00000          -2.709474          -73.72854
     19       2.00000          -2.688396          -73.15496
     20       2.00000          -2.687268          -73.12428
     21       2.00000          -2.682409          -72.99207
     22       2.00000          -2.637493          -71.76983
     23       2.00000          -2.636927          -71.75442
     24       2.00000          -2.635456          -71.71440
     25       2.00000          -1.245579          -33.89392
     26       2.00000          -1.224832          -33.32936
     27       2.00000          -1.147584          -31.22735
     28       2.00000          -1.135760          -30.90561
     29       2.00000          -1.093439          -29.75399
     30       2.00000          -1.082540          -29.45740
     31       2.00000          -0.999186          -27.18923
     32       2.00000          -0.918334          -24.98914
     33       2.00000          -0.916661          -24.94361
     34       2.00000          -0.597604          -16.26163
     35       2.00000          -0.579435          -15.76722
     36       2.00000          -0.555151          -15.10643
     37       2.00000          -0.539622          -14.68385
     38       2.00000          -0.520332          -14.15894
     39       2.00000          -0.508595          -13.83958
     40       2.00000          -0.494926          -13.46762
     41       2.00000          -0.467847          -12.73078
     42       2.00000          -0.465138          -12.65706
     43       2.00000          -0.447678          -12.18194
     44       2.00000          -0.444770          -12.10282
     45       2.00000          -0.431357          -11.73783
     46       2.00000          -0.428835          -11.66919
     47       2.00000          -0.425357          -11.57454
     48       2.00000          -0.423113          -11.51348
     49       2.00000          -0.400222          -10.89058
     50       2.00000          -0.382897          -10.41917
     51       2.00000          -0.380932          -10.36570
     52       2.00000          -0.362222           -9.85657
     53       2.00000          -0.313177           -8.52199
     54       2.00000          -0.309572           -8.42387
     55       2.00000          -0.301311           -8.19908
     56       2.00000          -0.271888           -7.39845
     57       2.00000          -0.243116           -6.61551
     58       2.00000          -0.239828           -6.52605
     59       2.00000          -0.234656           -6.38531
     60       2.00000          -0.232533           -6.32754
     61       0.00000          -0.187782           -5.10979
     62       0.00000          -0.112785           -3.06904
     63       0.00000          -0.077315           -2.10385
     64       0.00000          -0.073089           -1.98886
     65       0.00000          -0.051223           -1.39385
     66       0.00000          -0.032576           -0.88643
     67       0.00000           0.017432            0.47435
     68       0.00000           0.033750            0.91838
     69       0.00000           0.045773            1.24556
     70       0.00000           0.061579            1.67566
     71       0.00000           0.077779            2.11648
     72       0.00000           0.077846            2.11829
     73       0.00000           0.095555            2.60018
     74       0.00000           0.135180            3.67843
     75       0.00000           0.158781            4.32064
     76       0.00000           0.166755            4.53765
     77       0.00000           0.166820            4.53941
     78       0.00000           0.172561            4.69561
     79       0.00000           0.175658            4.77989
     80       0.00000           0.205057            5.57987
     81       0.00000           0.215723            5.87013
     82       0.00000           0.219998            5.98645
     83       0.00000           0.232397            6.32383
     84       0.00000           0.235298            6.40278
     85       0.00000           0.242019            6.58567
     86       0.00000           0.256528            6.98049
     87       0.00000           0.258757            7.04112
     88       0.00000           0.268489            7.30595
     89       0.00000           0.289524            7.87836
     90       0.00000           0.297363            8.09166
     91       0.00000           0.298301            8.11718
     92       0.00000           0.340633            9.26909
     93       0.00000           0.344411            9.37189
     94       0.00000           0.356190            9.69243
     95       0.00000           0.376785           10.25285
     96       0.00000           0.379559           10.32832

  Highest occupied state (VBM) at     -6.32754455 eV
  | Occupation number:      2.00000000

  Lowest unoccupied state (CBM) at    -5.10979491 eV
  | Occupation number:      0.00000000

  Overall HOMO-LUMO gap:      1.21774964 eV.

  Total energy components:
  | Sum of eigenvalues            :        -882.41881138 Ha      -24011.83756662 eV
  | XC energy correction          :        -145.98010175 Ha       -3972.32067797 eV
  | XC potential correction       :         190.10131005 Ha        5172.91984160 eV
  | Free-atom electrostatic energy:        -779.32125152 Ha      -21206.41022421 eV
  | Hartree energy correction     :          -7.29973791 Ha        -198.63597514 eV
  | Entropy correction            :           0.00000000 Ha           0.00000000 eV
  | ---------------------------
  | Total energy                  :       -1624.91859252 Ha      -44216.28460234 eV
  | Total energy, T -> 0          :       -1624.91859252 Ha      -44216.28460234 eV  <-- do not rely on this value for anything but (periodic) metals
  | Electronic free energy        :       -1624.91859252 Ha      -44216.28460234 eV

  Derived energy quantities:
  | Kinetic energy                :        1636.17862152 Ha       44522.68558079 eV
  | Electrostatic energy          :       -3115.11711229 Ha      -84766.64950516 eV
  | Energy correction for multipole
  | error in Hartree potential    :           0.05489622 Ha           1.49380227 eV
  | Sum of eigenvalues per atom                           :       -2000.98646388 eV
  | Total energy (T->0) per atom                          :       -3684.69038353 eV  <-- do not rely on this value for anything but (periodic) metals
  | Electronic free energy per atom                       :       -3684.69038353 eV
  Evaluating new KS density.
  Integration grid: deviation in total charge (<rho> - N_e) =   1.421085E-14

  Self-consistency convergence accuracy:
  | Change of charge density      :  0.6559E+00
  | Change of sum of eigenvalues  :  0.1929E+03 eV
  | Change of total energy        :  0.7328E+01 eV


------------------------------------------------------------
  End self-consistency iteration #     1       :  max(cpu_time)    wall_clock(cpu1)
  | Time for this iteration                     :        0.078 s           0.078 s
  | Charge density update                       :        0.026 s           0.026 s
  | Density mixing                              :        0.001 s           0.000 s
  | Hartree multipole update                    :        0.001 s           0.002 s
  | Hartree multipole summation                 :        0.017 s           0.017 s
  | Integration                                 :        0.028 s           0.028 s
  | Solution of K.-S. eqns.                     :        0.004 s           0.004 s
  | Total energy evaluation                     :        0.000 s           0.000 s

  Partial memory accounting:
  | Current value for overall tracked memory usage:
  |   Minimum:        0.273 MB (on task 23)
  |   Maximum:        0.292 MB (on task  0)
  |   Average:        0.287 MB
  | Peak value for overall tracked memory usage:
  |   Minimum:        1.302 MB (on task 22 after allocating wave)
  |   Maximum:        1.378 MB (on task  0 after allocating wave)
  |   Average:        1.332 MB
  | Largest tracked array allocation so far:
  |   Minimum:        0.705 MB (gradient_basis_wave on task  4)
  |   Maximum:        0.745 MB (gradient_basis_wave on task  0)
  |   Average:        0.719 MB
  Note:  These values currently only include a subset of arrays which are explicitly tracked.
  The "true" memory usage will be greater.
------------------------------------------------------------

------------------------------------------------------------
          Begin self-consistency iteration #    2

  Date     :  20220517, Time     :  111505.000
------------------------------------------------------------
  Pulay mixing of updated and previous charge densities.
  Renormalizing the density to the exact electron count on the 3D integration grid.
  | Formal number of electrons (from input files) :     120.0000000000
  | Integrated number of electrons on 3D grid     :     120.0000000000
  | Charge integration error                      :      -0.0000000000
  | Normalization factor for density and gradient :       1.0000000000

  Evaluating partitioned Hartree potential by multipole expansion.
  | Original multipole sum: apparent total charge =  -0.260982E-13
  | Sum of charges compensated after spline to logarithmic grids =   0.648585E-04
  | Analytical far-field extrapolation by fixed multipoles:
  | Hartree multipole sum: apparent total charge =  -0.272789E-13
  Summing up the Hartree potential.
  Time summed over all CPUs for potential: real work        0.379 s, elapsed        0.393 s
  | RMS charge density error from multipole expansion :   0.147860E-01

  Integrating Hamiltonian matrix: batch-based integration.
  Time summed over all CPUs for integration: real work        0.634 s, elapsed        0.674 s

  Updating Kohn-Sham eigenvalues and eigenvectors using ELSI and the ELPA eigensolver.
  Starting ELPA eigensolver
  Finished transformation to standard eigenproblem
  | Time :     0.001 s
  Finished solving standard eigenproblem
  | Time :     0.003 s
  Finished back-transformation of eigenvectors
  | Time :     0.000 s

  Obtaining occupation numbers and chemical potential using ELSI.
  | Chemical potential (Fermi level):    -6.30999139 eV
  Highest occupied state (VBM) at     -7.78367981 eV
  | Occupation number:      2.00000000

  Lowest unoccupied state (CBM) at    -5.40187271 eV
  | Occupation number:      0.00000000

  Overall HOMO-LUMO gap:      2.38180709 eV.

  Checking to see if s.c.f. parameters should be adjusted.

  Total energy components:
  | Sum of eigenvalues            :        -885.72056094 Ha      -24101.68274342 eV
  | XC energy correction          :        -145.45309268 Ha       -3957.98003156 eV
  | XC potential correction       :         189.40786967 Ha        5154.05036896 eV
  | Free-atom electrostatic energy:        -779.32125152 Ha      -21206.41022421 eV
  | Hartree energy correction     :          -3.75480790 Ha        -102.17352136 eV
  | Entropy correction            :           0.00000000 Ha           0.00000000 eV
  | ---------------------------
  | Total energy                  :       -1624.84184337 Ha      -44214.19615159 eV
  | Total energy, T -> 0          :       -1624.84184337 Ha      -44214.19615159 eV  <-- do not rely on this value for anything but (periodic) metals
  | Electronic free energy        :       -1624.84184337 Ha      -44214.19615159 eV

  Derived energy quantities:
  | Kinetic energy                :        1632.13106263 Ha       44412.54589964 eV
  | Electrostatic energy          :       -3111.51981332 Ha      -84668.76201967 eV
  | Energy correction for multipole
  | error in Hartree potential    :           0.05857424 Ha           1.59388607 eV
  | Sum of eigenvalues per atom                           :       -2008.47356195 eV
  | Total energy (T->0) per atom                          :       -3684.51634597 eV  <-- do not rely on this value for anything but (periodic) metals
  | Electronic free energy per atom                       :       -3684.51634597 eV
  Evaluating new KS density.
  Integration grid: deviation in total charge (<rho> - N_e) =   2.842171E-14

  Self-consistency convergence accuracy:
  | Change of charge density      :  0.5168E+00
  | Change of sum of eigenvalues  : -0.8985E+02 eV
  | Change of total energy        :  0.2088E+01 eV


------------------------------------------------------------
  End self-consistency iteration #     2       :  max(cpu_time)    wall_clock(cpu1)
  | Time for this iteration                     :        0.081 s           0.079 s
  | Charge density update                       :        0.026 s           0.026 s
  | Density mixing                              :        0.004 s           0.002 s
  | Hartree multipole update                    :        0.001 s           0.001 s
  | Hartree multipole summation                 :        0.017 s           0.017 s
  | Integration                                 :        0.028 s           0.028 s
  | Solution of K.-S. eqns.                     :        0.004 s           0.005 s
  | Total energy evaluation                     :        0.000 s           0.000 s

  Partial memory accounting:
  | Current value for overall tracked memory usage:
  |   Minimum:        0.274 MB (on task 23)
  |   Maximum:        0.293 MB (on task  0)
  |   Average:        0.288 MB
  | Peak value for overall tracked memory usage:
  |   Minimum:        1.302 MB (on task 22 after allocating wave)
  |   Maximum:        1.378 MB (on task  0 after allocating wave)
  |   Average:        1.332 MB
  | Largest tracked array allocation so far:
  |   Minimum:        0.705 MB (gradient_basis_wave on task  4)
  |   Maximum:        0.745 MB (gradient_basis_wave on task  0)
  |   Average:        0.719 MB
  Note:  These values currently only include a subset of arrays which are explicitly tracked.
  The "true" memory usage will be greater.
------------------------------------------------------------

------------------------------------------------------------
          Begin self-consistency iteration #    3

  Date     :  20220517, Time     :  111505.085
------------------------------------------------------------
  Pulay mixing of updated and previous charge densities.
  Renormalizing the density to the exact electron count on the 3D integration grid.
  | Formal number of electrons (from input files) :     120.0000000000
  | Integrated number of electrons on 3D grid     :     120.0000000000
  | Charge integration error                      :       0.0000000000
  | Normalization factor for density and gradient :       1.0000000000

  Evaluating partitioned Hartree potential by multipole expansion.
  | Original multipole sum: apparent total charge =   0.113273E-13
  | Sum of charges compensated after spline to logarithmic grids =   0.814624E-04
  | Analytical far-field extrapolation by fixed multipoles:
  | Hartree multipole sum: apparent total charge =   0.117577E-13
  Summing up the Hartree potential.
  Time summed over all CPUs for potential: real work        0.379 s, elapsed        0.393 s
  | RMS charge density error from multipole expansion :   0.189144E-01

  Integrating Hamiltonian matrix: batch-based integration.
  Time summed over all CPUs for integration: real work        0.633 s, elapsed        0.672 s

  Updating Kohn-Sham eigenvalues and eigenvectors using ELSI and the ELPA eigensolver.
  Starting ELPA eigensolver
  Finished transformation to standard eigenproblem
  | Time :     0.001 s
  Finished solving standard eigenproblem
  | Time :     0.003 s
  Finished back-transformation of eigenvectors
  | Time :     0.000 s

  Obtaining occupation numbers and chemical potential using ELSI.
  | Chemical potential (Fermi level):    -6.45413840 eV
  Highest occupied state (VBM) at     -6.83400630 eV
  | Occupation number:      2.00000000

  Lowest unoccupied state (CBM) at    -5.79110746 eV
  | Occupation number:      0.00000000

  Overall HOMO-LUMO gap:      1.04289884 eV.

  Total energy components:
  | Sum of eigenvalues            :        -886.47678222 Ha      -24122.26057119 eV
  | XC energy correction          :        -145.44571563 Ha       -3957.77929191 eV
  | XC potential correction       :         189.39726415 Ha        5153.76177814 eV
  | Free-atom electrostatic energy:        -779.32125152 Ha      -21206.41022421 eV
  | Hartree energy correction     :          -2.99187547 Ha         -81.41307384 eV
  | Entropy correction            :           0.00000000 Ha           0.00000000 eV
  | ---------------------------
  | Total energy                  :       -1624.83836069 Ha      -44214.10138301 eV
  | Total energy, T -> 0          :       -1624.83836069 Ha      -44214.10138301 eV  <-- do not rely on this value for anything but (periodic) metals
  | Electronic free energy        :       -1624.83836069 Ha      -44214.10138301 eV

  Derived energy quantities:
  | Kinetic energy                :        1630.97352665 Ha       44381.04774292 eV
  | Electrostatic energy          :       -3110.36617170 Ha      -84637.36983401 eV
  | Energy correction for multipole
  | error in Hartree potential    :           0.07156126 Ha           1.94728104 eV
  | Sum of eigenvalues per atom                           :       -2010.18838093 eV
  | Total energy (T->0) per atom                          :       -3684.50844858 eV  <-- do not rely on this value for anything but (periodic) metals
  | Electronic free energy per atom                       :       -3684.50844858 eV
  Evaluating new KS density.
  Integration grid: deviation in total charge (<rho> - N_e) =  -1.421085E-14

  Self-consistency convergence accuracy:
  | Change of charge density      :  0.1278E+00
  | Change of sum of eigenvalues  : -0.2058E+02 eV
  | Change of total energy        :  0.9477E-01 eV


------------------------------------------------------------
  End self-consistency iteration #     3       :  max(cpu_time)    wall_clock(cpu1)
  | Time for this iteration                     :        0.080 s           0.077 s
  | Charge density update                       :        0.026 s           0.026 s
  | Density mixing                              :        0.004 s           0.001 s
  | Hartree multipole update                    :        0.001 s           0.001 s
  | Hartree multipole summation                 :        0.017 s           0.017 s
  | Integration                                 :        0.028 s           0.028 s
  | Solution of K.-S. eqns.                     :        0.004 s           0.004 s
  | Total energy evaluation                     :        0.000 s           0.000 s

  Partial memory accounting:
  | Current value for overall tracked memory usage:
  |   Minimum:        0.274 MB (on task 23)
  |   Maximum:        0.293 MB (on task  0)
  |   Average:        0.288 MB
  | Peak value for overall tracked memory usage:
  |   Minimum:        1.302 MB (on task 22 after allocating wave)
  |   Maximum:        1.378 MB (on task  0 after allocating wave)
  |   Average:        1.332 MB
  | Largest tracked array allocation so far:
  |   Minimum:        0.705 MB (gradient_basis_wave on task  4)
  |   Maximum:        0.745 MB (gradient_basis_wave on task  0)
  |   Average:        0.719 MB
  Note:  These values currently only include a subset of arrays which are explicitly tracked.
  The "true" memory usage will be greater.
------------------------------------------------------------

------------------------------------------------------------
          Begin self-consistency iteration #    4

  Date     :  20220517, Time     :  111505.168
------------------------------------------------------------
  Pulay mixing of updated and previous charge densities.
  Renormalizing the density to the exact electron count on the 3D integration grid.
  | Formal number of electrons (from input files) :     120.0000000000
  | Integrated number of electrons on 3D grid     :     120.0000000000
  | Charge integration error                      :      -0.0000000000
  | Normalization factor for density and gradient :       1.0000000000

  Evaluating partitioned Hartree potential by multipole expansion.
  | Original multipole sum: apparent total charge =  -0.175628E-13
  | Sum of charges compensated after spline to logarithmic grids =   0.896959E-04
  | Analytical far-field extrapolation by fixed multipoles:
  | Hartree multipole sum: apparent total charge =  -0.162960E-13
  Summing up the Hartree potential.
  Time summed over all CPUs for potential: real work        0.379 s, elapsed        0.393 s
  | RMS charge density error from multipole expansion :   0.223522E-01

  Integrating Hamiltonian matrix: batch-based integration.
  Time summed over all CPUs for integration: real work        0.634 s, elapsed        0.674 s

  Updating Kohn-Sham eigenvalues and eigenvectors using ELSI and the ELPA eigensolver.
  Starting ELPA eigensolver
  Finished transformation to standard eigenproblem
  | Time :     0.001 s
  Finished solving standard eigenproblem
  | Time :     0.003 s
  Finished back-transformation of eigenvectors
  | Time :     0.000 s

  Obtaining occupation numbers and chemical potential using ELSI.
  | Chemical potential (Fermi level):    -6.52094315 eV
  Highest occupied state (VBM) at     -6.86876605 eV
  | Occupation number:      2.00000000

  Lowest unoccupied state (CBM) at    -5.93620000 eV
  | Occupation number:      0.00000000

  Overall HOMO-LUMO gap:      0.93256605 eV.

  Total energy components:
  | Sum of eigenvalues            :        -886.83511122 Ha      -24132.01119942 eV
  | XC energy correction          :        -145.42271103 Ha       -3957.15330498 eV
  | XC potential correction       :         189.36599359 Ha        5152.91086268 eV
  | Free-atom electrostatic energy:        -779.32125152 Ha      -21206.41022421 eV
  | Hartree energy correction     :          -2.62192292 Ha         -71.34615273 eV
  | Entropy correction            :           0.00000000 Ha           0.00000000 eV
  | ---------------------------
  | Total energy                  :       -1624.83500311 Ha      -44214.01001866 eV
  | Total energy, T -> 0          :       -1624.83500311 Ha      -44214.01001866 eV  <-- do not rely on this value for anything but (periodic) metals
  | Electronic free energy        :       -1624.83500311 Ha      -44214.01001866 eV

  Derived energy quantities:
  | Kinetic energy                :        1629.96073749 Ha       44353.48834763 eV
  | Electrostatic energy          :       -3109.37302956 Ha      -84610.34506131 eV
  | Energy correction for multipole
  | error in Hartree potential    :           0.08233381 Ha           2.24041693 eV
  | Sum of eigenvalues per atom                           :       -2011.00093328 eV
  | Total energy (T->0) per atom                          :       -3684.50083489 eV  <-- do not rely on this value for anything but (periodic) metals
  | Electronic free energy per atom                       :       -3684.50083489 eV
  Evaluating new KS density.
  Integration grid: deviation in total charge (<rho> - N_e) =  -2.842171E-14

  Self-consistency convergence accuracy:
  | Change of charge density      :  0.1125E+00
  | Change of sum of eigenvalues  : -0.9751E+01 eV
  | Change of total energy        :  0.9136E-01 eV


------------------------------------------------------------
  End self-consistency iteration #     4       :  max(cpu_time)    wall_clock(cpu1)
  | Time for this iteration                     :        0.081 s           0.078 s
  | Charge density update                       :        0.026 s           0.025 s
  | Density mixing                              :        0.004 s           0.002 s
  | Hartree multipole update                    :        0.001 s           0.001 s
  | Hartree multipole summation                 :        0.017 s           0.017 s
  | Integration                                 :        0.028 s           0.028 s
  | Solution of K.-S. eqns.                     :        0.004 s           0.004 s
  | Total energy evaluation                     :        0.000 s           0.001 s

  Partial memory accounting:
  | Current value for overall tracked memory usage:
  |   Minimum:        0.274 MB (on task 23)
  |   Maximum:        0.293 MB (on task  0)
  |   Average:        0.288 MB
  | Peak value for overall tracked memory usage:
  |   Minimum:        1.302 MB (on task 22 after allocating wave)
  |   Maximum:        1.378 MB (on task  0 after allocating wave)
  |   Average:        1.332 MB
  | Largest tracked array allocation so far:
  |   Minimum:        0.705 MB (gradient_basis_wave on task  4)
  |   Maximum:        0.745 MB (gradient_basis_wave on task  0)
  |   Average:        0.719 MB
  Note:  These values currently only include a subset of arrays which are explicitly tracked.
  The "true" memory usage will be greater.
------------------------------------------------------------

------------------------------------------------------------
          Begin self-consistency iteration #    5

  Date     :  20220517, Time     :  111505.250
------------------------------------------------------------
  Pulay mixing of updated and previous charge densities.
  Renormalizing the density to the exact electron count on the 3D integration grid.
  | Formal number of electrons (from input files) :     120.0000000000
  | Integrated number of electrons on 3D grid     :     120.0000000000
  | Charge integration error                      :       0.0000000000
  | Normalization factor for density and gradient :       1.0000000000

  Evaluating partitioned Hartree potential by multipole expansion.
  | Original multipole sum: apparent total charge =  -0.125571E-13
  | Sum of charges compensated after spline to logarithmic grids =   0.905201E-04
  | Analytical far-field extrapolation by fixed multipoles:
  | Hartree multipole sum: apparent total charge =  -0.108230E-13
  Summing up the Hartree potential.
  Time summed over all CPUs for potential: real work        0.379 s, elapsed        0.393 s
  | RMS charge density error from multipole expansion :   0.222936E-01

  Integrating Hamiltonian matrix: batch-based integration.
  Time summed over all CPUs for integration: real work        0.634 s, elapsed        0.674 s

  Updating Kohn-Sham eigenvalues and eigenvectors using ELSI and the ELPA eigensolver.
  Starting ELPA eigensolver
  Finished transformation to standard eigenproblem
  | Time :     0.000 s
  Finished solving standard eigenproblem
  | Time :     0.003 s
  Finished back-transformation of eigenvectors
  | Time :     0.000 s

  Obtaining occupation numbers and chemical potential using ELSI.
  | Chemical potential (Fermi level):    -6.49957239 eV
  Highest occupied state (VBM) at     -6.95614956 eV
  | Occupation number:      2.00000000

  Lowest unoccupied state (CBM) at    -5.86515483 eV
  | Occupation number:      0.00000000

  Overall HOMO-LUMO gap:      1.09099472 eV.

  Total energy components:
  | Sum of eigenvalues            :        -886.74597128 Ha      -24129.58557832 eV
  | XC energy correction          :        -145.41241644 Ha       -3956.87317483 eV
  | XC potential correction       :         189.35253796 Ha        5152.54471652 eV
  | Free-atom electrostatic energy:        -779.32125152 Ha      -21206.41022421 eV
  | Hartree energy correction     :          -2.70764268 Ha         -73.67870616 eV
  | Entropy correction            :           0.00000000 Ha           0.00000000 eV
[...]
   Total forces(   7)            :  0.107734E+01 -0.500493E+00  0.862040E+00
  atom #    8
   Hellmann-Feynman              :  0.175211E+01  0.195869E+01 -0.100499E+01
   Ionic forces                  :  0.000000E+00  0.000000E+00  0.000000E+00
   Multipole                     :  0.358374E+00  0.449423E+00 -0.313824E+00
   Hartree pot. SCF incomplete   :  0.797330E-06  0.476658E-05 -0.901913E-05
   Pulay + GGA                   : -0.445523E+01 -0.520654E+01  0.305940E+01
   ----------------------------------------------------------------
   Total forces(   8)            : -0.234475E+01 -0.279842E+01  0.174058E+01
  atom #    9
   Hellmann-Feynman              :  0.280663E+01 -0.134765E+01  0.226198E+01
   Ionic forces                  :  0.000000E+00  0.000000E+00  0.000000E+00
   Multipole                     :  0.553716E+00 -0.315809E+00  0.135592E+00
   Hartree pot. SCF incomplete   : -0.441242E-05  0.266890E-05 -0.157066E-04
   Pulay + GGA                   : -0.319741E+01  0.222935E+01 -0.105382E+01
   ----------------------------------------------------------------
   Total forces(   9)            :  0.162928E+00  0.565891E+00  0.134374E+01
  atom #   10
   Hellmann-Feynman              : -0.680565E+01  0.192788E+01  0.932854E+01
   Ionic forces                  :  0.000000E+00  0.000000E+00  0.000000E+00
   Multipole                     : -0.678767E+00  0.501629E+00  0.475222E+00
   Hartree pot. SCF incomplete   : -0.112834E-06 -0.143307E-06  0.203351E-05
   Pulay + GGA                   :  0.210883E+01 -0.116617E+01 -0.151410E+01
   ----------------------------------------------------------------
   Total forces(  10)            : -0.537559E+01  0.126333E+01  0.828966E+01
  atom #   11
   Hellmann-Feynman              :  0.611724E+01  0.323793E+01  0.442723E+01
   Ionic forces                  :  0.000000E+00  0.000000E+00  0.000000E+00
   Multipole                     :  0.107857E+01  0.604003E+00  0.707980E+00
   Hartree pot. SCF incomplete   : -0.251912E-05 -0.210339E-05 -0.125370E-06
   Pulay + GGA                   : -0.456955E+01 -0.239932E+01 -0.335012E+01
   ----------------------------------------------------------------
   Total forces(  11)            :  0.262626E+01  0.144261E+01  0.178509E+01
  atom #   12
   Hellmann-Feynman              : -0.728851E+01 -0.658103E+01  0.727135E+00
   Ionic forces                  :  0.000000E+00  0.000000E+00  0.000000E+00
   Multipole                     : -0.109147E+01 -0.941253E+00  0.126132E-01
   Hartree pot. SCF incomplete   :  0.291143E-05  0.284910E-05 -0.758265E-06
   Pulay + GGA                   :  0.444606E+01  0.394527E+01 -0.294245E+00
   ----------------------------------------------------------------
   Total forces(  12)            : -0.393392E+01 -0.357700E+01  0.445503E+00


  Self-consistency convergence accuracy:
  | Change of charge density      :  0.6124E-06
  | Change of sum of eigenvalues  : -0.9040E-04 eV
  | Change of total energy        :  0.9992E-08 eV
  | Change of forces              :  0.3313E-05 eV/A

  Writing Kohn-Sham eigenvalues.

  State    Occupation    Eigenvalue [Ha]    Eigenvalue [eV]
      1       2.00000         -55.657742        -1514.52421
      2       2.00000         -55.609934        -1513.22329
      3       2.00000         -55.558010        -1511.81037
      4       2.00000         -24.361026         -662.89724
      5       2.00000         -24.361015         -662.89696
      6       2.00000         -24.310057         -661.51031
      7       2.00000         -24.303766         -661.33913
      8       2.00000         -24.235540         -659.48261
      9       2.00000         -24.235536         -659.48248
     10       2.00000         -24.205790         -658.67305
     11       2.00000         -24.123717         -656.43973
     12       2.00000         -24.120804         -656.36048
     13       2.00000          -4.133222         -112.47068
     14       2.00000          -4.093011         -111.37651
     15       2.00000          -4.012471         -109.18488
     16       2.00000          -2.725279          -74.15861
     17       2.00000          -2.725110          -74.15400
     18       2.00000          -2.722339          -74.07862
     19       2.00000          -2.686233          -73.09611
     20       2.00000          -2.685521          -73.07674
     21       2.00000          -2.680708          -72.94579
     22       2.00000          -2.604838          -70.88124
     23       2.00000          -2.604689          -70.87720
     24       2.00000          -2.602569          -70.81951
     25       2.00000          -1.280630          -34.84773
     26       2.00000          -1.261125          -34.31697
     27       2.00000          -1.204381          -32.77286
     28       2.00000          -1.193849          -32.48628
     29       2.00000          -1.106956          -30.12181
     30       2.00000          -1.097044          -29.85208
     31       2.00000          -1.044884          -28.43273
     32       2.00000          -0.946380          -25.75231
     33       2.00000          -0.944730          -25.70740
     34       2.00000          -0.634203          -17.25755
     35       2.00000          -0.614947          -16.73355
     36       2.00000          -0.592163          -16.11358
     37       2.00000          -0.574117          -15.62251
     38       2.00000          -0.559742          -15.23136
     39       2.00000          -0.549784          -14.96037
     40       2.00000          -0.546707          -14.87667
     41       2.00000          -0.523516          -14.24559
     42       2.00000          -0.502602          -13.67651
     43       2.00000          -0.499910          -13.60325
     44       2.00000          -0.489886          -13.33048
     45       2.00000          -0.486648          -13.24236
     46       2.00000          -0.476848          -12.97569
     47       2.00000          -0.441807          -12.02218
     48       2.00000          -0.438021          -11.91917
     49       2.00000          -0.411746          -11.20418
     50       2.00000          -0.401518          -10.92586
     51       2.00000          -0.400500          -10.89817
     52       2.00000          -0.394245          -10.72795
     53       2.00000          -0.353680           -9.62412
     54       2.00000          -0.350828           -9.54652
     55       2.00000          -0.318325           -8.66206
     56       2.00000          -0.296979           -8.08120
     57       2.00000          -0.264169           -7.18842
     58       2.00000          -0.261326           -7.11105
     59       2.00000          -0.257588           -7.00933
     60       2.00000          -0.256091           -6.96858
     61       0.00000          -0.214607           -5.83976
     62       0.00000          -0.124678           -3.39267
     63       0.00000          -0.098667           -2.68488
     64       0.00000          -0.096871           -2.63600
     65       0.00000          -0.056693           -1.54268
     66       0.00000          -0.045395           -1.23526
     67       0.00000           0.014887            0.40508
     68       0.00000           0.028830            0.78450
     69       0.00000           0.037966            1.03310
     70       0.00000           0.056098            1.52651
     71       0.00000           0.077595            2.11147
     72       0.00000           0.079852            2.17288
     73       0.00000           0.089543            2.43658
     74       0.00000           0.120016            3.26580
     75       0.00000           0.138571            3.77071
     76       0.00000           0.142097            3.86666
     77       0.00000           0.150146            4.08567
     78       0.00000           0.153791            4.18487
     79       0.00000           0.153913            4.18819
     80       0.00000           0.198027            5.38859
     81       0.00000           0.206186            5.61060
     82       0.00000           0.216366            5.88761
     83       0.00000           0.229569            6.24689
     84       0.00000           0.239800            6.52530
     85       0.00000           0.245607            6.68330
     86       0.00000           0.246717            6.71350
     87       0.00000           0.257580            7.00910
     88       0.00000           0.267922            7.29053
     89       0.00000           0.286160            7.78681
     90       0.00000           0.294840            8.02300
     91       0.00000           0.296142            8.05843
     92       0.00000           0.325770            8.86465
     93       0.00000           0.335103            9.11861
     94       0.00000           0.348363            9.47943
     95       0.00000           0.357101            9.71720
     96       0.00000           0.363400            9.88861

  Highest occupied state (VBM) at     -6.96858341 eV
  | Occupation number:      2.00000000

  Lowest unoccupied state (CBM) at    -5.83976197 eV
  | Occupation number:      0.00000000

  Overall HOMO-LUMO gap:      1.12882143 eV.
  | Chemical Potential                          :    -6.48692232 eV

  Self-consistency cycle converged.


------------------------------------------------------------
  End self-consistency iteration #    14       :  max(cpu_time)    wall_clock(cpu1)
  | Time for this iteration                     :        0.261 s           0.259 s
  | Charge density & force component update     :        0.138 s           0.138 s
  | Density mixing                              :        0.004 s           0.003 s
  | Hartree multipole update                    :        0.001 s           0.001 s
  | Hartree multipole summation                 :        0.050 s           0.050 s
  | Hartree pot. SCF incomplete forces          :        0.033 s           0.034 s
  | Integration                                 :        0.028 s           0.028 s
  | Solution of K.-S. eqns.                     :        0.004 s           0.004 s
  | Total energy evaluation                     :        0.000 s           0.000 s

  Partial memory accounting:
  | Current value for overall tracked memory usage:
  |   Minimum:        0.274 MB (on task 23)
  |   Maximum:        0.293 MB (on task  0)
  |   Average:        0.289 MB
  | Peak value for overall tracked memory usage:
  |   Minimum:        2.898 MB (on task 22 after allocating hessian_basis_wave)
  |   Maximum:        3.045 MB (on task  0 after allocating hessian_basis_wave)
  |   Average:        2.952 MB
  | Largest tracked array allocation so far:
  |   Minimum:        1.410 MB (hessian_basis_wave on task  4)
  |   Maximum:        1.491 MB (hessian_basis_wave on task  0)
  |   Average:        1.437 MB
  Note:  These values currently only include a subset of arrays which are explicitly tracked.
  The "true" memory usage will be greater.
------------------------------------------------------------
  Removing unitary transformations (pure translations, rotations) from forces on atoms.
  Atomic forces before filtering:
  | Net force on center of mass :  -0.564045E-02  0.328717E-02 -0.648115E-02 eV/A
  | Net torque on center of mass:   0.310639E-01 -0.225018E-01 -0.268574E-02 eV
  Atomic forces after filtering:
  | Net force on center of mass :  -0.142725E-14  0.142725E-14  0.214087E-14 eV/A
  | Net torque on center of mass:   0.000000E+00 -0.623096E-14  0.604214E-14 eV

  Energy and forces in a compact form:
  | Total energy uncorrected      :         -0.442140023443702E+05 eV
  | Total energy corrected        :         -0.442140023443702E+05 eV  <-- do not rely on this value for anything but (periodic) metals
  | Electronic free energy        :         -0.442140023443702E+05 eV
  Total atomic forces (unitary forces cleaned) [eV/Ang]:
  |    1          0.936092452661714E+00          0.181553641562910E+01         -0.223731841327827E+01
  |    2          0.437663716930400E+01          0.104279420047071E+02         -0.147098171447883E+02
  |    3         -0.313010306412008E+01         -0.421637284892409E+00         -0.499537573594174E+01
  |    4          0.305129754324285E+01          0.252467980584532E+01          0.201305795470560E+00
  |    5          0.313392185597402E+01         -0.866273759776305E+01          0.379133511649150E+01
  |    6         -0.584655888172761E+00         -0.207984526763977E+01          0.348110638113825E+01
  |    7          0.107784753123612E+01         -0.500879597131796E+00          0.862370883702891E+00
  |    8         -0.234395366021995E+01         -0.279930186007809E+01          0.173974675965106E+01
  |    9          0.162670371399535E+00          0.564657230460632E+00          0.134449378489003E+01
  |   10         -0.537447292227885E+01          0.126381162060823E+01          0.828988594635797E+01
  |   11          0.262775632679504E+01          0.144358839427135E+01          0.178520459047561E+01
  |   12         -0.393303771582165E+01         -0.357581386401658E+01          0.447062035830446E+00

  ------------------------------------ 
  Start decomposition of the XC Energy 
  ------------------------------------ 
  X and C from original XC functional choice 
  Hartree-Fock Energy :          0.000000000 Ha              0.000000000 eV
  X Energy            :       -140.459049335 Ha          -3822.085197957 eV
  C Energy            :         -4.955858426 Ha           -134.855769148 eV
  Total XC Energy     :       -145.414907761 Ha          -3956.940967105 eV
  ------------------------------------ 
  LDA X and C from self-consistent density 
  X Energy LDA        :       -133.042738546 Ha          -3620.277113512 eV
  C Energy LDA        :         -8.835251913 Ha           -240.419436964 eV
  ------------------------------------ 
  End decomposition of the XC Energy 
  ------------------------------------ 

------------------------------------------------------------

------------------------------------------------------------------------------
  Final output of selected total energy values:

  The following output summarizes some interesting total energy values
  at the end of a run (AFTER all relaxation, molecular dynamics, etc.).

  | Total energy of the DFT / Hartree-Fock s.c.f. calculation      :         -44214.002344370 eV
  | Final zero-broadening corrected energy (caution - metals only) :         -44214.002344370 eV
  | For reference only, the value of 1 Hartree used in FHI-aims is :             27.211384500 eV

  Before relying on these values, please be sure to understand exactly which
  total energy value is referred to by a given number. Different objects may
  all carry the same name 'total energy'. Definitions:

  Total energy of the DFT / Hartree-Fock s.c.f. calculation:
  | Note that this energy does not include ANY quantities calculated after the
  | s.c.f. cycle, in particular not ANY RPA, MP2, etc. many-body perturbation terms.

  Final zero-broadening corrected energy:
  | For metallic systems only, a broadening of the occupation numbers at the Fermi
  | level can be extrapolated back to zero broadening by an electron-gas inspired
  | formula. For all systems that are not real metals, this value can be
  | meaningless and should be avoided.

------------------------------------------------------------------------------
  Methods described in the following list of references were used in this FHI-aims run.
  If you publish the results, please make sure to cite these reference if they apply.
  FHI-aims is an academic code, and for our developers (often, Ph.D. students
  and postdocs), scientific credit in the community is essential.
  Thank you for helping us!

  For any use of FHI-aims, please cite:

    Volker Blum, Ralf Gehrke, Felix Hanke, Paula Havu, Ville Havu,
    Xinguo Ren, Karsten Reuter, and Matthias Scheffler
    'Ab initio molecular simulations with numeric atom-centered orbitals'
    Computer Physics Communications 180, 2175-2196 (2009)
    http://dx.doi.org/10.1016/j.cpc.2009.06.022


  The ELSI infrastructure was used in your run to solve the Kohn-Sham electronic structure.
  Please check out http://elsi-interchange.org to learn more.
  If scalability is important for your project, please acknowledge ELSI by citing:

    V. W-z. Yu, F. Corsetti, A. Garcia, W. P. Huhn, M. Jacquelin, W. Jia,
    B. Lange, L. Lin, J. Lu, W. Mi, A. Seifitokaldani, A. Vazquez-Mayagoitia,
    C. Yang, H. Yang, and V. Blum
    'ELSI: A unified software interface for Kohn-Sham electronic structure solvers'
    Computer Physics Communications 222, 267-285 (2018).
    http://dx.doi.org/10.1016/j.cpc.2017.09.007


  For the real-space grid partitioning and parallelization used in this calculation, please cite:

    Ville Havu, Volker Blum, Paula Havu, and Matthias Scheffler,
    'Efficient O(N) integration for all-electron electronic structure calculation'
    'using numerically tabulated basis functions'
    Journal of Computational Physics 228, 8367-8379 (2009).
    http://dx.doi.org/10.1016/j.jcp.2009.08.008

  Of course, there are many other important community references, e.g., those cited in the
  above references. Our list is limited to references that describe implementations in the
  FHI-aims code. The reason is purely practical (length of this list) - please credit others as well.

------------------------------------------------------------
          Leaving FHI-aims.
          Date     :  20220517, Time     :  111506.473

          Computational steps:
          | Number of self-consistency cycles          :           14
          | Number of SCF (re)initializations          :            1

          Detailed time accounting                     :  max(cpu_time)    wall_clock(cpu1)
          | Total time                                  :        1.862 s          10.435 s
          | Preparation time                            :        0.186 s           0.185 s
          | Boundary condition initalization            :        0.000 s           0.000 s
          | Grid partitioning                           :        0.034 s           0.034 s
          | Preloading free-atom quantities on grid     :        0.015 s           0.015 s
          | Free-atom superposition energy              :        0.005 s           0.005 s
          | Total time for integrations                 :        0.441 s           0.440 s
          | Total time for solution of K.-S. equations  :        0.067 s           0.067 s
          | Total time for density & force components   :        0.613 s           0.612 s
          | Total time for mixing                       :        0.058 s           0.032 s
          | Total time for Hartree multipole update     :        0.018 s           0.016 s
          | Total time for Hartree multipole sum        :        0.301 s           0.304 s
          | Total time for total energy evaluation      :        0.002 s           0.001 s
          | Total time NSC force correction             :        0.066 s           0.068 s
          | Total time for scaled ZORA corrections      :        0.000 s           0.000 s

          Partial memory accounting:
          | Residual value for overall tracked memory usage across tasks:     0.000000 MB (should be 0.000000 MB)
          | Peak values for overall tracked memory usage:
          |   Minimum:        2.898 MB (on task 22 after allocating hessian_basis_wave)
          |   Maximum:        3.045 MB (on task  0 after allocating hessian_basis_wave)
          |   Average:        2.952 MB
          | Largest tracked array allocation:
          |   Minimum:        1.410 MB (hessian_basis_wave on task  4)
          |   Maximum:        1.491 MB (hessian_basis_wave on task  0)
          |   Average:        1.437 MB
          Note:  These values currently only include a subset of arrays which are explicitly tracked.
          The "true" memory usage will be greater.

          Have a nice day.
------------------------------------------------------------
