------------------------------------------------------------
          Invoking FHI-aims ...

          When using FHI-aims, please cite the following reference:

            Volker Blum, Ralf Gehrke, Felix Hanke, Paula Havu,
            Ville Havu, Xinguo Ren, Karsten Reuter, and Matthias Scheffler,
            'Ab Initio Molecular Simulations with Numeric Atom-Centered Orbitals',
            Computer Physics Communications 180, 2175-2196 (2009)

          In addition, many other developments in FHI-aims are likely important for
          your particular application. A partial list of references is given at the end of
          this file. Thank you for giving credit to the authors of these developments.

          For any questions about FHI-aims, please visit our slack channel at

            https://fhi-aims.slack.com

          and our main development and support site at

            https://aims-git.rz-berlin.mpg.de .

          The latter site, in particular, has a wiki to collect information, as well
          as an issue tracker to log discussions, suggest improvements, and report issues
          or bugs. https://aims-git.rz-berlin.mpg.de is also the main development site
          of the project and all new and updated code versions can be obtained there.
          Please send an email to aims-coordinators@fhi-berlin.mpg.de and we will add
          you to these sites. They are for you and everyone is welcome there.

------------------------------------------------------------



  Date     :  20220517, Time     :  110609.202
  Time zero on CPU 1             :   0.405890000000000E-01  s.
  Internal wall clock time zero  :           422017569.202  s.

  FHI-aims created a unique identifier for this run for later identification
  aims_uuid : 9A038B7F-C044-4D04-AC67-36B249E1B96B

  Build configuration of the current instance of FHI-aims
  -------------------------------------------------------
  FHI-aims version      : 210914
  Commit number         : GITDIR-NOTFOUND
  CMake host system     : Linux-3.10.0-693.17.1.el7.x86_64
  CMake version         : 3.21.1
  Fortran compiler      : /shared/ucl/apps/intel/2018.Update3/impi/2018.3.222/intel64/bin/mpiifort (Intel) version 18.0.3.20180410
  Fortran compiler flags: -O3 -ip -fp-model precise
  C compiler            : /shared/ucl/apps/intel/2018.Update3/compilers_and_libraries_2018.3.222/linux/bin/intel64/icc (Intel) version 18.0.3.20180410
  C compiler flags      : -O3 -ip -fp-model precise -std=gnu99
  ELPA2 kernel          : AVX2
  Using MPI
  Using ScaLAPACK
  Using LibXC
  Using i-PI
  Using RLSY
  Linking against: /shared/ucl/apps/intel/2019.Update5/compilers_and_libraries_2019.5.281/linux/mkl/lib/intel64/libmkl_intel_lp64.so
                   /shared/ucl/apps/intel/2019.Update5/compilers_and_libraries_2019.5.281/linux/mkl/lib/intel64/libmkl_sequential.so
                   /shared/ucl/apps/intel/2019.Update5/compilers_and_libraries_2019.5.281/linux/mkl/lib/intel64/libmkl_core.so
                   /shared/ucl/apps/intel/2019.Update5/compilers_and_libraries_2019.5.281/linux/mkl/lib/intel64/libmkl_blacs_intelmpi_lp64.so
                   /shared/ucl/apps/intel/2019.Update5/compilers_and_libraries_2019.5.281/linux/mkl/lib/intel64/libmkl_scalapack_lp64.so

  Using       24 parallel tasks.
  Task        0 on host node-k98e-006 reporting.
  Task        1 on host node-k98e-006 reporting.
  Task        2 on host node-k98e-006 reporting.
  Task        3 on host node-k98e-006 reporting.
  Task        4 on host node-k98e-006 reporting.
  Task        5 on host node-k98e-006 reporting.
  Task        6 on host node-k98e-006 reporting.
  Task        7 on host node-k98e-006 reporting.
  Task        8 on host node-k98e-006 reporting.
  Task        9 on host node-k98e-006 reporting.
  Task       10 on host node-k98e-006 reporting.
  Task       11 on host node-k98e-006 reporting.
  Task       12 on host node-k98e-006 reporting.
  Task       13 on host node-k98e-006 reporting.
  Task       14 on host node-k98e-006 reporting.
  Task       15 on host node-k98e-006 reporting.
  Task       16 on host node-k98e-006 reporting.
  Task       17 on host node-k98e-006 reporting.
  Task       18 on host node-k98e-006 reporting.
  Task       19 on host node-k98e-006 reporting.
  Task       20 on host node-k98e-006 reporting.
  Task       21 on host node-k98e-006 reporting.
  Task       22 on host node-k98e-006 reporting.
  Task       23 on host node-k98e-006 reporting.

  Performing system and environment tests:
  | Environment variable OMP_NUM_THREADS correctly set to 1.
  | Checking for ScaLAPACK...
  | Testing pdtran()...
  | All pdtran() tests passed.

  Obtaining array dimensions for all initial allocations:
  
  -----------------------------------------------------------------------
  Parsing control.in (first pass over file, find array dimensions only).
  The contents of control.in will be repeated verbatim below
  unless switched off by setting 'verbatim_writeout .false.' .
  in the first line of control.in .
  -----------------------------------------------------------------------
  
  #########################################################################################  Physical model
  #########################################################################################
  xc                 pbesol
  spin               none
  relativistic       atomic_zora scalar
  charge             0.0
  #  SCF convergence
  occupation_type    gaussian 0.01
  mixer              pulay
  n_max_pulay        10
  charge_mix_param   0.5
  sc_accuracy_rho    1E-5
  sc_accuracy_eev    1E-3
  sc_accuracy_etot   1E-6
  sc_accuracy_forces 1E-4
  sc_iter_limit      1500
  #  Relaxation
  #relax_geometry   bfgs 1.e-3
  
  ################################################################################
  #
  #  FHI-aims code project
  #  VB, Fritz-Haber Institut, 2009
  #
  #  Suggested "light" defaults for Al atom (to be pasted into control.in file)
  #  Be sure to double-check any results obtained with these settings for post-processing,
  #  e.g., with the "tight" defaults and larger basis sets.
  #
  ################################################################################
    species        Al
  #     global species definitions
      nucleus             13
      mass                26.9815386
  #
      l_hartree           4
  #
      cut_pot             3.5          1.5  1.0
      basis_dep_cutoff    1e-4
  #
      radial_base         41 5.0
      radial_multiplier   1
      angular_grids       specified
        division   0.6594  110
        division   0.8170  194
        division   0.9059  302
  #      division   1.0363  434
  #      division   1.1443  590
  #      division   1.2621  770
  #      division   2.8177  974
  #      outer_grid   974
        outer_grid   302
  ################################################################################
  #
  #  Definition of "minimal" basis
  #
  ################################################################################
  #     valence basis states
      valence      3  s   2.
      valence      3  p   1.
  #     ion occupancy
      ion_occ      3  s   1.
      ion_occ      2  p   6.
  ################################################################################
  #
  #  Suggested additional basis functions. For production calculations,
  #  uncomment them one after another (the most important basis functions are
  #  listed first).
  #
  #  Constructed for dimers: 2.0 A, 2.5 A, 3.0 A, 3.75 A, 4.5 A
  #
  ################################################################################
  #  "First tier" - improvements: -199.47 meV to -10.63 meV
       ionic 3 d auto
       ionic 3 p auto
  #     hydro 4 f 4.7
       ionic 3 s auto
  #  "Second tier" - improvements: -5.35 meV to -1.57 meV
  #     hydro 5 g 7
  #     hydro 3 d 6
  #     hydro 2 s 11.6
  #     hydro 2 p 0.9
  #  "Third tier" - improvements: -0.63 meV to -0.20 meV
  #     hydro 5 f 7.6
  #     hydro 4 p 7.2
  #     hydro 4 s 3.7
  #     hydro 4 d 7.6
  #  "Fourth tier" - improvements: -0.17 meV to -0.08 meV
  #     hydro 4 d 13.6
  #     hydro 5 g 11.2
  #     hydro 4 d 0.9
  #     hydro 1 s 0.4
  #     hydro 4 p 0.1
  #     hydro 5 f 9.8
  #  Further basis functions that fell out of the optimization - noise level...
  #     hydro 4 p 5
  
  ################################################################################
  #
  #  FHI-aims code project
  #  VB, Fritz-Haber Institut, 2009
  #
  #  Suggested "light" defaults for F atom (to be pasted into control.in file)
  #  Be sure to double-check any results obtained with these settings for post-processing,
  #  e.g., with the "tight" defaults and larger basis sets.
  #
  ################################################################################
    species        F
  #     global species definitions
      nucleus             9
      mass                18.9984032
  #
      l_hartree           4
  #
      cut_pot             3.5  1.5  1.0
      basis_dep_cutoff    1e-4
  #
      radial_base         37 5.0
      radial_multiplier   1
      angular_grids specified
        division   0.4014  110
        division   0.5291  194
        division   0.6019  302
  #      division   0.6814  434
  #      division   0.7989  590
  #      division   0.8965  770
  #      division   1.3427  974
  #      outer_grid   974
        outer_grid   302
  ################################################################################
  #
  #  Definition of "minimal" basis
  #
  ################################################################################
  #     valence basis states
      valence      2  s   2.
      valence      2  p   5.
  #     ion occupancy
      ion_occ      2  s   1.
      ion_occ      2  p   4.
  ################################################################################
  #
  #  Suggested additional basis functions. For production calculations,
  #  uncomment them one after another (the most important basis functions are
  #  listed first).
  #
  #  Constructed for dimers: 1.2 A, 1.418 A, 1.75 A, 2.25 A, 3.25 A
  #
  ################################################################################
  #  "First tier" - improvements: -149.44 meV to -45.88 meV
       hydro 2 p 1.7
       hydro 3 d 7.4
       hydro 3 s 6.8
  #  "Second tier" - improvements: -12.96 meV to -1.56 meV
  #     hydro 4 f 11.2
  #     ionic 2 p auto
  #     hydro 1 s 0.75
  #     hydro 4 d 8.8
  #     hydro 5 g 16.8
  #  "Third tier" - improvements: -0.58 meV to -0.05 meV
  #     hydro 3 p 6.2
  #     hydro 3 s 3.2
  #     hydro 4 f 9.6
  #     hydro 3 s 19.6
  #     hydro 4 d 8.6
  #     hydro 5 g 14.4
  # Further basis functions: -0.05 meV and below
  #     hydro 3 p 4.2
  
  -----------------------------------------------------------------------
  Completed first pass over input file control.in .
  -----------------------------------------------------------------------
  
  
  -----------------------------------------------------------------------
  Parsing geometry.in (first pass over file, find array dimensions only).
  The contents of geometry.in will be repeated verbatim below
  unless switched off by setting 'verbatim_writeout .false.' .
  in the first line of geometry.in .
  -----------------------------------------------------------------------
  
  atom 1.536421062 -0.247044284 2.309680237 Al
  atom 1.068129000 1.432595000 0.027215000 Al
  atom -0.065309185 0.539796564 -2.456405073 Al
  atom -1.824583804 -0.190257144 -2.137321477 F
  atom 2.083405192 -0.308529954 0.488528513 F
  atom -0.095018016 1.989308054 -3.721311194 F
  atom -0.453233826 1.868692681 -1.015068095 F
  atom 2.661104553 2.335541509 -0.359064444 F
  atom 1.440881423 0.007104528 -1.423352377 F
  atom 0.505019271 1.397955623 1.836299102 F
  atom 2.399313730 0.763981819 3.700795009 F
  atom -0.133471841 -1.021007859 2.894729786 F
  
  -----------------------------------------------------------------------
  Completed first pass over input file geometry.in .
  -----------------------------------------------------------------------
  

  Basic array size parameters:
  | Number of species                 :        2
  | Number of atoms                   :       12
  | Max. basis fn. angular momentum   :        2
  | Max. atomic/ionic basis occupied n:        3
  | Max. number of basis fn. types    :        3
  | Max. radial fns per species/type  :        5
  | Max. logarithmic grid size        :     1340
  | Max. radial integration grid size :       41
  | Max. angular integration grid size:      302
  | Max. angular grid division number :        8
  | Radial grid for Hartree potential :     1340
  | Number of spin channels           :        1

------------------------------------------------------------
          Reading file control.in.
------------------------------------------------------------
  XC: Using PBEsol gradient-corrected functionals.
  Spin treatment: No spin polarisation.
  Scalar relativistic treatment of kinetic energy: on-site free-atom approximation to ZORA.
  Charge =   0.000000E+00: Neutral system requested explicitly.
  Occupation type: Gaussian broadening, width =   0.100000E-01 eV.
  Using pulay charge density mixing.
  Pulay mixing - number of memorized iterations:   10
  Charge density mixing - mixing parameter:     0.5000
  Convergence accuracy of self-consistent charge density:  0.1000E-04
  Convergence accuracy of sum of eigenvalues:  0.1000E-02
  Convergence accuracy of total energy:  0.1000E-05
  Convergence accuracy of forces:  0.1000E-03
  Maximum number of s.-c. iterations  :  1500
 
  Reading configuration options for species Al                  .
  | Found nuclear charge :  13.0000
  | Found atomic mass :    26.9815386000000      amu
  | Found l_max for Hartree potential  :   4
  | Found cutoff potl. onset [A], width [A], scale factor :    3.50000    1.50000    1.00000
  | Threshold for basis-dependent cutoff potential is   0.100000E-03
  | Found data for basic radial integration grid :    41 points, outermost radius =    5.000 A
  | Found multiplier for basic radial grid :   1
  | Found angular grid specification: user-specified.
  | Specified grid contains     4 separate shells.
  | Check grid settings after all constraints further below.
  | Found free-atom valence shell :  3 s   2.000
  | Found free-atom valence shell :  3 p   1.000
  | Found free-ion valence shell :  3 s   1.000
  | Found free-ion valence shell :  2 p   6.000
  | Found ionic basis function :  3 d , default cutoff radius.
  | Found ionic basis function :  3 p , default cutoff radius.
  | Found ionic basis function :  3 s , default cutoff radius.
  Species Al                  : Missing cutoff potential type.
  Defaulting to exp(1/x)/(1-x)^2 type cutoff potential.
  Species Al: No 'logarithmic' tag. Using default grid for free atom:
  | Default logarithmic grid data [bohr] : 0.1000E-03 0.1000E+03 0.1012E+01
  | Will include ionic basis functions of  2.0-fold positive Al                   ion.
  Species Al: On-site basis accuracy parameter (for Gram-Schmidt orthonormalisation) not specified.
  Using default value basis_acc =  0.1000000E-03.
  Species Al                  : Using default innermost maximum threshold i_radial=  2 for radial functions.
  Species Al                  : Default cutoff onset for free atom density etc. : 0.35000000E+01 AA.
  Species Al                  : Basic radial grid will be enhanced according to radial_multiplier =   1, to contain    41 grid points.
 
  Reading configuration options for species F                   .
  | Found nuclear charge :   9.0000
  | Found atomic mass :    18.9984032000000      amu
  | Found l_max for Hartree potential  :   4
  | Found cutoff potl. onset [A], width [A], scale factor :    3.50000    1.50000    1.00000
  | Threshold for basis-dependent cutoff potential is   0.100000E-03
  | Found data for basic radial integration grid :    37 points, outermost radius =    5.000 A
  | Found multiplier for basic radial grid :   1
  | Found angular grid specification: user-specified.
  | Specified grid contains     4 separate shells.
  | Check grid settings after all constraints further below.
  | Found free-atom valence shell :  2 s   2.000
  | Found free-atom valence shell :  2 p   5.000
  | Found free-ion valence shell :  2 s   1.000
  | Found free-ion valence shell :  2 p   4.000
  | Found hydrogenic basis function :  2 p   1.700
  | Found hydrogenic basis function :  3 d   7.400
  | Found hydrogenic basis function :  3 s   6.800
  Species F                   : Missing cutoff potential type.
  Defaulting to exp(1/x)/(1-x)^2 type cutoff potential.
  Species F : No 'logarithmic' tag. Using default grid for free atom:
  | Default logarithmic grid data [bohr] : 0.1000E-03 0.1000E+03 0.1012E+01
  Species F : On-site basis accuracy parameter (for Gram-Schmidt orthonormalisation) not specified.
  Using default value basis_acc =  0.1000000E-03.
  Species F                   : Using default innermost maximum threshold i_radial=  2 for radial functions.
  Species F                   : Default cutoff onset for free atom density etc. : 0.35000000E+01 AA.
  Species F                   : Basic radial grid will be enhanced according to radial_multiplier =   1, to contain    37 grid points.
 
  Finished reading input file 'control.in'.
 
------------------------------------------------------------


------------------------------------------------------------
          Reading geometry description geometry.in.
------------------------------------------------------------
  | The smallest distance between any two atoms is         1.87138861 AA.
  | The first atom of this pair is atom number                      2 .
  | The second atom of this pair is atom number                     8 .
  Input structure read successfully.
  The structure contains       12 atoms,  and a total of        120.000 electrons.

  Input geometry:
  | No unit cell requested.
  | Atomic structure:
  |       Atom                x [A]            y [A]            z [A]
  |    1: Species Al            1.53642106       -0.24704428        2.30968024
  |    2: Species Al            1.06812900        1.43259500        0.02721500
  |    3: Species Al           -0.06530919        0.53979656       -2.45640507
  |    4: Species F            -1.82458380       -0.19025714       -2.13732148
  |    5: Species F             2.08340519       -0.30852995        0.48852851
  |    6: Species F            -0.09501802        1.98930805       -3.72131119
  |    7: Species F            -0.45323383        1.86869268       -1.01506809
  |    8: Species F             2.66110455        2.33554151       -0.35906444
  |    9: Species F             1.44088142        0.00710453       -1.42335238
  |   10: Species F             0.50501927        1.39795562        1.83629910
  |   11: Species F             2.39931373        0.76398182        3.70079501
  |   12: Species F            -0.13347184       -1.02100786        2.89472979

 
  Finished reading input file 'control.in'.
 

------------------------------------------------------------
          Reading geometry description geometry.in.
------------------------------------------------------------
 
  Consistency checks for stacksize environment parameter are next.
 
  | Maximum stacksize for task 0: unlimited
  | Maximum stacksize for task 1: unlimited
  | Maximum stacksize for task 2: unlimited
  | Maximum stacksize for task 3: unlimited
  | Maximum stacksize for task 4: unlimited
  | Maximum stacksize for task 5: unlimited
  | Maximum stacksize for task 6: unlimited
  | Maximum stacksize for task 7: unlimited
  | Maximum stacksize for task 8: unlimited
  | Maximum stacksize for task 9: unlimited
  | Maximum stacksize for task 10: unlimited
  | Maximum stacksize for task 11: unlimited
  | Maximum stacksize for task 12: unlimited
  | Maximum stacksize for task 13: unlimited
  | Maximum stacksize for task 14: unlimited
  | Maximum stacksize for task 15: unlimited
  | Maximum stacksize for task 16: unlimited
  | Maximum stacksize for task 17: unlimited
  | Maximum stacksize for task 18: unlimited
  | Maximum stacksize for task 19: unlimited
  | Maximum stacksize for task 20: unlimited
  | Maximum stacksize for task 21: unlimited
  | Maximum stacksize for task 22: unlimited
  | Maximum stacksize for task 23: unlimited
  | Current stacksize for task 0: unlimited
  | Current stacksize for task 1: unlimited
  | Current stacksize for task 2: unlimited
  | Current stacksize for task 3: unlimited
  | Current stacksize for task 4: unlimited
  | Current stacksize for task 5: unlimited
  | Current stacksize for task 6: unlimited
  | Current stacksize for task 7: unlimited
  | Current stacksize for task 8: unlimited
  | Current stacksize for task 9: unlimited
  | Current stacksize for task 10: unlimited
  | Current stacksize for task 11: unlimited
  | Current stacksize for task 12: unlimited
  | Current stacksize for task 13: unlimited
  | Current stacksize for task 14: unlimited
  | Current stacksize for task 15: unlimited
  | Current stacksize for task 16: unlimited
  | Current stacksize for task 17: unlimited
  | Current stacksize for task 18: unlimited
  | Current stacksize for task 19: unlimited
  | Current stacksize for task 20: unlimited
  | Current stacksize for task 21: unlimited
  | Current stacksize for task 22: unlimited
  | Current stacksize for task 23: unlimited
 
  Consistency checks for the contents of control.in are next.
 
  MPI_IN_PLACE appears to work with this MPI implementation.
  | Keeping use_mpi_in_place .true. (see manual).
  Target number of points in a grid batch is not set. Defaulting to  100
  Method for grid partitioning is not set. Defaulting to parallel hash+maxmin partitioning.
  Batch size limit is not set. Defaulting to    200
  By default, will store active basis functions for each batch.
  If in need of memory, prune_basis_once .false. can be used to disable this option.
  communication_type for Hartree potential was not specified.
  Defaulting to calc_hartree .
  Pulay mixer: Number of initial linear mixing iterations not set.
  Defaulting to    0 iterations.
  Work space size for distributed Hartree potential not set.
  Defaulting to   0.200000E+03 MB.
  Algorithm-dependent basis array size parameters:
  | n_max_pulay                         :       10
  Presetting      1001 iterations before the initial mixing cycle
  is restarted anyway using the sc_init_iter criterion / keyword.
  Presetting a factor      1.000 between actual scf density residual
  and density convergence criterion sc_accuracy_rho below which sc_init_iter
  takes no effect.
  Geometry relaxation not requested: no relaxation will be performed.
  Forces evaluation will include force correction term due to incomplete self-consistency (default).
  Handling of forces: Unphysical translation and rotation will be removed from forces.
  No accuracy limit for integral partition fn. given. Defaulting to  0.1000E-14.
  No threshold value for u(r) in integrations given. Defaulting to  0.1000E-05.
  No accuracy for occupation numbers given. Defaulting to  0.1000E-12.
  No threshold value for occupation numbers given. Defaulting to  0.0000E+00.
  No accuracy for fermi level given. Defaulting to  0.1000E-19.
  Maximum # of iterations to find E_F not set. Defaulting to  200.
  Preferred method for the eigenvalue solver ('KS_method') not specified in 'control.in'.
  Calling BLACS routine to test compilation state
  Since ScaLAPACK support is enabled, defaulting to ELPA (via ELSI).
  Will not use alltoall communication since running on < 1024 CPUs.
  Threshold for basis singularities not set.
  Default threshold for basis singularities:  0.1000E-04
  partition_type (choice of integration weights) for integrals was not specified.
  | Using a version of the partition function of Stratmann and coworkers ('stratmann_sparse').
  | At each grid point, the set of atoms used to build the partition table is smoothly restricted to
  | only those atoms whose free-atom density would be non-zero at that grid point.
  Partitioning for Hartree potential was not defined. Using partition_type for integrals.
  | Adjusted default value of keyword multip_moments_threshold to:       0.10000000E-11
  | This value may affect high angular momentum components of the Hartree potential in periodic systems.
  No q(lm)/r^(l+1) cutoff set for long-range Hartree potential.
  | Using default value of  0.100000E-09 .
  | Verify using the multipole_threshold keyword.
  Defaulting to new monopole extrapolation.
  Density update method: automatic selection selected.
  Charge integration errors on the 3D integration grid will be compensated
  by explicit normalization and distribution of residual charges.
  Use the "compensate_multipole_errors" flag to change this behaviour.
  Set 'collect_eigenvectors' to be '.true.' for use_density_matrix .false.
 
  Consistency checks for the contents of geometry.in are next.
 
  Number of empty states per atom not set in control.in - providing a guess from actual geometry.
  | Total number of empty states used during s.c.f. cycle:       36
  If you use a very high smearing, use empty_states (per atom!) in control.in to increase this value.

  Structure-dependent array size parameters: 
  | Maximum number of distinct radial functions  :       14
  | Maximum number of basis functions            :      180
  | Number of Kohn-Sham states (occupied + empty):       96
------------------------------------------------------------

------------------------------------------------------------
          Preparing all fixed parts of the calculation.
------------------------------------------------------------
  Determining machine precision:
    2.225073858507201E-308
  Setting up grids for atomic and cluster calculations.

  Creating wave function, potential, and density for free atoms.

  Species: Al

  List of occupied orbitals and eigenvalues:
    n    l              occ      energy [Ha]    energy [eV]
    1    0           2.0000       -55.621123     -1513.5278
    2    0           2.0000        -3.957030      -107.6763
    3    0           2.0000        -0.272233        -7.4078
    2    1           6.0000        -2.540949       -69.1427
    3    1           1.0000        -0.083300        -2.2667


  Species: F

  List of occupied orbitals and eigenvalues:
    n    l              occ      energy [Ha]    energy [eV]
    1    0           2.0000       -24.399611      -663.9472
    2    0           2.0000        -1.098702       -29.8972
    2    1           5.0000        -0.408210       -11.1080


  Adding cutoff potential to free-atom effective potential.
  Creating fixed part of basis set: Ionic, confined, hydrogenic.
 
  Al                   ion:

  List of free ionic orbitals and eigenvalues:
    n    l      energy [Ha]    energy [eV]
    1    0       -56.418846     -1535.2349
    2    0        -4.732717      -128.7838
    3    0        -0.872690       -23.7471
    2    1        -3.317230       -90.2664


  List of ionic basis orbitals and eigenvalues:
    n    l      energy [Ha]    energy [eV]    outer radius [A]
    3    2        -0.346815        -9.4373       4.594041
    3    1        -0.631870       -17.1940       4.538221
    3    0        -0.872657       -23.7462       4.538221

 
  F                    hydrogenic:
 
  List of hydrogenic basis orbitals: 
    n    l      effective z      eigenvalue [eV]  inner max. [A]     outer max. [A]     outer radius [A]   
    2    1         1.700000        -9.7616           1.243167           1.243167           4.598524
    3    2         7.400000       -82.7828           0.642437           0.642437           3.305741
    3    0         6.800000       -69.9026           0.057798           1.022307           3.781556
 
  Creating atomic-like basis functions for current effective potential.

  Species Al                  :

  List of atomic basis orbitals and eigenvalues:
    n    l      energy [Ha]    energy [eV]    outer radius [A]
    1    0       -55.621123     -1513.5278       0.850197
    2    0        -3.957030      -107.6763       3.144911
    3    0        -0.272233        -7.4078       4.594041
    2    1        -2.540949       -69.1427       3.731966
    3    1        -0.083300        -2.2667       4.594041


  Species F                   :

  List of atomic basis orbitals and eigenvalues:
    n    l      energy [Ha]    energy [eV]    outer radius [A]
    1    0       -24.399611      -663.9472       1.258458
    2    0        -1.098702       -29.8972       4.325857
    2    1        -0.408210       -11.1080       4.487453

  Assembling full basis from fixed parts.
  | Species Al :   atomic orbital   1 s accepted.
  | Species Al :   atomic orbital   2 s accepted.
  | Species Al :    ionic orbital   3 s accepted.
  | Species Al :   atomic orbital   3 s accepted.
  | Species Al :   atomic orbital   2 p accepted.
  | Species Al :    ionic orbital   3 p accepted.
  | Species Al :   atomic orbital   3 p accepted.
  | Species Al :    ionic orbital   3 d accepted.
  | Species F :   atomic orbital   1 s accepted.
  | Species F :    hydro orbital   3 s accepted.
  | Species F :   atomic orbital   2 s accepted.
  | Species F :   atomic orbital   2 p accepted.
  | Species F :    hydro orbital   2 p accepted.
  | Species F :    hydro orbital   3 d accepted.
 
  Basis size parameters after reduction:
  | Total number of radial functions:       14
  | Total number of basis functions :      180
 
  Per-task memory consumption for arrays in subroutine allocate_ext:
  |           4.807768MB.
  Testing on-site integration grid accuracy.
  |  Species  Function  <phi|h_atom|phi> (log., in eV)  <phi|h_atom|phi> (rad., in eV)
           1        1              -1513.5277717935              -1513.5271881332
           1        2               -107.6762691836               -107.6762662489
           1        3                 -6.9467474784                 -6.9471269649
           1        4                  5.5771951849                  5.4862107220 ***
           1        5                -69.1427313144                -69.1427312731
           1        6                 -1.5197375330                 -1.5230432022
           1        7                  6.8210948310                  6.5529872240 ***
           1        8                  4.3216540965                  4.2851170187 ***
           2        9               -663.9471986398               -663.9470363334
           2       10                 16.8514011578                 16.8512525338
           2       11                -28.4490593856                -28.4490661472
           2       12                -11.1080115307                -11.1080620173
           2       13                  7.1940182175                  7.1685154137
           2       14                 44.8544281765                 44.8543763625
 * Note: Onsite integrals marked "***" above are less accurate than
 * onsite_accuracy_threshold =    0.03000 eV. Usually, this is harmless.
 * When in doubt, tighten the "radial" and/or "radial_multiplier" flags to check.

  Preparing densities etc. for the partition functions (integrals / Hartree potential).

  Preparations completed.
  max(cpu_time)          :      0.184 s.
  Wall clock time (cpu1) :      0.184 s.
------------------------------------------------------------

------------------------------------------------------------
          Begin self-consistency loop: Initialization.

          Date     :  20220517, Time     :  110609.431
------------------------------------------------------------

  Initializing index lists of integration centers etc. from given atomic structure:
  | Number of centers in hartree potential         :        12
  | Number of centers in hartree multipole         :        12
  | Number of centers in electron density summation:        12
  | Number of centers in basis integrals           :        12
  | Number of centers in integrals                 :        12
  | Number of centers in hamiltonian               :        12
  * Using 24 tasks for Scalapack Eigenvalue solver.
  Detailed listing of tasks and assigned k-points:
  (for non-periodic systems, the "k-point" denotes an internal label only)
   Task     0 k-point     1 on node-k98e-006
   Task     1 k-point     1 on node-k98e-006
   Task     2 k-point     1 on node-k98e-006
   Task     3 k-point     1 on node-k98e-006
   Task     4 k-point     1 on node-k98e-006
   Task     5 k-point     1 on node-k98e-006
   Task     6 k-point     1 on node-k98e-006
   Task     7 k-point     1 on node-k98e-006
   Task     8 k-point     1 on node-k98e-006
   Task     9 k-point     1 on node-k98e-006
   Task    10 k-point     1 on node-k98e-006
   Task    11 k-point     1 on node-k98e-006
   Task    12 k-point     1 on node-k98e-006
   Task    13 k-point     1 on node-k98e-006
   Task    14 k-point     1 on node-k98e-006
   Task    15 k-point     1 on node-k98e-006
   Task    16 k-point     1 on node-k98e-006
   Task    17 k-point     1 on node-k98e-006
   Task    18 k-point     1 on node-k98e-006
   Task    19 k-point     1 on node-k98e-006
   Task    20 k-point     1 on node-k98e-006
   Task    21 k-point     1 on node-k98e-006
   Task    22 k-point     1 on node-k98e-006
   Task    23 k-point     1 on node-k98e-006
  Tasks:    24 split into      6 X      4 BLACS grid
  Calculating block size based on n_basis =          180  max_nprow =            6  max_npcol =            4
  ScaLAPACK block size set to:           16
  Allocating        0.012 MB for ovlp
  Allocating        0.012 MB for ham
  Allocating        0.012 MB for eigenvec
  Required Scalapack workspace - INTEGER:            1  REAL:             1
  Partitioning the integration grid into batches with parallel hashing+maxmin method.
  | Number of batches:      998
  | Maximal batch size:     192
  | Minimal batch size:      21
  | Average batch size:      92.104
  | Standard deviation of batch sizes:      22.054

  Integration load balanced across    24 MPI tasks.
  Work distribution over tasks is as follows:
  Task     0 has       3847 integration points.
  Task     1 has       3801 integration points.
  Task     2 has       3890 integration points.
  Task     3 has       3798 integration points.
  Task     4 has       3866 integration points.
  Task     5 has       3804 integration points.
  Task     6 has       3839 integration points.
  Task     7 has       3793 integration points.
  Task     8 has       3800 integration points.
  Task     9 has       3799 integration points.
  Task    10 has       3869 integration points.
  Task    11 has       3810 integration points.
  Task    12 has       3869 integration points.
  Task    13 has       3883 integration points.
  Task    14 has       3851 integration points.
  Task    15 has       3871 integration points.
  Task    16 has       3800 integration points.
  Task    17 has       3780 integration points.
  Task    18 has       3797 integration points.
  Task    19 has       3784 integration points.
  Task    20 has       3885 integration points.
  Task    21 has       3783 integration points.
  Task    22 has       3847 integration points.
  Task    23 has       3854 integration points.
  Initializing partition tables, free-atom densities, potentials, etc. across the integration grid (initialize_grid_storage).
  | initialize_grid_storage: Actual outermost partition radius vs. multipole_radius_free
  | (-- VB: in principle, multipole_radius_free should be larger, hence this output)
  | Species        1: Confinement radius =              4.999999999999999 AA, multipole_radius_free =              5.004487022111096 AA.
  | Species        1: outer_partition_radius set to              5.004487022111096 AA .
  | Species        2: Confinement radius =              4.999999999999999 AA, multipole_radius_free =              5.009370088163274 AA.
  | Species        2: outer_partition_radius set to              5.009370088163274 AA .
  | The sparse table of interatomic distances needs          1.64 kbyte instead of         1.15 kbyte of memory.
  | Using the partition_type stratmann_smoother will reduce your memory usage.
  | Net number of integration points:    91920
  | of which are non-zero points    :    85913
  Renormalizing the initial density to the exact electron count on the 3D integration grid.
  | Initial density: Formal number of electrons (from input files) :     120.0000000000
  | Integrated number of electrons on 3D grid     :     119.9999246395
  | Charge integration error                      :      -0.0000753605
  | Normalization factor for density and gradient :       1.0000006280
  Renormalizing the free-atom superposition density to the exact electron count on the 3D integration grid.
  | Formal number of electrons (from input files) :     120.0000000000
  | Integrated number of electrons on 3D grid     :     119.9999246395
  | Charge integration error                      :      -0.0000753605
  | Normalization factor for density and gradient :       1.0000006280
  Obtaining max. number of non-zero basis functions in each batch (get_n_compute_maxes).
  | Maximal number of non-zero basis functions:      160 in task     0
  | Maximal number of non-zero basis functions:      149 in task     1
  | Maximal number of non-zero basis functions:      159 in task     2
  | Maximal number of non-zero basis functions:      160 in task     3
  | Maximal number of non-zero basis functions:      166 in task     4
  | Maximal number of non-zero basis functions:      161 in task     5
  | Maximal number of non-zero basis functions:      160 in task     6
  | Maximal number of non-zero basis functions:      157 in task     7
  | Maximal number of non-zero basis functions:      158 in task     8
  | Maximal number of non-zero basis functions:      159 in task     9
  | Maximal number of non-zero basis functions:      161 in task    10
  | Maximal number of non-zero basis functions:      154 in task    11
  | Maximal number of non-zero basis functions:      165 in task    12
  | Maximal number of non-zero basis functions:      166 in task    13
  | Maximal number of non-zero basis functions:      166 in task    14
  | Maximal number of non-zero basis functions:      159 in task    15
  | Maximal number of non-zero basis functions:      159 in task    16
  | Maximal number of non-zero basis functions:      165 in task    17
  | Maximal number of non-zero basis functions:      166 in task    18
  | Maximal number of non-zero basis functions:      159 in task    19
  | Maximal number of non-zero basis functions:      159 in task    20
  | Maximal number of non-zero basis functions:      160 in task    21
  | Maximal number of non-zero basis functions:      156 in task    22
  | Maximal number of non-zero basis functions:      160 in task    23
  Selecting the method for density update.
  Loop over occupied states selected for charge density update.
  Allocating        0.132 MB for KS_eigenvector
  Integrating Hamiltonian matrix: batch-based integration.
  Time summed over all CPUs for integration: real work        0.682 s, elapsed        0.709 s
  Integrating overlap matrix.
  Time summed over all CPUs for integration: real work        0.260 s, elapsed        0.282 s
  Deallocating overlap matrix.

  Updating Kohn-Sham eigenvalues and eigenvectors using ELSI and the ELPA eigensolver.
  Overlap matrix is not singular
  | Lowest and highest eigenvalues :  0.4761E-02,  0.4839E+01
  Finished singularity check of overlap matrix
  | Time :     0.003 s
  Starting ELPA eigensolver
  Finished Cholesky decomposition
  | Time :     0.002 s
  Finished transformation to standard eigenproblem
  | Time :     0.001 s
  Finished solving standard eigenproblem
  | Time :     0.003 s
  Finished back-transformation of eigenvectors
  | Time :     0.001 s

  Obtaining occupation numbers and chemical potential using ELSI.
  | Chemical potential (Fermi level):    -8.17122715 eV
  Writing Kohn-Sham eigenvalues.

  State    Occupation    Eigenvalue [Ha]    Eigenvalue [eV]
      1       2.00000         -55.483838        -1509.79206
      2       2.00000         -55.482056        -1509.74357
      3       2.00000         -55.482056        -1509.74357
      4       2.00000         -24.354775         -662.72714
      5       2.00000         -24.354775         -662.72714
      6       2.00000         -24.350269         -662.60454
      7       2.00000         -24.350269         -662.60453
      8       2.00000         -24.334603         -662.17824
      9       2.00000         -24.329732         -662.04569
     10       2.00000         -24.329732         -662.04568
     11       2.00000         -24.329122         -662.02910
     12       2.00000         -24.329122         -662.02910
     13       2.00000          -3.948722         -107.45021
     14       2.00000          -3.946137         -107.37986
     15       2.00000          -3.946137         -107.37985
     16       2.00000          -2.541243          -69.15073
     17       2.00000          -2.540580          -69.13269
     18       2.00000          -2.539733          -69.10966
     19       2.00000          -2.538459          -69.07500
     20       2.00000          -2.538458          -69.07496
     21       2.00000          -2.537752          -69.05576
     22       2.00000          -2.537752          -69.05575
     23       2.00000          -2.537325          -69.04413
     24       2.00000          -2.537323          -69.04408
     25       2.00000          -1.185606          -32.26198
     26       2.00000          -1.172656          -31.90959
     27       2.00000          -1.172074          -31.89377
     28       2.00000          -1.150444          -31.30516
     29       2.00000          -1.140478          -31.03400
     30       2.00000          -1.133820          -30.85281
     31       2.00000          -1.133769          -30.85144
     32       2.00000          -1.131933          -30.80148
     33       2.00000          -1.131932          -30.80144
     34       2.00000          -0.555149          -15.10637
     35       2.00000          -0.542691          -14.76736
     36       2.00000          -0.526631          -14.33037
     37       2.00000          -0.525000          -14.28598
     38       2.00000          -0.511030          -13.90583
     39       2.00000          -0.497286          -13.53183
     40       2.00000          -0.481890          -13.11291
     41       2.00000          -0.481776          -13.10981
     42       2.00000          -0.478713          -13.02644
     43       2.00000          -0.476335          -12.96173
     44       2.00000          -0.475293          -12.93337
     45       2.00000          -0.472622          -12.86071
     46       2.00000          -0.465069          -12.65517
     47       2.00000          -0.462705          -12.59085
     48       2.00000          -0.462692          -12.59050
     49       2.00000          -0.461867          -12.56803
     50       2.00000          -0.444895          -12.10621
     51       2.00000          -0.443307          -12.06299
     52       2.00000          -0.441876          -12.02405
     53       2.00000          -0.441658          -12.01813
     54       2.00000          -0.438336          -11.92774
     55       2.00000          -0.438016          -11.91902
     56       2.00000          -0.436207          -11.86981
     57       2.00000          -0.435208          -11.84261
     58       2.00000          -0.434259          -11.81679
     59       2.00000          -0.433710          -11.80184
     60       2.00000          -0.432494          -11.76876
     61       0.00000          -0.159463           -4.33920
     62       0.00000          -0.141853           -3.86002
     63       0.00000          -0.103883           -2.82679
     64       0.00000          -0.038443           -1.04608
     65       0.00000          -0.021807           -0.59339
     66       0.00000          -0.002399           -0.06527
     67       0.00000           0.010272            0.27950
     68       0.00000           0.017852            0.48579
     69       0.00000           0.028453            0.77424
     70       0.00000           0.051601            1.40412
     71       0.00000           0.065835            1.79148
     72       0.00000           0.094718            2.57740
     73       0.00000           0.142224            3.87012
     74       0.00000           0.155923            4.24288
     75       0.00000           0.163102            4.43824
     76       0.00000           0.170340            4.63518
     77       0.00000           0.182018            4.95295
     78       0.00000           0.186963            5.08751
     79       0.00000           0.194330            5.28798
     80       0.00000           0.196902            5.35799
     81       0.00000           0.198120            5.39112
     82       0.00000           0.218498            5.94564
     83       0.00000           0.225044            6.12375
     84       0.00000           0.232989            6.33994
     85       0.00000           0.233614            6.35697
     86       0.00000           0.243590            6.62841
     87       0.00000           0.263551            7.17159
     88       0.00000           0.267983            7.29218
     89       0.00000           0.273042            7.42985
     90       0.00000           0.285920            7.78027
     91       0.00000           0.297093            8.08430
     92       0.00000           0.301526            8.20495
     93       0.00000           0.323724            8.80899
     94       0.00000           0.330464            8.99238
     95       0.00000           0.348388            9.48011
     96       0.00000           0.354063            9.63455

  Highest occupied state (VBM) at    -11.76875850 eV
  | Occupation number:      2.00000000

  Lowest unoccupied state (CBM) at    -4.33920358 eV
  | Occupation number:      0.00000000

  Overall HOMO-LUMO gap:      7.42955492 eV.
  Calculating total energy contributions from superposition of free atom densities.

  Total energy components:
  | Sum of eigenvalues            :        -886.49880004 Ha      -24122.85970681 eV
  | XC energy correction          :        -144.21915827 Ha       -3924.40296791 eV
  | XC potential correction       :         187.77564030 Ha        5109.63514801 eV
  | Free-atom electrostatic energy:        -782.33487584 Ha      -21288.41511425 eV
  | Hartree energy correction     :           0.00000000 Ha           0.00000000 eV
  | Entropy correction            :           0.00000000 Ha           0.00000000 eV
  | ---------------------------
  | Total energy                  :       -1625.27719385 Ha      -44226.04264095 eV
  | Total energy, T -> 0          :       -1625.27719385 Ha      -44226.04264095 eV  <-- do not rely on this value for anything but (periodic) metals
  | Electronic free energy        :       -1625.27719385 Ha      -44226.04264095 eV

  Derived energy quantities:
  | Kinetic energy                :        1627.38180188 Ha       44283.31193931 eV
  | Electrostatic energy          :       -3108.43983746 Ha      -84584.95161236 eV
  | Energy correction for multipole
  | error in Hartree potential    :           0.00000000 Ha           0.00000000 eV
  | Sum of eigenvalues per atom                           :       -2010.23830890 eV
  | Total energy (T->0) per atom                          :       -3685.50355341 eV  <-- do not rely on this value for anything but (periodic) metals
  | Electronic free energy per atom                       :       -3685.50355341 eV
  Initialize hartree_potential_storage
  Max. number of atoms included in rho_multipole:           12

  End scf initialization - timings             :  max(cpu_time)    wall_clock(cpu1)
  | Time for scf. initialization                :        0.112 s           0.112 s
  | Boundary condition initialization           :        0.000 s           0.000 s
  | Integration                                 :        0.043 s           0.043 s
  | Solution of K.-S. eqns.                     :        0.012 s           0.012 s
  | Grid partitioning                           :        0.035 s           0.035 s
  | Preloading free-atom quantities on grid     :        0.015 s           0.015 s
  | Free-atom superposition energy              :        0.005 s           0.004 s
  | Total energy evaluation                     :        0.000 s           0.001 s

  Partial memory accounting:
  | Current value for overall tracked memory usage:
  |   Minimum:        0.273 MB (on task 23)
  |   Maximum:        0.292 MB (on task  0)
  |   Average:        0.287 MB
  | Peak value for overall tracked memory usage:
  |   Minimum:        1.244 MB (on task  1 after allocating wave)
  |   Maximum:        1.360 MB (on task  4 after allocating wave)
  |   Average:        1.315 MB
  | Largest tracked array allocation so far:
  |   Minimum:        0.218 MB (H_times_psi on task  1)
  |   Maximum:        0.458 MB (all_coords on task 10)
  |   Average:        0.258 MB
  Note:  These values currently only include a subset of arrays which are explicitly tracked.
  The "true" memory usage will be greater.
------------------------------------------------------------
  Evaluating new KS density.
  Integration grid: deviation in total charge (<rho> - N_e) =   2.842171E-14

  Time for density update prior                :  max(cpu_time)    wall_clock(cpu1)
  | self-consistency iterative process          :        0.028 s           0.028 s

------------------------------------------------------------
          Begin self-consistency iteration #    1

  Date     :  20220517, Time     :  110609.571
------------------------------------------------------------
  Pulay mixing of updated and previous charge densities.
  Renormalizing the density to the exact electron count on the 3D integration grid.
  | Formal number of electrons (from input files) :     120.0000000000
  | Integrated number of electrons on 3D grid     :     120.0000000000
  | Charge integration error                      :       0.0000000000
  | Normalization factor for density and gradient :       1.0000000000

  Evaluating partitioned Hartree potential by multipole expansion.
  | Original multipole sum: apparent total charge =   0.164215E-12
  | Sum of charges compensated after spline to logarithmic grids =   0.222816E-03
  | Analytical far-field extrapolation by fixed multipoles:
  | Hartree multipole sum: apparent total charge =   0.160820E-12
  Summing up the Hartree potential.
  Time summed over all CPUs for potential: real work        0.383 s, elapsed        0.396 s
  | RMS charge density error from multipole expansion :   0.103766E-01

  Integrating Hamiltonian matrix: batch-based integration.
  Time summed over all CPUs for integration: real work        0.635 s, elapsed        0.676 s

  Updating Kohn-Sham eigenvalues and eigenvectors using ELSI and the ELPA eigensolver.
  Starting ELPA eigensolver
  Finished transformation to standard eigenproblem
  | Time :     0.000 s
  Finished solving standard eigenproblem
  | Time :     0.003 s
  Finished back-transformation of eigenvectors
  | Time :     0.001 s

  Obtaining occupation numbers and chemical potential using ELSI.
  | Chemical potential (Fermi level):    -7.72651387 eV
  Writing Kohn-Sham eigenvalues.

  State    Occupation    Eigenvalue [Ha]    Eigenvalue [eV]
      1       2.00000         -55.668910        -1514.82811
      2       2.00000         -55.668909        -1514.82807
      3       2.00000         -55.668346        -1514.81278
      4       2.00000         -24.207496         -658.71947
      5       2.00000         -24.207493         -658.71939
      6       2.00000         -24.199969         -658.51466
      7       2.00000         -24.199968         -658.51463
      8       2.00000         -24.056336         -654.60620
      9       2.00000         -24.043462         -654.25590
     10       2.00000         -24.043459         -654.25582
     11       2.00000         -24.042414         -654.22737
     12       2.00000         -24.042410         -654.22726
     13       2.00000          -4.104651         -111.69323
     14       2.00000          -4.102852         -111.64429
     15       2.00000          -4.102852         -111.64427
     16       2.00000          -2.698375          -73.42652
     17       2.00000          -2.697816          -73.41131
     18       2.00000          -2.697301          -73.39729
     19       2.00000          -2.697291          -73.39702
     20       2.00000          -2.695952          -73.36059
     21       2.00000          -2.694790          -73.32898
     22       2.00000          -2.694790          -73.32897
     23       2.00000          -2.694514          -73.32146
     24       2.00000          -2.694513          -73.32143
     25       2.00000          -1.144987          -31.15667
     26       2.00000          -1.127126          -30.67066
     27       2.00000          -1.125467          -30.62551
     28       2.00000          -1.106417          -30.10713
     29       2.00000          -1.002145          -27.26976
     30       2.00000          -0.988849          -26.90796
     31       2.00000          -0.988816          -26.90704
     32       2.00000          -0.985077          -26.80531
     33       2.00000          -0.985073          -26.80519
     34       2.00000          -0.533103          -14.50646
     35       2.00000          -0.522962          -14.23051
     36       2.00000          -0.496135          -13.50051
     37       2.00000          -0.493569          -13.43071
     38       2.00000          -0.471454          -12.82891
     39       2.00000          -0.454554          -12.36905
     40       2.00000          -0.435009          -11.83720
     41       2.00000          -0.431671          -11.74638
     42       2.00000          -0.426890          -11.61627
     43       2.00000          -0.424154          -11.54182
     44       2.00000          -0.414626          -11.28254
     45       2.00000          -0.397232          -10.80924
     46       2.00000          -0.377877          -10.28256
     47       2.00000          -0.367514          -10.00056
     48       2.00000          -0.363265           -9.88493
     49       2.00000          -0.340489           -9.26518
     50       2.00000          -0.339874           -9.24843
     51       2.00000          -0.313937           -8.54266
     52       2.00000          -0.312244           -8.49659
     53       2.00000          -0.308743           -8.40134
     54       2.00000          -0.307683           -8.37248
     55       2.00000          -0.303506           -8.25883
     56       2.00000          -0.302356           -8.22753
     57       2.00000          -0.295109           -8.03032
     58       2.00000          -0.294806           -8.02208
     59       2.00000          -0.292419           -7.95712
     60       2.00000          -0.291989           -7.94542
     61       0.00000          -0.178422           -4.85510
     62       0.00000          -0.161514           -4.39501
     63       0.00000          -0.127568           -3.47129
     64       0.00000          -0.060799           -1.65441
     65       0.00000          -0.039569           -1.07672
     66       0.00000          -0.022386           -0.60916
     67       0.00000          -0.012195           -0.33184
     68       0.00000           0.008812            0.23978
     69       0.00000           0.014088            0.38335
     70       0.00000           0.030653            0.83410
     71       0.00000           0.052103            1.41780
     72       0.00000           0.070345            1.91419
     73       0.00000           0.134872            3.67006
     74       0.00000           0.147220            4.00605
     75       0.00000           0.156048            4.24627
     76       0.00000           0.157038            4.27321
     77       0.00000           0.160467            4.36652
     78       0.00000           0.186428            5.07297
     79       0.00000           0.189365            5.15289
     80       0.00000           0.196634            5.35067
     81       0.00000           0.200997            5.46940
     82       0.00000           0.203309            5.53231
     83       0.00000           0.214263            5.83038
     84       0.00000           0.223529            6.08255
     85       0.00000           0.224693            6.11422
     86       0.00000           0.232364            6.32296
     87       0.00000           0.248847            6.77147
     88       0.00000           0.253144            6.88841
     89       0.00000           0.260906            7.09961
     90       0.00000           0.268208            7.29831
     91       0.00000           0.294333            8.00922
     92       0.00000           0.297085            8.08409
     93       0.00000           0.312171            8.49459
     94       0.00000           0.343832            9.35615
     95       0.00000           0.345125            9.39132
     96       0.00000           0.372795           10.14426

  Highest occupied state (VBM) at     -7.94542001 eV
  | Occupation number:      2.00000000

  Lowest unoccupied state (CBM) at    -4.85509748 eV
  | Occupation number:      0.00000000

  Overall HOMO-LUMO gap:      3.09032253 eV.

  Total energy components:
  | Sum of eigenvalues            :        -880.78398844 Ha      -23967.35177088 eV
  | XC energy correction          :        -145.58849580 Ha       -3961.66453805 eV
  | XC potential correction       :         189.57627974 Ha        5158.63304017 eV
  | Free-atom electrostatic energy:        -782.33487584 Ha      -21288.41511425 eV
  | Hartree energy correction     :          -5.90744957 Ha        -160.74988156 eV
  | Entropy correction            :          -0.00000000 Ha          -0.00000000 eV
  | ---------------------------
  | Total energy                  :       -1625.03852991 Ha      -44219.54826457 eV
  | Total energy, T -> 0          :       -1625.03852991 Ha      -44219.54826457 eV  <-- do not rely on this value for anything but (periodic) metals
  | Electronic free energy        :       -1625.03852991 Ha      -44219.54826457 eV

  Derived energy quantities:
  | Kinetic energy                :        1633.76933962 Ha       44457.12568468 eV
  | Electrostatic energy          :       -3113.21937372 Ha      -84715.00941120 eV
  | Energy correction for multipole
  | error in Hartree potential    :           0.03352406 Ha           0.91223598 eV
  | Sum of eigenvalues per atom                           :       -1997.27931424 eV
  | Total energy (T->0) per atom                          :       -3684.96235538 eV  <-- do not rely on this value for anything but (periodic) metals
  | Electronic free energy per atom                       :       -3684.96235538 eV
  Evaluating new KS density.
  Integration grid: deviation in total charge (<rho> - N_e) =   1.421085E-14

  Self-consistency convergence accuracy:
  | Change of charge density      :  0.6191E+00
  | Change of sum of eigenvalues  :  0.1555E+03 eV
  | Change of total energy        :  0.6494E+01 eV


------------------------------------------------------------
  End self-consistency iteration #     1       :  max(cpu_time)    wall_clock(cpu1)
  | Time for this iteration                     :        0.079 s           0.079 s
  | Charge density update                       :        0.026 s           0.026 s
  | Density mixing                              :        0.001 s           0.000 s
  | Hartree multipole update                    :        0.002 s           0.002 s
  | Hartree multipole summation                 :        0.017 s           0.017 s
  | Integration                                 :        0.029 s           0.029 s
  | Solution of K.-S. eqns.                     :        0.004 s           0.004 s
  | Total energy evaluation                     :        0.000 s           0.001 s

  Partial memory accounting:
  | Current value for overall tracked memory usage:
  |   Minimum:        0.273 MB (on task 23)
  |   Maximum:        0.292 MB (on task  0)
  |   Average:        0.287 MB
  | Peak value for overall tracked memory usage:
  |   Minimum:        1.244 MB (on task  1 after allocating wave)
  |   Maximum:        1.360 MB (on task  4 after allocating wave)
  |   Average:        1.315 MB
  | Largest tracked array allocation so far:
  |   Minimum:        0.655 MB (gradient_basis_wave on task  1)
  |   Maximum:        0.729 MB (gradient_basis_wave on task  4)
  |   Average:        0.704 MB
  Note:  These values currently only include a subset of arrays which are explicitly tracked.
  The "true" memory usage will be greater.
------------------------------------------------------------

------------------------------------------------------------
          Begin self-consistency iteration #    2

  Date     :  20220517, Time     :  110609.656
------------------------------------------------------------
  Pulay mixing of updated and previous charge densities.
  Renormalizing the density to the exact electron count on the 3D integration grid.
  | Formal number of electrons (from input files) :     120.0000000000
  | Integrated number of electrons on 3D grid     :     120.0000000000
  | Charge integration error                      :      -0.0000000000
  | Normalization factor for density and gradient :       1.0000000000

  Evaluating partitioned Hartree potential by multipole expansion.
  | Original multipole sum: apparent total charge =   0.920693E-13
  | Sum of charges compensated after spline to logarithmic grids =   0.195695E-03
  | Analytical far-field extrapolation by fixed multipoles:
  | Hartree multipole sum: apparent total charge =   0.943077E-13
  Summing up the Hartree potential.
  Time summed over all CPUs for potential: real work        0.381 s, elapsed        0.394 s
  | RMS charge density error from multipole expansion :   0.116352E-01

  Integrating Hamiltonian matrix: batch-based integration.
  Time summed over all CPUs for integration: real work        0.635 s, elapsed        0.678 s

  Updating Kohn-Sham eigenvalues and eigenvectors using ELSI and the ELPA eigensolver.
  Starting ELPA eigensolver
  Finished transformation to standard eigenproblem
  | Time :     0.000 s
  Finished solving standard eigenproblem
  | Time :     0.003 s
  Finished back-transformation of eigenvectors
  | Time :     0.001 s

  Obtaining occupation numbers and chemical potential using ELSI.
  | Chemical potential (Fermi level):    -8.02804670 eV
  Highest occupied state (VBM) at     -9.39905866 eV
  | Occupation number:      2.00000000

  Lowest unoccupied state (CBM) at    -5.12016570 eV
  | Occupation number:      0.00000000

  Overall HOMO-LUMO gap:      4.27889296 eV.

  Checking to see if s.c.f. parameters should be adjusted.

  Total energy components:
  | Sum of eigenvalues            :        -884.27874540 Ha      -24062.44894618 eV
  | XC energy correction          :        -145.02245606 Ha       -3946.26181287 eV
  | XC potential correction       :         188.83160649 Ha        5138.36944990 eV
  | Free-atom electrostatic energy:        -782.33487584 Ha      -21288.41511425 eV
  | Hartree energy correction     :          -2.14240922 Ha         -58.29792096 eV
  | Entropy correction            :           0.00000000 Ha           0.00000000 eV
  | ---------------------------
  | Total energy                  :       -1624.94688002 Ha      -44217.05434436 eV
  | Total energy, T -> 0          :       -1624.94688002 Ha      -44217.05434436 eV  <-- do not rely on this value for anything but (periodic) metals
  | Electronic free energy        :       -1624.94688002 Ha      -44217.05434436 eV

  Derived energy quantities:
  | Kinetic energy                :        1629.61484087 Ha       44344.07602188 eV
  | Electrostatic energy          :       -3109.53926484 Ha      -84614.86855337 eV
  | Energy correction for multipole
  | error in Hartree potential    :           0.03565165 Ha           0.97013073 eV
  | Sum of eigenvalues per atom                           :       -2005.20407885 eV
  | Total energy (T->0) per atom                          :       -3684.75452870 eV  <-- do not rely on this value for anything but (periodic) metals
  | Electronic free energy per atom                       :       -3684.75452870 eV
  Evaluating new KS density.
  Integration grid: deviation in total charge (<rho> - N_e) =   4.263256E-14

  Self-consistency convergence accuracy:
  | Change of charge density      :  0.5684E+00
  | Change of sum of eigenvalues  : -0.9510E+02 eV
  | Change of total energy        :  0.2494E+01 eV


------------------------------------------------------------
  End self-consistency iteration #     2       :  max(cpu_time)    wall_clock(cpu1)
  | Time for this iteration                     :        0.082 s           0.079 s
  | Charge density update                       :        0.026 s           0.026 s
  | Density mixing                              :        0.004 s           0.001 s
  | Hartree multipole update                    :        0.001 s           0.001 s
  | Hartree multipole summation                 :        0.017 s           0.017 s
  | Integration                                 :        0.029 s           0.029 s
  | Solution of K.-S. eqns.                     :        0.004 s           0.004 s
  | Total energy evaluation                     :        0.000 s           0.000 s

  Partial memory accounting:
  | Current value for overall tracked memory usage:
  |   Minimum:        0.274 MB (on task 23)
  |   Maximum:        0.293 MB (on task  0)
  |   Average:        0.288 MB
  | Peak value for overall tracked memory usage:
  |   Minimum:        1.244 MB (on task  1 after allocating wave)
  |   Maximum:        1.360 MB (on task  4 after allocating wave)
  |   Average:        1.315 MB
  | Largest tracked array allocation so far:
  |   Minimum:        0.655 MB (gradient_basis_wave on task  1)
  |   Maximum:        0.729 MB (gradient_basis_wave on task  4)
  |   Average:        0.704 MB
  Note:  These values currently only include a subset of arrays which are explicitly tracked.
  The "true" memory usage will be greater.
------------------------------------------------------------

------------------------------------------------------------
          Begin self-consistency iteration #    3

  Date     :  20220517, Time     :  110609.740
------------------------------------------------------------
  Pulay mixing of updated and previous charge densities.
  Renormalizing the density to the exact electron count on the 3D integration grid.
  | Formal number of electrons (from input files) :     120.0000000000
  | Integrated number of electrons on 3D grid     :     120.0000000000
  | Charge integration error                      :      -0.0000000000
  | Normalization factor for density and gradient :       1.0000000000

  Evaluating partitioned Hartree potential by multipole expansion.
  | Original multipole sum: apparent total charge =   0.595265E-13
  | Sum of charges compensated after spline to logarithmic grids =   0.265567E-03
  | Analytical far-field extrapolation by fixed multipoles:
  | Hartree multipole sum: apparent total charge =   0.607564E-13
  Summing up the Hartree potential.
  Time summed over all CPUs for potential: real work        0.381 s, elapsed        0.394 s
  | RMS charge density error from multipole expansion :   0.155996E-01

  Integrating Hamiltonian matrix: batch-based integration.
  Time summed over all CPUs for integration: real work        0.635 s, elapsed        0.675 s

  Updating Kohn-Sham eigenvalues and eigenvectors using ELSI and the ELPA eigensolver.
  Starting ELPA eigensolver
  Finished transformation to standard eigenproblem
  | Time :     0.001 s
  Finished solving standard eigenproblem
  | Time :     0.003 s
  Finished back-transformation of eigenvectors
  | Time :     0.000 s

  Obtaining occupation numbers and chemical potential using ELSI.
  | Chemical potential (Fermi level):    -8.04127007 eV
  Highest occupied state (VBM) at     -8.93888132 eV
  | Occupation number:      2.00000000

  Lowest unoccupied state (CBM) at    -5.30960707 eV
  | Occupation number:      0.00000000

  Overall HOMO-LUMO gap:      3.62927425 eV.

  Total energy components:
  | Sum of eigenvalues            :        -885.31921687 Ha      -24090.76161543 eV
  | XC energy correction          :        -144.98079546 Ha       -3945.12817051 eV
  | XC potential correction       :         188.77583113 Ha        5136.85172514 eV
  | Free-atom electrostatic energy:        -782.33487584 Ha      -21288.41511425 eV
  | Hartree energy correction     :          -1.08680974 Ha         -29.57359781 eV
  | Entropy correction            :           0.00000000 Ha           0.00000000 eV
  | ---------------------------
  | Total energy                  :       -1624.94586679 Ha      -44217.02677285 eV
  | Total energy, T -> 0          :       -1624.94586679 Ha      -44217.02677285 eV  <-- do not rely on this value for anything but (periodic) metals
  | Electronic free energy        :       -1624.94586679 Ha      -44217.02677285 eV

  Derived energy quantities:
  | Kinetic energy                :        1627.94640165 Ha       44298.67548062 eV
  | Electrostatic energy          :       -3107.91147297 Ha      -84570.57408297 eV
  | Energy correction for multipole
  | error in Hartree potential    :           0.04712955 Ha           1.28246040 eV
  | Sum of eigenvalues per atom                           :       -2007.56346795 eV
  | Total energy (T->0) per atom                          :       -3684.75223107 eV  <-- do not rely on this value for anything but (periodic) metals
  | Electronic free energy per atom                       :       -3684.75223107 eV
  Evaluating new KS density.
  Integration grid: deviation in total charge (<rho> - N_e) =  -2.842171E-14

  Self-consistency convergence accuracy:
  | Change of charge density      :  0.1425E+00
  | Change of sum of eigenvalues  : -0.2831E+02 eV
  | Change of total energy        :  0.2757E-01 eV


------------------------------------------------------------
  End self-consistency iteration #     3       :  max(cpu_time)    wall_clock(cpu1)
  | Time for this iteration                     :        0.081 s           0.080 s
  | Charge density update                       :        0.026 s           0.026 s
  | Density mixing                              :        0.004 s           0.003 s
  | Hartree multipole update                    :        0.001 s           0.001 s
  | Hartree multipole summation                 :        0.017 s           0.017 s
  | Integration                                 :        0.029 s           0.028 s
  | Solution of K.-S. eqns.                     :        0.004 s           0.004 s
  | Total energy evaluation                     :        0.000 s           0.000 s

  Partial memory accounting:
  | Current value for overall tracked memory usage:
  |   Minimum:        0.274 MB (on task 23)
  |   Maximum:        0.293 MB (on task  0)
  |   Average:        0.288 MB
  | Peak value for overall tracked memory usage:
  |   Minimum:        1.244 MB (on task  1 after allocating wave)
  |   Maximum:        1.360 MB (on task  4 after allocating wave)
  |   Average:        1.315 MB
  | Largest tracked array allocation so far:
  |   Minimum:        0.655 MB (gradient_basis_wave on task  1)
  |   Maximum:        0.729 MB (gradient_basis_wave on task  4)
  |   Average:        0.704 MB
  Note:  These values currently only include a subset of arrays which are explicitly tracked.
  The "true" memory usage will be greater.
------------------------------------------------------------

------------------------------------------------------------
          Begin self-consistency iteration #    4

  Date     :  20220517, Time     :  110609.826
------------------------------------------------------------
  Pulay mixing of updated and previous charge densities.
  Renormalizing the density to the exact electron count on the 3D integration grid.
  | Formal number of electrons (from input files) :     120.0000000000
  | Integrated number of electrons on 3D grid     :     120.0000000000
  | Charge integration error                      :       0.0000000000
  | Normalization factor for density and gradient :       1.0000000000

  Evaluating partitioned Hartree potential by multipole expansion.
  | Original multipole sum: apparent total charge =   0.108230E-12
  | Sum of charges compensated after spline to logarithmic grids =   0.303494E-03
  | Analytical far-field extrapolation by fixed multipoles:
  | Hartree multipole sum: apparent total charge =   0.106557E-12
  Summing up the Hartree potential.
  Time summed over all CPUs for potential: real work        0.381 s, elapsed        0.394 s
  | RMS charge density error from multipole expansion :   0.179890E-01

  Integrating Hamiltonian matrix: batch-based integration.
  Time summed over all CPUs for integration: real work        0.635 s, elapsed        0.675 s

  Updating Kohn-Sham eigenvalues and eigenvectors using ELSI and the ELPA eigensolver.
  Starting ELPA eigensolver
  Finished transformation to standard eigenproblem
  | Time :     0.001 s
  Finished solving standard eigenproblem
  | Time :     0.003 s
  Finished back-transformation of eigenvectors
  | Time :     0.000 s

  Obtaining occupation numbers and chemical potential using ELSI.
  | Chemical potential (Fermi level):    -8.05065134 eV
  Highest occupied state (VBM) at     -9.12326675 eV
  | Occupation number:      2.00000000

  Lowest unoccupied state (CBM) at    -5.30477236 eV
  | Occupation number:      0.00000000

  Overall HOMO-LUMO gap:      3.81849440 eV.

  Total energy components:
  | Sum of eigenvalues            :        -885.56552905 Ha      -24097.46411080 eV
  | XC energy correction          :        -144.95156281 Ha       -3944.33270952 eV
  | XC potential correction       :         188.73655883 Ha        5135.78307141 eV
  | Free-atom electrostatic energy:        -782.33487584 Ha      -21288.41511425 eV
  | Hartree energy correction     :          -0.82654468 Ha         -22.49142501 eV
  | Entropy correction            :           0.00000000 Ha           0.00000000 eV
  | ---------------------------
  | Total energy                  :       -1624.94195355 Ha      -44216.92028816 eV
  | Total energy, T -> 0          :       -1624.94195355 Ha      -44216.92028816 eV  <-- do not rely on this value for anything but (periodic) metals
  | Electronic free energy        :       -1624.94195355 Ha      -44216.92028816 eV

  Derived energy quantities:
  | Kinetic energy                :        1627.03669358 Ha       44273.92106462 eV
  | Electrostatic energy          :       -3107.02708432 Ha      -84546.50864326 eV
  | Energy correction for multipole
  | error in Hartree potential    :           0.05363750 Ha           1.45955056 eV
  | Sum of eigenvalues per atom                           :       -2008.12200923 eV
  | Total energy (T->0) per atom                          :       -3684.74335735 eV  <-- do not rely on this value for anything but (periodic) metals
  | Electronic free energy per atom                       :       -3684.74335735 eV
  Evaluating new KS density.
  Integration grid: deviation in total charge (<rho> - N_e) =   1.421085E-14

  Self-consistency convergence accuracy:
  | Change of charge density      :  0.1188E+00
  | Change of sum of eigenvalues  : -0.6702E+01 eV
  | Change of total energy        :  0.1065E+00 eV


------------------------------------------------------------
  End self-consistency iteration #     4       :  max(cpu_time)    wall_clock(cpu1)
  | Time for this iteration                     :        0.081 s           0.078 s
  | Charge density update                       :        0.026 s           0.026 s
  | Density mixing                              :        0.004 s           0.001 s
  | Hartree multipole update                    :        0.001 s           0.001 s
  | Hartree multipole summation                 :        0.017 s           0.017 s
  | Integration                                 :        0.029 s           0.028 s
  | Solution of K.-S. eqns.                     :        0.004 s           0.004 s
  | Total energy evaluation                     :        0.000 s           0.000 s

  Partial memory accounting:
  | Current value for overall tracked memory usage:
  |   Minimum:        0.274 MB (on task 23)
  |   Maximum:        0.293 MB (on task  0)
  |   Average:        0.288 MB
  | Peak value for overall tracked memory usage:
  |   Minimum:        1.244 MB (on task  1 after allocating wave)
  |   Maximum:        1.360 MB (on task  4 after allocating wave)
  |   Average:        1.315 MB
  | Largest tracked array allocation so far:
  |   Minimum:        0.655 MB (gradient_basis_wave on task  1)
  |   Maximum:        0.729 MB (gradient_basis_wave on task  4)
  |   Average:        0.704 MB
  Note:  These values currently only include a subset of arrays which are explicitly tracked.
  The "true" memory usage will be greater.
------------------------------------------------------------

------------------------------------------------------------
          Begin self-consistency iteration #    5

  Date     :  20220517, Time     :  110609.911
------------------------------------------------------------
  Pulay mixing of updated and previous charge densities.
  Renormalizing the density to the exact electron count on the 3D integration grid.
  | Formal number of electrons (from input files) :     120.0000000000
  | Integrated number of electrons on 3D grid     :     120.0000000000
  | Charge integration error                      :       0.0000000000
  | Normalization factor for density and gradient :       1.0000000000

  Evaluating partitioned Hartree potential by multipole expansion.
  | Original multipole sum: apparent total charge =   0.959804E-13
  | Sum of charges compensated after spline to logarithmic grids =   0.300744E-03
  | Analytical far-field extrapolation by fixed multipoles:
  | Hartree multipole sum: apparent total charge =   0.964723E-13
  Summing up the Hartree potential.
  Time summed over all CPUs for potential: real work        0.381 s, elapsed        0.394 s
  | RMS charge density error from multipole expansion :   0.177483E-01

  Integrating Hamiltonian matrix: batch-based integration.
  Time summed over all CPUs for integration: real work        0.636 s, elapsed        0.675 s

  Updating Kohn-Sham eigenvalues and eigenvectors using ELSI and the ELPA eigensolver.
  Starting ELPA eigensolver
  Finished transformation to standard eigenproblem
  | Time :     0.000 s
  Finished solving standard eigenproblem
  | Time :     0.003 s
  Finished back-transformation of eigenvectors
  | Time :     0.000 s

  Obtaining occupation numbers and chemical potential using ELSI.
  | Chemical potential (Fermi level):    -8.04099392 eV
  Highest occupied state (VBM) at     -9.19944806 eV
  | Occupation number:      2.00000000

  Lowest unoccupied state (CBM) at    -5.25885375 eV
  | Occupation number:      0.00000000

  Overall HOMO-LUMO gap:      3.94059431 eV.

  Total energy components:
  | Sum of eigenvalues            :        -885.39458542 Ha      -24092.81249819 eV
  | XC energy correction          :        -144.94365424 Ha       -3944.11750637 eV
  | XC potential correction       :         188.72633399 Ha        5135.50483950 eV
  | Free-atom electrostatic energy:        -782.33487584 Ha      -21288.41511425 eV
  | Hartree energy correction     :          -0.99474421 Ha         -27.06836720 eV
  | Entropy correction            :           0.00000000 Ha           0.00000000 eV
[...]
   Total forces(   7)            :  0.229106E+01 -0.132541E+01  0.881035E+00
  atom #    8
   Hellmann-Feynman              :  0.263219E+01  0.102239E+01 -0.715827E+00
   Ionic forces                  :  0.000000E+00  0.000000E+00  0.000000E+00
   Multipole                     :  0.466089E+00  0.225734E+00 -0.119125E+00
   Hartree pot. SCF incomplete   : -0.624437E-06 -0.205659E-06  0.176210E-06
   Pulay + GGA                   : -0.642675E+01 -0.269600E+01  0.171451E+01
   ----------------------------------------------------------------
   Total forces(   8)            : -0.332847E+01 -0.144788E+01  0.879559E+00
  atom #    9
   Hellmann-Feynman              : -0.152342E+00 -0.462098E+00  0.167819E+00
   Ionic forces                  :  0.000000E+00  0.000000E+00  0.000000E+00
   Multipole                     :  0.485017E+00 -0.798657E-01  0.376027E+00
   Hartree pot. SCF incomplete   : -0.445355E-06 -0.668478E-07 -0.876291E-06
   Pulay + GGA                   : -0.337638E+01  0.216173E+01 -0.323208E+01
   ----------------------------------------------------------------
   Total forces(   9)            : -0.304371E+01  0.161977E+01 -0.268823E+01
  atom #   10
   Hellmann-Feynman              : -0.754791E+00  0.666682E+00  0.442051E+00
   Ionic forces                  :  0.000000E+00  0.000000E+00  0.000000E+00
   Multipole                     : -0.752487E-01 -0.572771E-02  0.514707E+00
   Hartree pot. SCF incomplete   :  0.923631E-08  0.421567E-06 -0.935503E-06
   Pulay + GGA                   :  0.201836E+01 -0.144472E+01 -0.335494E+01
   ----------------------------------------------------------------
   Total forces(  10)            :  0.118832E+01 -0.783765E+00 -0.239818E+01
  atom #   11
   Hellmann-Feynman              :  0.105121E+01  0.134679E+01  0.153336E+01
   Ionic forces                  :  0.000000E+00  0.000000E+00  0.000000E+00
   Multipole                     :  0.852394E-01  0.399605E+00  0.354390E+00
   Hartree pot. SCF incomplete   :  0.193486E-06 -0.202259E-06 -0.305113E-06
   Pulay + GGA                   : -0.231091E+01 -0.422942E+01 -0.478790E+01
   ----------------------------------------------------------------
   Total forces(  11)            : -0.117447E+01 -0.248303E+01 -0.290015E+01
  atom #   12
   Hellmann-Feynman              : -0.206600E+01 -0.833117E+00  0.457994E+00
   Ionic forces                  :  0.000000E+00  0.000000E+00  0.000000E+00
   Multipole                     : -0.469455E+00 -0.228725E-01  0.125965E+00
   Hartree pot. SCF incomplete   :  0.243830E-06 -0.199268E-06 -0.893479E-07
   Pulay + GGA                   :  0.616396E+01  0.175451E+01 -0.198059E+01
   ----------------------------------------------------------------
   Total forces(  12)            :  0.362850E+01  0.898517E+00 -0.139663E+01


  Self-consistency convergence accuracy:
  | Change of charge density      :  0.5849E-07
  | Change of sum of eigenvalues  :  0.9558E-05 eV
  | Change of total energy        : -0.1077E-08 eV
  | Change of forces              :  0.2128E-06 eV/A

  Writing Kohn-Sham eigenvalues.

  State    Occupation    Eigenvalue [Ha]    Eigenvalue [eV]
      1       2.00000         -55.651987        -1514.36763
      2       2.00000         -55.644207        -1514.15591
      3       2.00000         -55.644206        -1514.15589
      4       2.00000         -24.296569         -661.14328
      5       2.00000         -24.296564         -661.14315
      6       2.00000         -24.290107         -660.96744
      7       2.00000         -24.290101         -660.96727
      8       2.00000         -24.203951         -658.62302
      9       2.00000         -24.201215         -658.54857
     10       2.00000         -24.201215         -658.54857
     11       2.00000         -24.200427         -658.52712
     12       2.00000         -24.200421         -658.52696
     13       2.00000          -4.101524         -111.60815
     14       2.00000          -4.092724         -111.36869
     15       2.00000          -4.092724         -111.36869
     16       2.00000          -2.694891          -73.33172
     17       2.00000          -2.693488          -73.29353
     18       2.00000          -2.691023          -73.22646
     19       2.00000          -2.687492          -73.13038
     20       2.00000          -2.687490          -73.13032
     21       2.00000          -2.683125          -73.01155
     22       2.00000          -2.683125          -73.01154
     23       2.00000          -2.682147          -72.98493
     24       2.00000          -2.682146          -72.98491
     25       2.00000          -1.174952          -31.97208
     26       2.00000          -1.152053          -31.34896
     27       2.00000          -1.150688          -31.31182
     28       2.00000          -1.137469          -30.95211
     29       2.00000          -1.045367          -28.44589
     30       2.00000          -1.037471          -28.23103
     31       2.00000          -1.037443          -28.23027
     32       2.00000          -1.034566          -28.15199
     33       2.00000          -1.034561          -28.15183
     34       2.00000          -0.559528          -15.22553
     35       2.00000          -0.545191          -14.83541
     36       2.00000          -0.518360          -14.10530
     37       2.00000          -0.516362          -14.05092
     38       2.00000          -0.495283          -13.47735
     39       2.00000          -0.479373          -13.04441
     40       2.00000          -0.463541          -12.61358
     41       2.00000          -0.460745          -12.53752
     42       2.00000          -0.450845          -12.26812
     43       2.00000          -0.448114          -12.19380
     44       2.00000          -0.445688          -12.12780
     45       2.00000          -0.426733          -11.61198
     46       2.00000          -0.414529          -11.27990
     47       2.00000          -0.406848          -11.07091
     48       2.00000          -0.402971          -10.96539
     49       2.00000          -0.387060          -10.53243
     50       2.00000          -0.386592          -10.51970
     51       2.00000          -0.353008           -9.60583
     52       2.00000          -0.351916           -9.57613
     53       2.00000          -0.350181           -9.52891
     54       2.00000          -0.350029           -9.52477
     55       2.00000          -0.345973           -9.41441
     56       2.00000          -0.345159           -9.39226
     57       2.00000          -0.340276           -9.25937
     58       2.00000          -0.340004           -9.25197
     59       2.00000          -0.337921           -9.19531
     60       2.00000          -0.337661           -9.18823
     61       0.00000          -0.192663           -5.24263
     62       0.00000          -0.176033           -4.79011
     63       0.00000          -0.138676           -3.77356
     64       0.00000          -0.065237           -1.77518
     65       0.00000          -0.045905           -1.24914
     66       0.00000          -0.026700           -0.72655
     67       0.00000          -0.018444           -0.50190
     68       0.00000           0.002166            0.05895
     69       0.00000           0.010471            0.28494
     70       0.00000           0.024185            0.65810
     71       0.00000           0.046653            1.26950
     72       0.00000           0.067169            1.82775
     73       0.00000           0.130692            3.55630
     74       0.00000           0.141593            3.85293
     75       0.00000           0.151193            4.11416
     76       0.00000           0.153174            4.16808
     77       0.00000           0.157193            4.27744
     78       0.00000           0.182888            4.97662
     79       0.00000           0.183828            5.00220
     80       0.00000           0.191781            5.21861
     81       0.00000           0.196487            5.34669
     82       0.00000           0.197779            5.38183
     83       0.00000           0.206456            5.61796
     84       0.00000           0.216798            5.89936
     85       0.00000           0.217820            5.92718
     86       0.00000           0.229318            6.24007
     87       0.00000           0.243749            6.63274
     88       0.00000           0.248271            6.75580
     89       0.00000           0.254613            6.92837
     90       0.00000           0.262144            7.13330
     91       0.00000           0.289179            7.86897
     92       0.00000           0.291606            7.93502
     93       0.00000           0.304970            8.29866
     94       0.00000           0.333879            9.08530
     95       0.00000           0.336600            9.15936
     96       0.00000           0.361253            9.83020

  Highest occupied state (VBM) at     -9.18822665 eV
  | Occupation number:      2.00000000

  Lowest unoccupied state (CBM) at    -5.24262522 eV
  | Occupation number:      0.00000000

  Overall HOMO-LUMO gap:      3.94560143 eV.
  | Chemical Potential                          :    -8.03149501 eV

  Self-consistency cycle converged.


------------------------------------------------------------
  End self-consistency iteration #    15       :  max(cpu_time)    wall_clock(cpu1)
  | Time for this iteration                     :        0.260 s           0.257 s
  | Charge density & force component update     :        0.138 s           0.137 s
  | Density mixing                              :        0.005 s           0.002 s
  | Hartree multipole update                    :        0.001 s           0.002 s
  | Hartree multipole summation                 :        0.050 s           0.050 s
  | Hartree pot. SCF incomplete forces          :        0.032 s           0.032 s
  | Integration                                 :        0.028 s           0.028 s
  | Solution of K.-S. eqns.                     :        0.004 s           0.004 s
  | Total energy evaluation                     :        0.000 s           0.001 s

  Partial memory accounting:
  | Current value for overall tracked memory usage:
  |   Minimum:        0.274 MB (on task 23)
  |   Maximum:        0.293 MB (on task  0)
  |   Average:        0.289 MB
  | Peak value for overall tracked memory usage:
  |   Minimum:        2.739 MB (on task  1 after allocating hessian_basis_wave)
  |   Maximum:        2.988 MB (on task  4 after allocating hessian_basis_wave)
  |   Average:        2.898 MB
  | Largest tracked array allocation so far:
  |   Minimum:        1.310 MB (hessian_basis_wave on task  1)
  |   Maximum:        1.459 MB (hessian_basis_wave on task  4)
  |   Average:        1.408 MB
  Note:  These values currently only include a subset of arrays which are explicitly tracked.
  The "true" memory usage will be greater.
------------------------------------------------------------
  Removing unitary transformations (pure translations, rotations) from forces on atoms.
  Atomic forces before filtering:
  | Net force on center of mass :   0.788323E-02 -0.355176E-03 -0.137886E-02 eV/A
  | Net torque on center of mass:  -0.374019E-02  0.414809E-02 -0.368397E-02 eV
  Atomic forces after filtering:
  | Net force on center of mass :   0.713624E-15 -0.356812E-15  0.107044E-14 eV/A
  | Net torque on center of mass:  -0.264344E-14  0.113290E-14  0.755268E-15 eV

  Energy and forces in a compact form:
  | Total energy uncorrected      :         -0.442169083317713E+05 eV
  | Total energy corrected        :         -0.442169083317713E+05 eV  <-- do not rely on this value for anything but (periodic) metals
  | Electronic free energy        :         -0.442169083317713E+05 eV
  Total atomic forces (unitary forces cleaned) [eV/Ang]:
  |    1         -0.227312026158920E+01          0.191717504154416E+01          0.314867526028787E+01
  |    2          0.256336149393441E+01          0.113449805920260E+01         -0.674543891988636E+00
  |    3         -0.349289372604447E+01          0.251706337474998E+01         -0.477771055719224E+00
  |    4          0.381886660160566E+01          0.805313843898358E+00         -0.825390728794146E+00
  |    5         -0.698664330655978E+00          0.467700570234090E+00          0.429101282043702E+01
  |    6          0.525737604062542E+00         -0.331996483614515E+01          0.215970159547386E+01
  |    7          0.229027520915127E+01         -0.132550561127220E+01          0.881165357767198E+00
  |    8         -0.332938687692048E+01         -0.144747850711593E+01          0.879955414476230E+00
  |    9         -0.304413833819723E+01          0.162004708918389E+01         -0.268812984588883E+01
  |   10          0.118741522256163E+01         -0.783943386819929E+00         -0.239802245617680E+01
  |   11         -0.117539878523569E+01         -0.248303730693292E+01         -0.289991516163908E+01
  |   12          0.362794618732755E+01          0.898131669473037E+00         -0.139673730823545E+01

  ------------------------------------ 
  Start decomposition of the XC Energy 
  ------------------------------------ 
  X and C from original XC functional choice 
  Hartree-Fock Energy :          0.000000000 Ha              0.000000000 eV
  X Energy            :       -140.019045724 Ha          -3810.112090522 eV
  C Energy            :         -4.930518852 Ha           -134.166244259 eV
  Total XC Energy     :       -144.949564576 Ha          -3944.278334780 eV
  ------------------------------------ 
  LDA X and C from self-consistent density 
  X Energy LDA        :       -132.585934743 Ha          -3607.846849590 eV
  C Energy LDA        :         -8.813585323 Ha           -239.829859058 eV
  ------------------------------------ 
  End decomposition of the XC Energy 
  ------------------------------------ 

------------------------------------------------------------

------------------------------------------------------------------------------
  Final output of selected total energy values:

  The following output summarizes some interesting total energy values
  at the end of a run (AFTER all relaxation, molecular dynamics, etc.).

  | Total energy of the DFT / Hartree-Fock s.c.f. calculation      :         -44216.908331771 eV
  | Final zero-broadening corrected energy (caution - metals only) :         -44216.908331771 eV
  | For reference only, the value of 1 Hartree used in FHI-aims is :             27.211384500 eV

  Before relying on these values, please be sure to understand exactly which
  total energy value is referred to by a given number. Different objects may
  all carry the same name 'total energy'. Definitions:

  Total energy of the DFT / Hartree-Fock s.c.f. calculation:
  | Note that this energy does not include ANY quantities calculated after the
  | s.c.f. cycle, in particular not ANY RPA, MP2, etc. many-body perturbation terms.

  Final zero-broadening corrected energy:
  | For metallic systems only, a broadening of the occupation numbers at the Fermi
  | level can be extrapolated back to zero broadening by an electron-gas inspired
  | formula. For all systems that are not real metals, this value can be
  | meaningless and should be avoided.

------------------------------------------------------------------------------
  Methods described in the following list of references were used in this FHI-aims run.
  If you publish the results, please make sure to cite these reference if they apply.
  FHI-aims is an academic code, and for our developers (often, Ph.D. students
  and postdocs), scientific credit in the community is essential.
  Thank you for helping us!

  For any use of FHI-aims, please cite:

    Volker Blum, Ralf Gehrke, Felix Hanke, Paula Havu, Ville Havu,
    Xinguo Ren, Karsten Reuter, and Matthias Scheffler
    'Ab initio molecular simulations with numeric atom-centered orbitals'
    Computer Physics Communications 180, 2175-2196 (2009)
    http://dx.doi.org/10.1016/j.cpc.2009.06.022


  The ELSI infrastructure was used in your run to solve the Kohn-Sham electronic structure.
  Please check out http://elsi-interchange.org to learn more.
  If scalability is important for your project, please acknowledge ELSI by citing:

    V. W-z. Yu, F. Corsetti, A. Garcia, W. P. Huhn, M. Jacquelin, W. Jia,
    B. Lange, L. Lin, J. Lu, W. Mi, A. Seifitokaldani, A. Vazquez-Mayagoitia,
    C. Yang, H. Yang, and V. Blum
    'ELSI: A unified software interface for Kohn-Sham electronic structure solvers'
    Computer Physics Communications 222, 267-285 (2018).
    http://dx.doi.org/10.1016/j.cpc.2017.09.007


  For the real-space grid partitioning and parallelization used in this calculation, please cite:

    Ville Havu, Volker Blum, Paula Havu, and Matthias Scheffler,
    'Efficient O(N) integration for all-electron electronic structure calculation'
    'using numerically tabulated basis functions'
    Journal of Computational Physics 228, 8367-8379 (2009).
    http://dx.doi.org/10.1016/j.jcp.2009.08.008

  Of course, there are many other important community references, e.g., those cited in the
  above references. Our list is limited to references that describe implementations in the
  FHI-aims code. The reason is purely practical (length of this list) - please credit others as well.

------------------------------------------------------------
          Leaving FHI-aims.
          Date     :  20220517, Time     :  110611.226

          Computational steps:
          | Number of self-consistency cycles          :           15
          | Number of SCF (re)initializations          :            1

          Detailed time accounting                     :  max(cpu_time)    wall_clock(cpu1)
          | Total time                                  :        1.955 s           2.024 s
          | Preparation time                            :        0.184 s           0.184 s
          | Boundary condition initalization            :        0.000 s           0.000 s
          | Grid partitioning                           :        0.035 s           0.035 s
          | Preloading free-atom quantities on grid     :        0.015 s           0.015 s
          | Free-atom superposition energy              :        0.005 s           0.004 s
          | Total time for integrations                 :        0.471 s           0.471 s
          | Total time for solution of K.-S. equations  :        0.073 s           0.071 s
          | Total time for density & force components   :        0.645 s           0.644 s
          | Total time for mixing                       :        0.066 s           0.036 s
          | Total time for Hartree multipole update     :        0.020 s           0.020 s
          | Total time for Hartree multipole sum        :        0.318 s           0.320 s
          | Total time for total energy evaluation      :        0.002 s           0.003 s
          | Total time NSC force correction             :        0.064 s           0.064 s
          | Total time for scaled ZORA corrections      :        0.000 s           0.000 s

          Partial memory accounting:
          | Residual value for overall tracked memory usage across tasks:     0.000000 MB (should be 0.000000 MB)
          | Peak values for overall tracked memory usage:
          |   Minimum:        2.739 MB (on task  1 after allocating hessian_basis_wave)
          |   Maximum:        2.988 MB (on task  4 after allocating hessian_basis_wave)
          |   Average:        2.898 MB
          | Largest tracked array allocation:
          |   Minimum:        1.310 MB (hessian_basis_wave on task  1)
          |   Maximum:        1.459 MB (hessian_basis_wave on task  4)
          |   Average:        1.408 MB
          Note:  These values currently only include a subset of arrays which are explicitly tracked.
          The "true" memory usage will be greater.

          Have a nice day.
------------------------------------------------------------
