********************************************************************************
*                       GENERAL UTILITY LATTICE PROGRAM                        *
*                                 Julian Gale                                  *
*                       Curtin Institute for Computation                       *
*                           Department of Chemistry                            *
*                    Curtin University, Western Australia                      *
********************************************************************************
* Version = 5.1.1 * Last modified =  11th January 2019                         *
********************************************************************************
*  single       - perform a single point run                                   *
*  phonon       - calculate phonons for final geometry                         *
*  eigenvectors - output phonon eigenvectors                                   *
********************************************************************************

  Job Started  at 10:30.32 17th May        2022                               

  Number of CPUs =     1

  Host name      = login04                                 


  Total number of configurations input =      1

********************************************************************************
*  Input for Configuration =   1                                               *
********************************************************************************

  Formula = Al3F9                                                       

  Number of irreducible atoms/shells =      21


  Total number atoms/shells =      21

  Dimensionality = 0               :  Cluster


  Charge on cluster =  -0.000000


  Initial cluster dipoles : x =     -0.012947 e.Angs
                            y =     -0.006564 e.Angs
                            z =      0.089447 e.Angs

  Temperature of configuration =  0.000     K 

  Symmetry number =      1

  Cartesian coordinates of cluster :

--------------------------------------------------------------------------------
   No.  Atomic       x           y          z         Charge      Occupancy
        Label      (Angs)      (Angs)     (Angs)        (e)         (Frac)  
--------------------------------------------------------------------------------
      1 Al    c      0.3496     -0.5993      1.7404     3.00000    1.000000    
      2 Al    c      2.3505     -1.7887     -0.5195     3.00000    1.000000    
      3 Al    c     -0.8929     -1.8304     -0.9920     3.00000    1.000000    
      4 F     c      3.4762     -0.4963     -1.1128     0.59000    1.000000    
      5 F     c     -1.8346     -0.5645     -1.8865     0.59000    1.000000    
      6 F     c      2.7368     -3.5623     -0.4919     0.59000    1.000000    
      7 F     c     -1.2263     -3.6132     -1.0692     0.59000    1.000000    
      8 F     c      1.8967     -1.4150      1.2108     0.59000    1.000000    
      9 F     c      0.8318     -1.5085     -1.4893     0.59000    1.000000    
     10 F     c      0.1089     -1.1724      3.4433     0.59000    1.000000    
     11 F     c      0.4063      1.1352      1.1986     0.59000    1.000000    
     12 F     c     -0.9611     -1.4517      0.7945     0.59000    1.000000    
     13 F     s      3.4762     -0.4963     -1.1128    -1.59000    1.000000    
     14 F     s     -1.8346     -0.5645     -1.8865    -1.59000    1.000000    
     15 F     s      2.7368     -3.5623     -0.4919    -1.59000    1.000000    
     16 F     s     -1.2263     -3.6132     -1.0692    -1.59000    1.000000    
     17 F     s      1.8967     -1.4150      1.2108    -1.59000    1.000000    
     18 F     s      0.8318     -1.5085     -1.4893    -1.59000    1.000000    
     19 F     s      0.1089     -1.1724      3.4433    -1.59000    1.000000    
     20 F     s      0.4063      1.1352      1.1986    -1.59000    1.000000    
     21 F     s     -0.9611     -1.4517      0.7945    -1.59000    1.000000    
--------------------------------------------------------------------------------


  Brillouin zone sampling points :

--------------------------------------------------------------------------------
  Point number          x          y          z            Weight
--------------------------------------------------------------------------------
        1           0.000000   0.000000   0.000000     1.00000000
--------------------------------------------------------------------------------


********************************************************************************
*  General input information                                                   *
********************************************************************************

  Species output for all configurations : 

--------------------------------------------------------------------------------
  Species    Type    Atomic    Atomic    Charge       Radii (Angs)     Library
                     Number     Mass       (e)     Cova   Ionic  VDW   Symbol
--------------------------------------------------------------------------------
    Al       Core       13      26.98   3.000000   1.350  0.000  2.050          
    F        Core        9      19.00   0.590000   0.710  0.000  1.300          
    F        Shell       9       0.00  -1.590000   0.710  0.000  1.300          
--------------------------------------------------------------------------------


  Accuracy factor for short range sums = 12.000

  Time limit = Infinity

  Maximum range for interatomic potentials =    100000.000000 Angstroms

  General interatomic potentials :

--------------------------------------------------------------------------------
Atom  Types   Potential      Parameter       Value         Units   Cutoffs(Ang)
  1     2                                                            Min /  Max 
--------------------------------------------------------------------------------
Al   c F    s Buckingham    Buckingham A     3760.0008    eV        0.000 10.000
                            Buckingham rho  0.22200000    Ang       
                            Buckingham C     0.0000000    eV*Ang^6  
--------------------------------------------------------------------------------
F    s F    s Buck 4 range  Buck4 A          1127.7000    eV        0.000 12.000
                            Buck4 rho       0.27530000    Ang       
                            Buck4 C          15.830000    eV*Ang^6  
                            Buck4 minimum    2.7900000    Ang       
--------------------------------------------------------------------------------
F    c F    s Spring (c-s)  Spring k 2       20.770000    eV*Ang^-2 0.000  0.800
                            Spring k 4       0.0000000    eV*Ang^-4 
--------------------------------------------------------------------------------

********************************************************************************
*  Output for configuration   1                                                *
********************************************************************************


  Components of energy : 

--------------------------------------------------------------------------------
  Interatomic potentials     =          11.94648314 eV    
  Monopole - monopole (real) =        -182.69092865 eV    
--------------------------------------------------------------------------------
  Total lattice energy       =        -170.74444551 eV    
--------------------------------------------------------------------------------
  Total lattice energy       =          -16474.2289 kJ/mol
--------------------------------------------------------------------------------

  Born effective charge tensors : 

-------------------------------------------------------------------------------
  Atom             x           y             z
-------------------------------------------------------------------------------
    1 Al    x       1.9213     -0.0063     -0.0243
            y       0.0157      2.0748     -0.1214
            z      -0.0263      0.0291      2.0953
-------------------------------------------------------------------------------
    2 Al    x       2.0235     -0.0101     -0.0626
            y       0.0590      2.1529      0.0353
            z      -0.0666     -0.0469      1.9095
-------------------------------------------------------------------------------
    3 Al    x       1.9800      0.0190      0.0828
            y      -0.0706      2.1516      0.0183
            z       0.0885     -0.0406      1.9542
-------------------------------------------------------------------------------
    4 F     x      -0.8630     -0.3093      0.1800
            y      -0.2441     -0.7609      0.1185
            z       0.1667      0.1423     -0.5996
-------------------------------------------------------------------------------
    5 F     x      -0.7582      0.2551     -0.2293
            y       0.1994     -0.7479      0.1776
            z      -0.2169      0.2194     -0.7173
-------------------------------------------------------------------------------
    6 F     x      -0.6351      0.2511      0.0124
            y       0.1869     -1.0621     -0.0088
            z       0.0178     -0.0383     -0.5113
-------------------------------------------------------------------------------
    7 F     x      -0.6069     -0.2184     -0.0415
            y      -0.1654     -1.0726     -0.0609
            z      -0.0458     -0.1075     -0.5291
-------------------------------------------------------------------------------
    8 F     x      -0.6175      0.1537      0.1596
            y       0.1516     -0.3788     -0.1436
            z       0.1611     -0.1456     -0.6662
-------------------------------------------------------------------------------
    9 F     x      -0.8715     -0.0083     -0.0596
            y      -0.0077     -0.2953      0.0015
            z      -0.0597      0.0057     -0.4711
-------------------------------------------------------------------------------
   10 F     x      -0.5344     -0.0242      0.0919
            y      -0.0150     -0.5578      0.1065
            z       0.0911      0.1696     -1.1616
-------------------------------------------------------------------------------
   11 F     x      -0.5096      0.0077      0.0059
            y      -0.0013     -1.1183      0.0623
            z       0.0066      0.0006     -0.5544
-------------------------------------------------------------------------------
   12 F     x      -0.5284     -0.1100     -0.1151
            y      -0.1085     -0.3855     -0.1852
            z      -0.1166     -0.1878     -0.7486
-------------------------------------------------------------------------------




  Moment of inertia tensor (10^-46 x kgm^2): 

-------------------------------------------------------------------------------
                x           y           z           Principal axis system
-------------------------------------------------------------------------------
       x        153.90        2.90       -1.72          153.683032
       y          2.90      201.81      -24.14          155.164088
       z         -1.72      -24.14      167.62          214.481740
-------------------------------------------------------------------------------
  Centre of mass (Ang) =     0.603392    -1.405657     0.069589
-------------------------------------------------------------------------------


  Vibrational Frequency Calculation : 

--------------------------------------------------------------------------------

  Frequencies (cm-1) and Eigenvectors : 

  Frequency     -99.2284  -63.4828  -50.9315   -0.0000    0.0000    0.0000
  IR Intensity    0.0000    0.0001    0.0000    0.0000    0.0000    0.0000
     in X         0.0000    0.0000    0.0000    0.0000    0.0000    0.0000
     in Y         0.0000    0.0000    0.0000    0.0000    0.0000    0.0000
     in Z         0.0000    0.0000    0.0000    0.0000    0.0000    0.0000
  Raman Intsty    0.0000    0.0005    0.0000    0.0000    0.0000    0.0000

     1 x      -0.368252  0.030903 -0.221961  0.325350 -0.034438  0.007086
     1 y      -0.004729  0.485995 -0.002851  0.034154  0.325220  0.012432
     1 z      -0.053648 -0.254967 -0.032336  0.008350  0.011620 -0.326932
     2 x       0.120421 -0.003080  0.112612  0.325350 -0.034438  0.007086
     2 y      -0.138642 -0.254005  0.434638  0.034154  0.325220  0.012432
     2 z       0.428322  0.108474  0.039026  0.008350  0.011620 -0.326932
     3 x       0.234076 -0.021605  0.129959  0.325350 -0.034438  0.007086
     3 y       0.143195 -0.254243 -0.431523  0.034154  0.325220  0.012432
     3 z      -0.376678  0.105776 -0.003688  0.008350  0.011620 -0.326932
     4 x       0.031712 -0.027679  0.101266  0.273028 -0.028900  0.005946
     4 y      -0.099366 -0.169701  0.328201  0.028661  0.272918  0.010433
     4 z       0.226422  0.069056  0.008784  0.007007  0.009752 -0.274355
     5 x       0.092474  0.011088  0.107784  0.273028 -0.028900  0.005946
     5 y       0.100960 -0.169203 -0.325516  0.028661  0.272918  0.010433
     5 z      -0.208331  0.074703  0.021671  0.007007  0.009752 -0.274355
     6 x       0.079451  0.013054  0.030238  0.273028 -0.028900  0.005946
     6 y      -0.106975 -0.200723  0.318557  0.028661  0.272918  0.010433
     6 z       0.202359  0.075558  0.020091  0.007007  0.009752 -0.274355
     7 x       0.131159 -0.029013  0.042714  0.273028 -0.028900  0.005946
     7 y       0.109679 -0.201263 -0.317620  0.028661  0.272918  0.010433
     7 z      -0.171678  0.069430 -0.009464  0.007007  0.009752 -0.274355
     8 x      -0.111593 -0.036660 -0.054865  0.273028 -0.028900  0.005946
     8 y       0.015595  0.070687  0.161131  0.028661  0.272918  0.010433
     8 z       0.166826 -0.025120  0.020479  0.007007  0.009752 -0.274355
     9 x       0.201999 -0.013873  0.064258  0.273028 -0.028900  0.005946
     9 y       0.002594 -0.129603  0.000825  0.028661  0.272918  0.010433
     9 z       0.029428  0.106655  0.009361  0.007007  0.009752 -0.274355
    10 x      -0.184240  0.027237 -0.154024  0.273028 -0.028900  0.005946
    10 y      -0.002366  0.359807 -0.001978  0.028661  0.272918  0.010433
    10 z      -0.026840 -0.218684 -0.022439  0.007007  0.009752 -0.274355
    11 x      -0.165634  0.007924 -0.119258  0.273028 -0.028900  0.005946
    11 y      -0.002127  0.394839 -0.001532  0.028661  0.272918  0.010433
    11 z      -0.024130 -0.089200 -0.017374  0.007007  0.009752 -0.274355
    12 x      -0.058938  0.040512 -0.042673  0.273028 -0.028900  0.005946
    12 y      -0.017785  0.071678 -0.162384  0.028661  0.272918  0.010433
    12 z      -0.191669 -0.013877 -0.034688  0.007007  0.009752 -0.274355


  Frequency     122.4142  123.6745  129.2256  130.9926  132.6024  145.4112
  IR Intensity    0.0031    0.0019    0.0026    0.0017    0.0002    0.0002
     in X         0.0000    0.0019    0.0000    0.0016    0.0000    0.0000
     in Y         0.0022    0.0000    0.0022    0.0000    0.0002    0.0001
     in Z         0.0009    0.0000    0.0004    0.0000    0.0000    0.0001
  Raman Intsty    0.0001    0.0000    0.0001    0.0000    0.0000    0.0188

     1 x       0.027732  0.130645 -0.006060 -0.134149  0.000129  0.001642
     1 y      -0.045970  0.001678  0.010331 -0.001723  0.060941 -0.037909
     1 z      -0.186308  0.019033  0.040685 -0.019543 -0.006256 -0.007927
     2 x       0.105755 -0.092123 -0.081805  0.053962 -0.050924 -0.092616
     2 y       0.032879  0.015632 -0.064323 -0.072792  0.029943  0.024706
     2 z       0.094150  0.101898 -0.044538 -0.079160 -0.014118  0.017144
     3 x      -0.129010 -0.058804  0.092702  0.027290  0.052065  0.083225
     3 y       0.029864 -0.017570 -0.062082  0.073835  0.031266  0.026964
     3 z       0.059949 -0.123885 -0.019115  0.090997  0.000886  0.042761
     4 x       0.194264 -0.131308  0.046176  0.181434 -0.146333 -0.095377
     4 y      -0.030749  0.040591 -0.170472 -0.247299  0.176408  0.028904
     4 z       0.112082  0.086715 -0.083670 -0.288351  0.149325  0.015939
     5 x      -0.217327 -0.100051 -0.016087  0.085361  0.093172  0.086109
     5 y      -0.036035 -0.043562 -0.171272  0.250725  0.179484  0.031235
     5 z       0.052121 -0.120420 -0.092741  0.327218  0.184216  0.042378
     6 x       0.178005 -0.350984 -0.370930  0.104354  0.014004 -0.457171
     6 y       0.032083 -0.015857 -0.096449 -0.055763  0.031326 -0.035897
     6 z       0.044523  0.231907 -0.141808 -0.033893 -0.156753  0.185680
     7 x      -0.184057 -0.270529  0.398274  0.088913  0.030511  0.385959
     7 y       0.027433  0.007875 -0.086571  0.058246  0.031538 -0.025069
     7 z      -0.008223 -0.322450 -0.029749  0.062048 -0.154348  0.308509
     8 x       0.099858  0.319554 -0.060634  0.075175 -0.257444  0.073151
     8 y      -0.084613  0.368026 -0.064099  0.408676 -0.476536  0.115652
     8 z       0.080110  0.113665 -0.018752 -0.160345  0.045996  0.040828
     9 x      -0.065476 -0.041536 -0.025988  0.021110  0.015108  0.027389
     9 y       0.413678 -0.000533  0.683551  0.000271  0.023785 -0.132384
     9 z       0.412979 -0.006051  0.118127  0.003075 -0.105800 -0.176332
    10 x       0.027304  0.157964 -0.007236 -0.149273 -0.020577 -0.008894
    10 y      -0.052950  0.002029  0.015589 -0.001917  0.379424  0.123423
    10 z      -0.182752  0.023013  0.048292 -0.021746  0.107798  0.050167
    11 x       0.078497  0.093207 -0.034394 -0.380603  0.024522  0.082710
    11 y      -0.201444  0.001197  0.090525 -0.004888 -0.020911 -0.235887
    11 z      -0.521064  0.013579  0.228111 -0.055447 -0.166482 -0.546947
    12 x      -0.116400  0.347850  0.065056  0.036563  0.245525 -0.084643
    12 y      -0.087390 -0.359455 -0.062485 -0.407241 -0.470077  0.113625
    12 z       0.048605 -0.016436 -0.000441  0.176623  0.119270  0.017840


  Frequency     152.5952  156.4829  157.7180  164.2610  164.4212  182.6566
  IR Intensity    0.0004    0.0001    0.0011    0.0001    0.0001    0.0110
     in X         0.0004    0.0001    0.0000    0.0001    0.0000    0.0001
     in Y         0.0000    0.0000    0.0001    0.0000    0.0001    0.0052
     in Z         0.0000    0.0000    0.0011    0.0000    0.0000    0.0057
  Raman Intsty    0.0000    0.0000    0.0122    0.0000    0.0081    0.0001

     1 x      -0.029116 -0.002863  0.019593  0.029383  0.013827 -0.012191
     1 y      -0.000374 -0.000037  0.053663  0.000377  0.038833 -0.096624
     1 z      -0.004242 -0.000417 -0.139223  0.004281 -0.098333  0.092197
     2 x       0.053024  0.014219 -0.022315 -0.024744 -0.036801 -0.006336
     2 y       0.085764 -0.018049 -0.042503 -0.088682 -0.040206 -0.111600
     2 z      -0.018626 -0.005497  0.022704  0.008001  0.027741  0.063324
     3 x       0.047647  0.011602  0.015973 -0.023655  0.028358 -0.009186
     3 y      -0.084471  0.018380 -0.042012  0.088060 -0.039369 -0.111637
     3 z       0.033291  0.009258  0.028282 -0.015052  0.037233  0.062909
     4 x       0.419804  0.116576 -0.134544 -0.118415 -0.438194 -0.291165
     4 y      -0.199825  0.051381  0.228308  0.082101  0.161974  0.055141
     4 z       0.052160  0.334660  0.403769  0.227599 -0.312191 -0.081426
     5 x       0.412077  0.208452  0.007988 -0.046466  0.504826  0.300812
     5 y       0.210509 -0.047207  0.230139 -0.084218  0.174085  0.062744
     5 z       0.069030 -0.287309  0.424533 -0.251619 -0.174810  0.004814
     6 x      -0.418740 -0.117768 -0.140980  0.132885  0.061301  0.088958
     6 y      -0.015067 -0.046830 -0.065584 -0.052538 -0.026423 -0.109625
     6 z      -0.089358 -0.338703 -0.221135 -0.390591  0.273787 -0.378149
     7 x      -0.427072 -0.210633  0.199807  0.014577 -0.136171  0.025396
     7 y       0.004205  0.042612 -0.061208  0.054432 -0.028959 -0.110441
     7 z      -0.033861  0.290861 -0.171488  0.412073  0.245019 -0.387409
     8 x      -0.062901  0.008918  0.053473  0.160997 -0.021053  0.205348
     8 y      -0.083235  0.032238  0.050036  0.190154 -0.113135  0.204100
     8 z      -0.000340 -0.033615 -0.020966  0.026818  0.023563  0.098226
     9 x       0.048644  0.020176  0.001409 -0.015304 -0.023380 -0.042074
     9 y       0.000625  0.000259 -0.011570 -0.000197  0.190187 -0.011449
     9 z       0.007087  0.002939 -0.008650 -0.002230  0.143720  0.289817
    10 x      -0.267406  0.455542  0.051588 -0.536397  0.031266 -0.035652
    10 y      -0.003434  0.005850 -0.484670 -0.006889 -0.254272  0.273348
    10 z      -0.038956  0.066364 -0.311390 -0.078143 -0.192203  0.220629
    11 x       0.272784 -0.508387 -0.008020  0.264096 -0.001304  0.011302
    11 y       0.003503 -0.006529  0.102563  0.003392  0.057749 -0.181168
    11 z       0.039740 -0.074063  0.046007  0.038474  0.003862 -0.061609
    12 x      -0.062457 -0.000234 -0.046510  0.166687  0.016295 -0.229901
    12 y       0.081625 -0.032127  0.048751 -0.185946 -0.112655  0.198510
    12 z      -0.017922  0.034880 -0.035532  0.020919  0.029004  0.034818


  Frequency     198.0861  203.4438  209.8697  230.8817  235.0993  267.7810
  IR Intensity    0.0051    0.0344    0.0292    0.0535    0.0389    0.0010
     in X         0.0050    0.0337    0.0004    0.0009    0.0381    0.0000
     in Y         0.0000    0.0000    0.0106    0.0166    0.0000    0.0001
     in Z         0.0001    0.0007    0.0181    0.0361    0.0008    0.0009
  Raman Intsty    0.0000    0.0000    0.0017    0.0006    0.0000    0.3348

     1 x       0.168549  0.298405 -0.003281  0.042936 -0.005329  0.015675
     1 y       0.002165  0.003832 -0.131201 -0.264294 -0.000068  0.005323
     1 z       0.024555  0.043472  0.034089 -0.271426 -0.000776 -0.108063
     2 x      -0.128633  0.064869 -0.069381  0.164899  0.289931 -0.078213
     2 y      -0.035572  0.000607 -0.154526  0.007026 -0.117512  0.014300
     2 z      -0.258332 -0.059450 -0.134516 -0.108586 -0.077417  0.059734
     3 x      -0.197833  0.045209  0.108734 -0.127194  0.252750  0.057538
     3 y       0.031380  0.000807 -0.152238  0.003275  0.124482  0.016044
     3 z       0.210772  0.075486 -0.108568 -0.151139  0.156475  0.079511
     4 x       0.159002 -0.006427 -0.126166  0.074333 -0.092186 -0.045527
     4 y       0.003703  0.063361  0.014491  0.226361  0.336111 -0.144795
     4 z       0.392344 -0.075183  0.260017  0.051033 -0.049250  0.001408
     5 x       0.264357 -0.026011  0.046345 -0.091470 -0.093922  0.046860
     5 y       0.001734 -0.063778  0.016707  0.224232 -0.338502 -0.143608
     5 z      -0.330668  0.070457  0.285149  0.026879  0.022137  0.014868
     6 x       0.139384 -0.084344  0.230181 -0.140127 -0.186402  0.064020
     6 y       0.017626 -0.013058 -0.117983 -0.076870 -0.298826  0.101668
     6 z       0.341869  0.055488  0.197782  0.158392  0.064776 -0.032967
     7 x       0.231512 -0.065311 -0.273994  0.091009 -0.167632 -0.054492
     7 y      -0.012863  0.011136 -0.124458 -0.073902  0.294280  0.100146
     7 z      -0.287836 -0.077290  0.124333  0.192064 -0.116352 -0.050232
     8 x      -0.053085  0.273357 -0.001553  0.250770 -0.105403  0.344361
     8 y       0.047520 -0.263915  0.162645 -0.107404  0.028699 -0.110086
     8 z      -0.207859  0.204418 -0.213010 -0.076596 -0.299612  0.378811
     9 x      -0.161845  0.066930  0.046605 -0.028892  0.272804  0.071338
     9 y      -0.002079  0.000860  0.409811 -0.077062  0.003504  0.140463
     9 z      -0.023578  0.009750 -0.356038  0.205117  0.039743 -0.502066
    10 x      -0.196281 -0.419506 -0.024159  0.018662 -0.091095  0.029843
    10 y      -0.002521 -0.005388  0.146996  0.399844 -0.001170  0.085063
    10 z      -0.028595 -0.061114  0.152874 -0.163349 -0.013271 -0.212351
    11 x      -0.085903 -0.539035  0.001595 -0.054662  0.009242 -0.015213
    11 y      -0.001103 -0.006923 -0.149724 -0.099137  0.000119  0.048744
    11 z      -0.012514 -0.078528  0.002251  0.383954  0.001346  0.100131
    12 x      -0.108961  0.313585  0.058162 -0.215717 -0.185735 -0.435231
    12 y      -0.049602  0.271453  0.163411 -0.113395 -0.032438 -0.120098
    12 z       0.184252 -0.118911 -0.204311 -0.144554  0.257199  0.265239


  Frequency     331.4820  364.6341  367.3551  461.9401  462.8921  481.4801
  IR Intensity    0.0001    0.1811    0.1951    0.0315    0.0170    0.0057
     in X         0.0000    0.0032    0.1910    0.0006    0.0166    0.0056
     in Y         0.0001    0.0401    0.0000    0.0025    0.0000    0.0000
     in Z         0.0000    0.1377    0.0041    0.0284    0.0004    0.0001
  Raman Intsty    4.1670    0.0039    0.0000    0.0014    0.0000    0.0000

     1 x       0.021034 -0.014949 -0.280137 -0.035115 -0.025032 -0.296351
     1 y      -0.125632  0.151953 -0.003598 -0.498122 -0.000321 -0.003806
     1 z      -0.133306  0.089217 -0.040811  0.284951 -0.003647 -0.043173
     2 x      -0.163732  0.018121 -0.183256 -0.010489  0.112492  0.057602
     2 y       0.049193  0.037842  0.046500  0.279537  0.477278  0.025808
     2 z       0.049740  0.255933 -0.089082 -0.018909 -0.087087  0.221001
     3 x       0.141448 -0.091321 -0.199824  0.008414  0.094940  0.118882
     3 y       0.053112  0.036436 -0.051419  0.279779 -0.474614 -0.023542
     3 z       0.094199  0.239989  0.033274 -0.016155  0.117306 -0.195291
     4 x      -0.197452  0.124293  0.259978 -0.071581 -0.218780  0.020827
     4 y      -0.297216  0.147639  0.262061 -0.102199 -0.281005  0.010633
     4 z       0.111158 -0.126779 -0.088947  0.035193  0.110546 -0.002559
     5 x       0.164948 -0.086635  0.230307  0.061114 -0.185150  0.019492
     5 y      -0.292562  0.144930 -0.255764 -0.100494  0.275817 -0.010115
     5 z       0.163954 -0.157507  0.160373  0.054524 -0.169391  0.008433
     6 x      -0.023557  0.027406  0.104335  0.042836  0.053197 -0.005820
     6 y       0.355870 -0.221986 -0.398672 -0.252227 -0.326538  0.027016
     6 z      -0.018385 -0.056856  0.025563 -0.005798  0.010235  0.005127
     7 x       0.018866 -0.004457  0.097232 -0.033045  0.045678 -0.003434
     7 y       0.356415 -0.222395  0.401260 -0.253202  0.327808 -0.027135
     7 z      -0.012205 -0.061497  0.003802 -0.016852  0.004169 -0.006475
     8 x      -0.122938 -0.212099  0.073108 -0.089111  0.031992  0.341684
     8 y       0.058635  0.106232  0.001417  0.050887 -0.023838 -0.202463
     8 z      -0.146124  0.047466  0.246611  0.037451 -0.020765 -0.373350
     9 x      -0.024579  0.030545 -0.246346 -0.003259  0.042916 -0.450802
     9 y      -0.084745  0.067713 -0.003164 -0.014524  0.000551 -0.005790
     9 z       0.176185 -0.215641 -0.035888  0.023654  0.006252 -0.065674
    10 x       0.047214  0.056173  0.071156  0.049165  0.000582 -0.005021
    10 y       0.157961  0.102696  0.000914  0.150977  0.000007 -0.000064
    10 z      -0.338018 -0.394642  0.010366 -0.350788  0.000085 -0.000731
    11 x      -0.019012 -0.017189  0.060113  0.014783 -0.011920  0.010132
    11 y      -0.288804 -0.505772  0.000772  0.394888 -0.000153  0.000130
    11 z       0.155960  0.162575  0.008757 -0.136288 -0.001736  0.001476
    12 x       0.157998  0.187005  0.140431  0.073416  0.024129  0.215780
    12 y       0.062243  0.111357  0.001325  0.052974  0.024559  0.209622
    12 z      -0.105197  0.105609 -0.215502  0.061128  0.028941  0.454563


  Frequency     487.3589  491.0684  493.7519  528.4734  535.8928  557.1770
  IR Intensity    0.0640    0.0109    0.7242    0.3810    0.3597    0.0007
     in X         0.0005    0.0107    0.0006    0.0078    0.3522    0.0000
     in Y         0.0357    0.0000    0.6627    0.0238    0.0001    0.0002
     in Z         0.0278    0.0002    0.0609    0.3494    0.0075    0.0004
  Raman Intsty    0.0005    0.0000    0.0000    0.0000    0.0000    0.0484

     1 x      -0.045680 -0.580304  0.028878  0.063444 -0.177174 -0.072567
     1 y       0.296623 -0.007453  0.324186 -0.164869 -0.002275  0.202792
     1 z       0.287413 -0.084540 -0.226807 -0.420960 -0.025811  0.480245
     2 x      -0.339603  0.194000  0.127577  0.151076 -0.401173  0.497000
     2 y       0.015986 -0.147229  0.432289 -0.046584  0.058207 -0.101894
     2 z      -0.422160 -0.393497 -0.041114 -0.243116  0.015390 -0.161034
     3 x       0.445405  0.069923 -0.121377 -0.074226 -0.378518 -0.427686
     3 y       0.026068  0.150619  0.429092 -0.049477 -0.068221 -0.113770
     3 z      -0.307798  0.431946 -0.077382 -0.275938 -0.128976 -0.295744
     4 x       0.074769 -0.099934 -0.159137 -0.028617  0.034657 -0.132554
     4 y       0.034119 -0.073330 -0.223529 -0.015135  0.012408 -0.089915
     4 z       0.037554  0.087274  0.081545  0.027034 -0.011686  0.058926
     5 x      -0.083208 -0.072697  0.134832  0.020087  0.030184  0.112455
     5 y       0.032090  0.071113 -0.219753 -0.014510 -0.011576 -0.086768
     5 z       0.014540 -0.112423  0.124370  0.034129  0.021132  0.094619
     6 x       0.056060 -0.045235  0.017119 -0.008465  0.030077 -0.069722
     6 y      -0.087573  0.149829 -0.251175 -0.003283 -0.000987  0.119225
     6 z       0.055059  0.044169  0.009536  0.015414  0.000253  0.013759
     7 x      -0.067217 -0.026973 -0.012806  0.003796  0.028864  0.059879
     7 y      -0.089156 -0.150756 -0.251560 -0.003126  0.001744  0.120890
     7 z       0.037100 -0.054688  0.005177  0.017200  0.008334  0.032639
     8 x       0.056324  0.169042  0.073683 -0.328774  0.180653  0.011108
     8 y      -0.018378 -0.055778 -0.063899  0.196739 -0.098945 -0.019064
     8 z       0.155890  0.147640 -0.059133  0.394985 -0.180299  0.027724
     9 x      -0.035127  0.103393 -0.000668 -0.002197  0.688169  0.005106
     9 y      -0.082803  0.001328 -0.025199  0.001749  0.008838  0.040687
     9 z       0.248420  0.015062  0.006810  0.014924  0.100254 -0.038635
    10 x       0.027079  0.074592 -0.031192 -0.013302  0.010590  0.030022
    10 y       0.011340  0.000958 -0.099628 -0.015522  0.000136  0.033874
    10 z      -0.186878  0.010867  0.222893  0.092676  0.001543 -0.209068
    11 x      -0.002351  0.072149 -0.011509 -0.007091  0.017877  0.005655
    11 y      -0.182861  0.000927 -0.212508 -0.039475  0.000230 -0.084151
    11 z       0.032256  0.010511  0.097738  0.052157  0.002604 -0.031402
    12 x      -0.097972  0.202676 -0.052122  0.197383  0.119166 -0.018072
    12 y      -0.020360  0.060552 -0.065514  0.203496  0.102795 -0.019439
    12 z       0.133412 -0.093487 -0.077460  0.471636  0.223978  0.023473




--------------------------------------------------------------------------------
  Vibrational properties (for cluster):  Temperature  =       0.000 K
--------------------------------------------------------------------------------
  Zero point energy            =        0.537545 eV
--------------------------------------------------------------------------------

  Phonon density of states : 

--------------------------------------------------------------------------------
 Frequency (cm-1) Density of States                                             
--------------------------------------------------------------------------------
    0.00000 |****************************************                      0.062
    8.70589 |                                                              0.000
   17.41178 |                                                              0.000
   26.11768 |                                                              0.000
   34.82357 |                                                              0.000
   43.52946 |                                                              0.000
   52.23535 |                                                              0.000
   60.94125 |                                                              0.000
   69.64714 |                                                              0.000
   78.35303 |                                                              0.000
   87.05892 |                                                              0.000
   95.76482 |                                                              0.000
  104.47071 |                                                              0.000
  113.17660 |                                                              0.000
  121.88249 |************************************************************  0.094
  130.58838 |****************************************                      0.062
  139.29428 |********************                                          0.031
  148.00017 |****************************************                      0.062
  156.70606 |************************************************************  0.094
  165.41195 |                                                              0.000
  174.11785 |********************                                          0.031
  182.82374 |                                                              0.000
  191.52963 |********************                                          0.031
  200.23552 |********************                                          0.031
  208.94141 |********************                                          0.031
  217.64731 |                                                              0.000
  226.35320 |********************                                          0.031
  235.05909 |********************                                          0.031
  243.76498 |                                                              0.000
  252.47088 |                                                              0.000
  261.17677 |********************                                          0.031
  269.88266 |                                                              0.000
  278.58855 |                                                              0.000
  287.29445 |                                                              0.000
  296.00034 |                                                              0.000
  304.70623 |                                                              0.000
  313.41212 |                                                              0.000
  322.11801 |                                                              0.000
  330.82391 |********************                                          0.031
  339.52980 |                                                              0.000
  348.23569 |                                                              0.000
  356.94158 |********************                                          0.031
  365.64748 |********************                                          0.031
  374.35337 |                                                              0.000
  383.05926 |                                                              0.000
  391.76515 |                                                              0.000
  400.47104 |                                                              0.000
  409.17694 |                                                              0.000
  417.88283 |                                                              0.000
  426.58872 |                                                              0.000
  435.29461 |                                                              0.000
  444.00051 |                                                              0.000
  452.70640 |                                                              0.000
  461.41229 |****************************************                      0.062
  470.11818 |                                                              0.000
  478.82408 |****************************************                      0.062
  487.52997 |****************************************                      0.062
  496.23586 |                                                              0.000
  504.94175 |                                                              0.000
  513.64764 |                                                              0.000
  522.35354 |********************                                          0.031
  531.05943 |********************                                          0.031
  539.76532 |                                                              0.000
  548.47121 |********************                                          0.031
--------------------------------------------------------------------------------



  XYZ File written as 002/4/sp_mod_0/sp_mod_0_eig.xyz


  Time to end of properties =       0.0132 seconds


  Peak dynamic memory used =       0.64 MB 


  Timing analysis for GULP :

--------------------------------------------------------------------------------
  Task / Subroutine                                          Time (Seconds)
--------------------------------------------------------------------------------
  Calculation of phonons                                          0.0039
--------------------------------------------------------------------------------
  Total CPU time                                                  0.0132
--------------------------------------------------------------------------------


  Job Finished at 10:30.32 17th May        2022                               

