------------------------------------------------------------
          Invoking FHI-aims ...

          When using FHI-aims, please cite the following reference:

            Volker Blum, Ralf Gehrke, Felix Hanke, Paula Havu,
            Ville Havu, Xinguo Ren, Karsten Reuter, and Matthias Scheffler,
            'Ab Initio Molecular Simulations with Numeric Atom-Centered Orbitals',
            Computer Physics Communications 180, 2175-2196 (2009)

          In addition, many other developments in FHI-aims are likely important for
          your particular application. A partial list of references is given at the end of
          this file. Thank you for giving credit to the authors of these developments.

          For any questions about FHI-aims, please visit our slack channel at

            https://fhi-aims.slack.com

          and our main development and support site at

            https://aims-git.rz-berlin.mpg.de .

          The latter site, in particular, has a wiki to collect information, as well
          as an issue tracker to log discussions, suggest improvements, and report issues
          or bugs. https://aims-git.rz-berlin.mpg.de is also the main development site
          of the project and all new and updated code versions can be obtained there.
          Please send an email to aims-coordinators@fhi-berlin.mpg.de and we will add
          you to these sites. They are for you and everyone is welcome there.

------------------------------------------------------------



  Date     :  20220517, Time     :  105459.202
  Time zero on CPU 1             :   0.406580000000000E-01  s.
  Internal wall clock time zero  :           422016899.202  s.

  FHI-aims created a unique identifier for this run for later identification
  aims_uuid : C6A5655D-6C73-409A-A04F-086ADBA14807

  Build configuration of the current instance of FHI-aims
  -------------------------------------------------------
  FHI-aims version      : 210914
  Commit number         : GITDIR-NOTFOUND
  CMake host system     : Linux-3.10.0-693.17.1.el7.x86_64
  CMake version         : 3.21.1
  Fortran compiler      : /shared/ucl/apps/intel/2018.Update3/impi/2018.3.222/intel64/bin/mpiifort (Intel) version 18.0.3.20180410
  Fortran compiler flags: -O3 -ip -fp-model precise
  C compiler            : /shared/ucl/apps/intel/2018.Update3/compilers_and_libraries_2018.3.222/linux/bin/intel64/icc (Intel) version 18.0.3.20180410
  C compiler flags      : -O3 -ip -fp-model precise -std=gnu99
  ELPA2 kernel          : AVX2
  Using MPI
  Using ScaLAPACK
  Using LibXC
  Using i-PI
  Using RLSY
  Linking against: /shared/ucl/apps/intel/2019.Update5/compilers_and_libraries_2019.5.281/linux/mkl/lib/intel64/libmkl_intel_lp64.so
                   /shared/ucl/apps/intel/2019.Update5/compilers_and_libraries_2019.5.281/linux/mkl/lib/intel64/libmkl_sequential.so
                   /shared/ucl/apps/intel/2019.Update5/compilers_and_libraries_2019.5.281/linux/mkl/lib/intel64/libmkl_core.so
                   /shared/ucl/apps/intel/2019.Update5/compilers_and_libraries_2019.5.281/linux/mkl/lib/intel64/libmkl_blacs_intelmpi_lp64.so
                   /shared/ucl/apps/intel/2019.Update5/compilers_and_libraries_2019.5.281/linux/mkl/lib/intel64/libmkl_scalapack_lp64.so

  Using       24 parallel tasks.
  Task        0 on host node-k98a-025 reporting.
  Task        1 on host node-k98a-025 reporting.
  Task        2 on host node-k98a-025 reporting.
  Task        3 on host node-k98a-025 reporting.
  Task        4 on host node-k98a-025 reporting.
  Task        5 on host node-k98a-025 reporting.
  Task        6 on host node-k98a-025 reporting.
  Task        7 on host node-k98a-025 reporting.
  Task        8 on host node-k98a-025 reporting.
  Task        9 on host node-k98a-025 reporting.
  Task       10 on host node-k98a-025 reporting.
  Task       11 on host node-k98a-025 reporting.
  Task       12 on host node-k98a-025 reporting.
  Task       13 on host node-k98a-025 reporting.
  Task       14 on host node-k98a-025 reporting.
  Task       15 on host node-k98a-025 reporting.
  Task       16 on host node-k98a-025 reporting.
  Task       17 on host node-k98a-025 reporting.
  Task       18 on host node-k98a-025 reporting.
  Task       19 on host node-k98a-025 reporting.
  Task       20 on host node-k98a-025 reporting.
  Task       21 on host node-k98a-025 reporting.
  Task       22 on host node-k98a-025 reporting.
  Task       23 on host node-k98a-025 reporting.

  Performing system and environment tests:
  | Environment variable OMP_NUM_THREADS correctly set to 1.
  | Checking for ScaLAPACK...
  | Testing pdtran()...
  | All pdtran() tests passed.

  Obtaining array dimensions for all initial allocations:
  
  -----------------------------------------------------------------------
  Parsing control.in (first pass over file, find array dimensions only).
  The contents of control.in will be repeated verbatim below
  unless switched off by setting 'verbatim_writeout .false.' .
  in the first line of control.in .
  -----------------------------------------------------------------------
  
  #########################################################################################  Physical model
  #########################################################################################
  xc                 pbesol
  spin               none
  relativistic       atomic_zora scalar
  charge             0.0
  #  SCF convergence
  occupation_type    gaussian 0.01
  mixer              pulay
  n_max_pulay        10
  charge_mix_param   0.5
  sc_accuracy_rho    1E-5
  sc_accuracy_eev    1E-3
  sc_accuracy_etot   1E-6
  sc_accuracy_forces 1E-4
  sc_iter_limit      1500
  #  Relaxation
  #relax_geometry   bfgs 1.e-3
  
  ################################################################################
  #
  #  FHI-aims code project
  #  VB, Fritz-Haber Institut, 2009
  #
  #  Suggested "light" defaults for Al atom (to be pasted into control.in file)
  #  Be sure to double-check any results obtained with these settings for post-processing,
  #  e.g., with the "tight" defaults and larger basis sets.
  #
  ################################################################################
    species        Al
  #     global species definitions
      nucleus             13
      mass                26.9815386
  #
      l_hartree           4
  #
      cut_pot             3.5          1.5  1.0
      basis_dep_cutoff    1e-4
  #
      radial_base         41 5.0
      radial_multiplier   1
      angular_grids       specified
        division   0.6594  110
        division   0.8170  194
        division   0.9059  302
  #      division   1.0363  434
  #      division   1.1443  590
  #      division   1.2621  770
  #      division   2.8177  974
  #      outer_grid   974
        outer_grid   302
  ################################################################################
  #
  #  Definition of "minimal" basis
  #
  ################################################################################
  #     valence basis states
      valence      3  s   2.
      valence      3  p   1.
  #     ion occupancy
      ion_occ      3  s   1.
      ion_occ      2  p   6.
  ################################################################################
  #
  #  Suggested additional basis functions. For production calculations,
  #  uncomment them one after another (the most important basis functions are
  #  listed first).
  #
  #  Constructed for dimers: 2.0 A, 2.5 A, 3.0 A, 3.75 A, 4.5 A
  #
  ################################################################################
  #  "First tier" - improvements: -199.47 meV to -10.63 meV
       ionic 3 d auto
       ionic 3 p auto
  #     hydro 4 f 4.7
       ionic 3 s auto
  #  "Second tier" - improvements: -5.35 meV to -1.57 meV
  #     hydro 5 g 7
  #     hydro 3 d 6
  #     hydro 2 s 11.6
  #     hydro 2 p 0.9
  #  "Third tier" - improvements: -0.63 meV to -0.20 meV
  #     hydro 5 f 7.6
  #     hydro 4 p 7.2
  #     hydro 4 s 3.7
  #     hydro 4 d 7.6
  #  "Fourth tier" - improvements: -0.17 meV to -0.08 meV
  #     hydro 4 d 13.6
  #     hydro 5 g 11.2
  #     hydro 4 d 0.9
  #     hydro 1 s 0.4
  #     hydro 4 p 0.1
  #     hydro 5 f 9.8
  #  Further basis functions that fell out of the optimization - noise level...
  #     hydro 4 p 5
  
  ################################################################################
  #
  #  FHI-aims code project
  #  VB, Fritz-Haber Institut, 2009
  #
  #  Suggested "light" defaults for F atom (to be pasted into control.in file)
  #  Be sure to double-check any results obtained with these settings for post-processing,
  #  e.g., with the "tight" defaults and larger basis sets.
  #
  ################################################################################
    species        F
  #     global species definitions
      nucleus             9
      mass                18.9984032
  #
      l_hartree           4
  #
      cut_pot             3.5  1.5  1.0
      basis_dep_cutoff    1e-4
  #
      radial_base         37 5.0
      radial_multiplier   1
      angular_grids specified
        division   0.4014  110
        division   0.5291  194
        division   0.6019  302
  #      division   0.6814  434
  #      division   0.7989  590
  #      division   0.8965  770
  #      division   1.3427  974
  #      outer_grid   974
        outer_grid   302
  ################################################################################
  #
  #  Definition of "minimal" basis
  #
  ################################################################################
  #     valence basis states
      valence      2  s   2.
      valence      2  p   5.
  #     ion occupancy
      ion_occ      2  s   1.
      ion_occ      2  p   4.
  ################################################################################
  #
  #  Suggested additional basis functions. For production calculations,
  #  uncomment them one after another (the most important basis functions are
  #  listed first).
  #
  #  Constructed for dimers: 1.2 A, 1.418 A, 1.75 A, 2.25 A, 3.25 A
  #
  ################################################################################
  #  "First tier" - improvements: -149.44 meV to -45.88 meV
       hydro 2 p 1.7
       hydro 3 d 7.4
       hydro 3 s 6.8
  #  "Second tier" - improvements: -12.96 meV to -1.56 meV
  #     hydro 4 f 11.2
  #     ionic 2 p auto
  #     hydro 1 s 0.75
  #     hydro 4 d 8.8
  #     hydro 5 g 16.8
  #  "Third tier" - improvements: -0.58 meV to -0.05 meV
  #     hydro 3 p 6.2
  #     hydro 3 s 3.2
  #     hydro 4 f 9.6
  #     hydro 3 s 19.6
  #     hydro 4 d 8.6
  #     hydro 5 g 14.4
  # Further basis functions: -0.05 meV and below
  #     hydro 3 p 4.2
  
  -----------------------------------------------------------------------
  Completed first pass over input file control.in .
  -----------------------------------------------------------------------
  
  
  -----------------------------------------------------------------------
  Parsing geometry.in (first pass over file, find array dimensions only).
  The contents of geometry.in will be repeated verbatim below
  unless switched off by setting 'verbatim_writeout .false.' .
  in the first line of geometry.in .
  -----------------------------------------------------------------------
  
  atom 1.270765862 0.062785116 2.450108837 Al
  atom 1.276784000 1.189243000 -0.083083000 Al
  atom -0.307230985 0.821947164 -2.328521673 Al
  atom -1.616713004 -0.432694144 -2.247204677 F
  atom 2.009131192 -0.378673154 0.747681913 F
  atom 0.007892984 1.869284654 -3.775711394 F
  atom -0.385932626 1.883125281 -0.745476095 F
  atom 2.587876553 2.420946509 -0.320355444 F
  atom 1.303843423 0.074005328 -1.656080577 F
  atom 0.481204871 1.582496223 1.628995902 F
  atom 2.585604930 0.546713419 3.602319009 F
  atom -0.033285641 -1.137852859 2.841770786 F
  
  -----------------------------------------------------------------------
  Completed first pass over input file geometry.in .
  -----------------------------------------------------------------------
  

  Basic array size parameters:
  | Number of species                 :        2
  | Number of atoms                   :       12
  | Max. basis fn. angular momentum   :        2
  | Max. atomic/ionic basis occupied n:        3
  | Max. number of basis fn. types    :        3
  | Max. radial fns per species/type  :        5
  | Max. logarithmic grid size        :     1340
  | Max. radial integration grid size :       41
  | Max. angular integration grid size:      302
  | Max. angular grid division number :        8
  | Radial grid for Hartree potential :     1340
  | Number of spin channels           :        1

------------------------------------------------------------
          Reading file control.in.
------------------------------------------------------------
  XC: Using PBEsol gradient-corrected functionals.
  Spin treatment: No spin polarisation.
  Scalar relativistic treatment of kinetic energy: on-site free-atom approximation to ZORA.
  Charge =   0.000000E+00: Neutral system requested explicitly.
  Occupation type: Gaussian broadening, width =   0.100000E-01 eV.
  Using pulay charge density mixing.
  Pulay mixing - number of memorized iterations:   10
  Charge density mixing - mixing parameter:     0.5000
  Convergence accuracy of self-consistent charge density:  0.1000E-04
  Convergence accuracy of sum of eigenvalues:  0.1000E-02
  Convergence accuracy of total energy:  0.1000E-05
  Convergence accuracy of forces:  0.1000E-03
  Maximum number of s.-c. iterations  :  1500
 
  Reading configuration options for species Al                  .
  | Found nuclear charge :  13.0000
  | Found atomic mass :    26.9815386000000      amu
  | Found l_max for Hartree potential  :   4
  | Found cutoff potl. onset [A], width [A], scale factor :    3.50000    1.50000    1.00000
  | Threshold for basis-dependent cutoff potential is   0.100000E-03
  | Found data for basic radial integration grid :    41 points, outermost radius =    5.000 A
  | Found multiplier for basic radial grid :   1
  | Found angular grid specification: user-specified.
  | Specified grid contains     4 separate shells.
  | Check grid settings after all constraints further below.
  | Found free-atom valence shell :  3 s   2.000
  | Found free-atom valence shell :  3 p   1.000
  | Found free-ion valence shell :  3 s   1.000
  | Found free-ion valence shell :  2 p   6.000
  | Found ionic basis function :  3 d , default cutoff radius.
  | Found ionic basis function :  3 p , default cutoff radius.
  | Found ionic basis function :  3 s , default cutoff radius.
  Species Al                  : Missing cutoff potential type.
  Defaulting to exp(1/x)/(1-x)^2 type cutoff potential.
  Species Al: No 'logarithmic' tag. Using default grid for free atom:
  | Default logarithmic grid data [bohr] : 0.1000E-03 0.1000E+03 0.1012E+01
  | Will include ionic basis functions of  2.0-fold positive Al                   ion.
  Species Al: On-site basis accuracy parameter (for Gram-Schmidt orthonormalisation) not specified.
  Using default value basis_acc =  0.1000000E-03.
  Species Al                  : Using default innermost maximum threshold i_radial=  2 for radial functions.
  Species Al                  : Default cutoff onset for free atom density etc. : 0.35000000E+01 AA.
  Species Al                  : Basic radial grid will be enhanced according to radial_multiplier =   1, to contain    41 grid points.
 
  Reading configuration options for species F                   .
  | Found nuclear charge :   9.0000
  | Found atomic mass :    18.9984032000000      amu
  | Found l_max for Hartree potential  :   4
  | Found cutoff potl. onset [A], width [A], scale factor :    3.50000    1.50000    1.00000
  | Threshold for basis-dependent cutoff potential is   0.100000E-03
  | Found data for basic radial integration grid :    37 points, outermost radius =    5.000 A
  | Found multiplier for basic radial grid :   1
  | Found angular grid specification: user-specified.
  | Specified grid contains     4 separate shells.
  | Check grid settings after all constraints further below.
  | Found free-atom valence shell :  2 s   2.000
  | Found free-atom valence shell :  2 p   5.000
  | Found free-ion valence shell :  2 s   1.000
  | Found free-ion valence shell :  2 p   4.000
  | Found hydrogenic basis function :  2 p   1.700
  | Found hydrogenic basis function :  3 d   7.400
  | Found hydrogenic basis function :  3 s   6.800
  Species F                   : Missing cutoff potential type.
  Defaulting to exp(1/x)/(1-x)^2 type cutoff potential.
  Species F : No 'logarithmic' tag. Using default grid for free atom:
  | Default logarithmic grid data [bohr] : 0.1000E-03 0.1000E+03 0.1012E+01
  Species F : On-site basis accuracy parameter (for Gram-Schmidt orthonormalisation) not specified.
  Using default value basis_acc =  0.1000000E-03.
  Species F                   : Using default innermost maximum threshold i_radial=  2 for radial functions.
  Species F                   : Default cutoff onset for free atom density etc. : 0.35000000E+01 AA.
  Species F                   : Basic radial grid will be enhanced according to radial_multiplier =   1, to contain    37 grid points.
 
  Finished reading input file 'control.in'.
 
------------------------------------------------------------


------------------------------------------------------------
          Reading geometry description geometry.in.
------------------------------------------------------------
  | The smallest distance between any two atoms is         1.81399467 AA.
  | The first atom of this pair is atom number                      1 .
  | The second atom of this pair is atom number                    11 .
  Input structure read successfully.
  The structure contains       12 atoms,  and a total of        120.000 electrons.

  Input geometry:
  | No unit cell requested.
  | Atomic structure:
  |       Atom                x [A]            y [A]            z [A]
  |    1: Species Al            1.27076586        0.06278512        2.45010884
  |    2: Species Al            1.27678400        1.18924300       -0.08308300
  |    3: Species Al           -0.30723099        0.82194716       -2.32852167
  |    4: Species F            -1.61671300       -0.43269414       -2.24720468
  |    5: Species F             2.00913119       -0.37867315        0.74768191
  |    6: Species F             0.00789298        1.86928465       -3.77571139
  |    7: Species F            -0.38593263        1.88312528       -0.74547610
  |    8: Species F             2.58787655        2.42094651       -0.32035544
  |    9: Species F             1.30384342        0.07400533       -1.65608058
  |   10: Species F             0.48120487        1.58249622        1.62899590
  |   11: Species F             2.58560493        0.54671342        3.60231901
  |   12: Species F            -0.03328564       -1.13785286        2.84177079

 
  Finished reading input file 'control.in'.
 

------------------------------------------------------------
          Reading geometry description geometry.in.
------------------------------------------------------------
 
  Consistency checks for stacksize environment parameter are next.
 
  | Maximum stacksize for task 0: unlimited
  | Maximum stacksize for task 1: unlimited
  | Maximum stacksize for task 2: unlimited
  | Maximum stacksize for task 3: unlimited
  | Maximum stacksize for task 4: unlimited
  | Maximum stacksize for task 5: unlimited
  | Maximum stacksize for task 6: unlimited
  | Maximum stacksize for task 7: unlimited
  | Maximum stacksize for task 8: unlimited
  | Maximum stacksize for task 9: unlimited
  | Maximum stacksize for task 10: unlimited
  | Maximum stacksize for task 11: unlimited
  | Maximum stacksize for task 12: unlimited
  | Maximum stacksize for task 13: unlimited
  | Maximum stacksize for task 14: unlimited
  | Maximum stacksize for task 15: unlimited
  | Maximum stacksize for task 16: unlimited
  | Maximum stacksize for task 17: unlimited
  | Maximum stacksize for task 18: unlimited
  | Maximum stacksize for task 19: unlimited
  | Maximum stacksize for task 20: unlimited
  | Maximum stacksize for task 21: unlimited
  | Maximum stacksize for task 22: unlimited
  | Maximum stacksize for task 23: unlimited
  | Current stacksize for task 0: unlimited
  | Current stacksize for task 1: unlimited
  | Current stacksize for task 2: unlimited
  | Current stacksize for task 3: unlimited
  | Current stacksize for task 4: unlimited
  | Current stacksize for task 5: unlimited
  | Current stacksize for task 6: unlimited
  | Current stacksize for task 7: unlimited
  | Current stacksize for task 8: unlimited
  | Current stacksize for task 9: unlimited
  | Current stacksize for task 10: unlimited
  | Current stacksize for task 11: unlimited
  | Current stacksize for task 12: unlimited
  | Current stacksize for task 13: unlimited
  | Current stacksize for task 14: unlimited
  | Current stacksize for task 15: unlimited
  | Current stacksize for task 16: unlimited
  | Current stacksize for task 17: unlimited
  | Current stacksize for task 18: unlimited
  | Current stacksize for task 19: unlimited
  | Current stacksize for task 20: unlimited
  | Current stacksize for task 21: unlimited
  | Current stacksize for task 22: unlimited
  | Current stacksize for task 23: unlimited
 
  Consistency checks for the contents of control.in are next.
 
  MPI_IN_PLACE appears to work with this MPI implementation.
  | Keeping use_mpi_in_place .true. (see manual).
  Target number of points in a grid batch is not set. Defaulting to  100
  Method for grid partitioning is not set. Defaulting to parallel hash+maxmin partitioning.
  Batch size limit is not set. Defaulting to    200
  By default, will store active basis functions for each batch.
  If in need of memory, prune_basis_once .false. can be used to disable this option.
  communication_type for Hartree potential was not specified.
  Defaulting to calc_hartree .
  Pulay mixer: Number of initial linear mixing iterations not set.
  Defaulting to    0 iterations.
  Work space size for distributed Hartree potential not set.
  Defaulting to   0.200000E+03 MB.
  Algorithm-dependent basis array size parameters:
  | n_max_pulay                         :       10
  Presetting      1001 iterations before the initial mixing cycle
  is restarted anyway using the sc_init_iter criterion / keyword.
  Presetting a factor      1.000 between actual scf density residual
  and density convergence criterion sc_accuracy_rho below which sc_init_iter
  takes no effect.
  Geometry relaxation not requested: no relaxation will be performed.
  Forces evaluation will include force correction term due to incomplete self-consistency (default).
  Handling of forces: Unphysical translation and rotation will be removed from forces.
  No accuracy limit for integral partition fn. given. Defaulting to  0.1000E-14.
  No threshold value for u(r) in integrations given. Defaulting to  0.1000E-05.
  No accuracy for occupation numbers given. Defaulting to  0.1000E-12.
  No threshold value for occupation numbers given. Defaulting to  0.0000E+00.
  No accuracy for fermi level given. Defaulting to  0.1000E-19.
  Maximum # of iterations to find E_F not set. Defaulting to  200.
  Preferred method for the eigenvalue solver ('KS_method') not specified in 'control.in'.
  Calling BLACS routine to test compilation state
  Since ScaLAPACK support is enabled, defaulting to ELPA (via ELSI).
  Will not use alltoall communication since running on < 1024 CPUs.
  Threshold for basis singularities not set.
  Default threshold for basis singularities:  0.1000E-04
  partition_type (choice of integration weights) for integrals was not specified.
  | Using a version of the partition function of Stratmann and coworkers ('stratmann_sparse').
  | At each grid point, the set of atoms used to build the partition table is smoothly restricted to
  | only those atoms whose free-atom density would be non-zero at that grid point.
  Partitioning for Hartree potential was not defined. Using partition_type for integrals.
  | Adjusted default value of keyword multip_moments_threshold to:       0.10000000E-11
  | This value may affect high angular momentum components of the Hartree potential in periodic systems.
  No q(lm)/r^(l+1) cutoff set for long-range Hartree potential.
  | Using default value of  0.100000E-09 .
  | Verify using the multipole_threshold keyword.
  Defaulting to new monopole extrapolation.
  Density update method: automatic selection selected.
  Charge integration errors on the 3D integration grid will be compensated
  by explicit normalization and distribution of residual charges.
  Use the "compensate_multipole_errors" flag to change this behaviour.
  Set 'collect_eigenvectors' to be '.true.' for use_density_matrix .false.
 
  Consistency checks for the contents of geometry.in are next.
 
  Number of empty states per atom not set in control.in - providing a guess from actual geometry.
  | Total number of empty states used during s.c.f. cycle:       36
  If you use a very high smearing, use empty_states (per atom!) in control.in to increase this value.

  Structure-dependent array size parameters: 
  | Maximum number of distinct radial functions  :       14
  | Maximum number of basis functions            :      180
  | Number of Kohn-Sham states (occupied + empty):       96
------------------------------------------------------------

------------------------------------------------------------
          Preparing all fixed parts of the calculation.
------------------------------------------------------------
  Determining machine precision:
    2.225073858507201E-308
  Setting up grids for atomic and cluster calculations.

  Creating wave function, potential, and density for free atoms.

  Species: Al

  List of occupied orbitals and eigenvalues:
    n    l              occ      energy [Ha]    energy [eV]
    1    0           2.0000       -55.621123     -1513.5278
    2    0           2.0000        -3.957030      -107.6763
    3    0           2.0000        -0.272233        -7.4078
    2    1           6.0000        -2.540949       -69.1427
    3    1           1.0000        -0.083300        -2.2667


  Species: F

  List of occupied orbitals and eigenvalues:
    n    l              occ      energy [Ha]    energy [eV]
    1    0           2.0000       -24.399611      -663.9472
    2    0           2.0000        -1.098702       -29.8972
    2    1           5.0000        -0.408210       -11.1080


  Adding cutoff potential to free-atom effective potential.
  Creating fixed part of basis set: Ionic, confined, hydrogenic.
 
  Al                   ion:

  List of free ionic orbitals and eigenvalues:
    n    l      energy [Ha]    energy [eV]
    1    0       -56.418846     -1535.2349
    2    0        -4.732717      -128.7838
    3    0        -0.872690       -23.7471
    2    1        -3.317230       -90.2664


  List of ionic basis orbitals and eigenvalues:
    n    l      energy [Ha]    energy [eV]    outer radius [A]
    3    2        -0.346815        -9.4373       4.594041
    3    1        -0.631870       -17.1940       4.538221
    3    0        -0.872657       -23.7462       4.538221

 
  F                    hydrogenic:
 
  List of hydrogenic basis orbitals: 
    n    l      effective z      eigenvalue [eV]  inner max. [A]     outer max. [A]     outer radius [A]   
    2    1         1.700000        -9.7616           1.243167           1.243167           4.598524
    3    2         7.400000       -82.7828           0.642437           0.642437           3.305741
    3    0         6.800000       -69.9026           0.057798           1.022307           3.781556
 
  Creating atomic-like basis functions for current effective potential.

  Species Al                  :

  List of atomic basis orbitals and eigenvalues:
    n    l      energy [Ha]    energy [eV]    outer radius [A]
    1    0       -55.621123     -1513.5278       0.850197
    2    0        -3.957030      -107.6763       3.144911
    3    0        -0.272233        -7.4078       4.594041
    2    1        -2.540949       -69.1427       3.731966
    3    1        -0.083300        -2.2667       4.594041


  Species F                   :

  List of atomic basis orbitals and eigenvalues:
    n    l      energy [Ha]    energy [eV]    outer radius [A]
    1    0       -24.399611      -663.9472       1.258458
    2    0        -1.098702       -29.8972       4.325857
    2    1        -0.408210       -11.1080       4.487453

  Assembling full basis from fixed parts.
  | Species Al :   atomic orbital   1 s accepted.
  | Species Al :   atomic orbital   2 s accepted.
  | Species Al :    ionic orbital   3 s accepted.
  | Species Al :   atomic orbital   3 s accepted.
  | Species Al :   atomic orbital   2 p accepted.
  | Species Al :    ionic orbital   3 p accepted.
  | Species Al :   atomic orbital   3 p accepted.
  | Species Al :    ionic orbital   3 d accepted.
  | Species F :   atomic orbital   1 s accepted.
  | Species F :    hydro orbital   3 s accepted.
  | Species F :   atomic orbital   2 s accepted.
  | Species F :   atomic orbital   2 p accepted.
  | Species F :    hydro orbital   2 p accepted.
  | Species F :    hydro orbital   3 d accepted.
 
  Basis size parameters after reduction:
  | Total number of radial functions:       14
  | Total number of basis functions :      180
 
  Per-task memory consumption for arrays in subroutine allocate_ext:
  |           4.807768MB.
  Testing on-site integration grid accuracy.
  |  Species  Function  <phi|h_atom|phi> (log., in eV)  <phi|h_atom|phi> (rad., in eV)
           1        1              -1513.5277717935              -1513.5271881332
           1        2               -107.6762691836               -107.6762662489
           1        3                 -6.9467474784                 -6.9471269649
           1        4                  5.5771951849                  5.4862107220 ***
           1        5                -69.1427313144                -69.1427312731
           1        6                 -1.5197375330                 -1.5230432022
           1        7                  6.8210948310                  6.5529872240 ***
           1        8                  4.3216540965                  4.2851170187 ***
           2        9               -663.9471986398               -663.9470363334
           2       10                 16.8514011578                 16.8512525338
           2       11                -28.4490593856                -28.4490661472
           2       12                -11.1080115307                -11.1080620173
           2       13                  7.1940182175                  7.1685154137
           2       14                 44.8544281765                 44.8543763625
 * Note: Onsite integrals marked "***" above are less accurate than
 * onsite_accuracy_threshold =    0.03000 eV. Usually, this is harmless.
 * When in doubt, tighten the "radial" and/or "radial_multiplier" flags to check.

  Preparing densities etc. for the partition functions (integrals / Hartree potential).

  Preparations completed.
  max(cpu_time)          :      0.184 s.
  Wall clock time (cpu1) :      0.184 s.
------------------------------------------------------------

------------------------------------------------------------
          Begin self-consistency loop: Initialization.

          Date     :  20220517, Time     :  105459.431
------------------------------------------------------------

  Initializing index lists of integration centers etc. from given atomic structure:
  | Number of centers in hartree potential         :        12
  | Number of centers in hartree multipole         :        12
  | Number of centers in electron density summation:        12
  | Number of centers in basis integrals           :        12
  | Number of centers in integrals                 :        12
  | Number of centers in hamiltonian               :        12
  * Using 24 tasks for Scalapack Eigenvalue solver.
  Detailed listing of tasks and assigned k-points:
  (for non-periodic systems, the "k-point" denotes an internal label only)
   Task     0 k-point     1 on node-k98a-025
   Task     1 k-point     1 on node-k98a-025
   Task     2 k-point     1 on node-k98a-025
   Task     3 k-point     1 on node-k98a-025
   Task     4 k-point     1 on node-k98a-025
   Task     5 k-point     1 on node-k98a-025
   Task     6 k-point     1 on node-k98a-025
   Task     7 k-point     1 on node-k98a-025
   Task     8 k-point     1 on node-k98a-025
   Task     9 k-point     1 on node-k98a-025
   Task    10 k-point     1 on node-k98a-025
   Task    11 k-point     1 on node-k98a-025
   Task    12 k-point     1 on node-k98a-025
   Task    13 k-point     1 on node-k98a-025
   Task    14 k-point     1 on node-k98a-025
   Task    15 k-point     1 on node-k98a-025
   Task    16 k-point     1 on node-k98a-025
   Task    17 k-point     1 on node-k98a-025
   Task    18 k-point     1 on node-k98a-025
   Task    19 k-point     1 on node-k98a-025
   Task    20 k-point     1 on node-k98a-025
   Task    21 k-point     1 on node-k98a-025
   Task    22 k-point     1 on node-k98a-025
   Task    23 k-point     1 on node-k98a-025
  Tasks:    24 split into      6 X      4 BLACS grid
  Calculating block size based on n_basis =          180  max_nprow =            6  max_npcol =            4
  ScaLAPACK block size set to:           16
  Allocating        0.012 MB for ovlp
  Allocating        0.012 MB for ham
  Allocating        0.012 MB for eigenvec
  Required Scalapack workspace - INTEGER:            1  REAL:             1
  Partitioning the integration grid into batches with parallel hashing+maxmin method.
  | Number of batches:     1087
  | Maximal batch size:     199
  | Minimal batch size:      23
  | Average batch size:      84.563
  | Standard deviation of batch sizes:      24.237

  Integration load balanced across    24 MPI tasks.
  Work distribution over tasks is as follows:
  Task     0 has       3830 integration points.
  Task     1 has       3762 integration points.
  Task     2 has       3812 integration points.
  Task     3 has       3768 integration points.
  Task     4 has       3842 integration points.
  Task     5 has       3906 integration points.
  Task     6 has       3901 integration points.
  Task     7 has       3839 integration points.
  Task     8 has       3801 integration points.
  Task     9 has       3824 integration points.
  Task    10 has       3830 integration points.
  Task    11 has       3830 integration points.
  Task    12 has       3902 integration points.
  Task    13 has       3818 integration points.
  Task    14 has       3834 integration points.
  Task    15 has       3781 integration points.
  Task    16 has       3761 integration points.
  Task    17 has       3866 integration points.
  Task    18 has       3798 integration points.
  Task    19 has       3844 integration points.
  Task    20 has       3848 integration points.
  Task    21 has       3870 integration points.
  Task    22 has       3826 integration points.
  Task    23 has       3827 integration points.
  Initializing partition tables, free-atom densities, potentials, etc. across the integration grid (initialize_grid_storage).
  | initialize_grid_storage: Actual outermost partition radius vs. multipole_radius_free
  | (-- VB: in principle, multipole_radius_free should be larger, hence this output)
  | Species        1: Confinement radius =              4.999999999999999 AA, multipole_radius_free =              5.004487022111096 AA.
  | Species        1: outer_partition_radius set to              5.004487022111096 AA .
  | Species        2: Confinement radius =              4.999999999999999 AA, multipole_radius_free =              5.009370088163274 AA.
  | Species        2: outer_partition_radius set to              5.009370088163274 AA .
  | The sparse table of interatomic distances needs          1.64 kbyte instead of         1.15 kbyte of memory.
  | Using the partition_type stratmann_smoother will reduce your memory usage.
  | Net number of integration points:    91920
  | of which are non-zero points    :    85871
  Renormalizing the initial density to the exact electron count on the 3D integration grid.
  | Initial density: Formal number of electrons (from input files) :     120.0000000000
  | Integrated number of electrons on 3D grid     :     119.9999619126
  | Charge integration error                      :      -0.0000380874
  | Normalization factor for density and gradient :       1.0000003174
  Renormalizing the free-atom superposition density to the exact electron count on the 3D integration grid.
  | Formal number of electrons (from input files) :     120.0000000000
  | Integrated number of electrons on 3D grid     :     119.9999619126
  | Charge integration error                      :      -0.0000380874
  | Normalization factor for density and gradient :       1.0000003174
  Obtaining max. number of non-zero basis functions in each batch (get_n_compute_maxes).
  | Maximal number of non-zero basis functions:      159 in task     0
  | Maximal number of non-zero basis functions:      159 in task     1
  | Maximal number of non-zero basis functions:      166 in task     2
  | Maximal number of non-zero basis functions:      164 in task     3
  | Maximal number of non-zero basis functions:      163 in task     4
  | Maximal number of non-zero basis functions:      162 in task     5
  | Maximal number of non-zero basis functions:      163 in task     6
  | Maximal number of non-zero basis functions:      165 in task     7
  | Maximal number of non-zero basis functions:      164 in task     8
  | Maximal number of non-zero basis functions:      166 in task     9
  | Maximal number of non-zero basis functions:      156 in task    10
  | Maximal number of non-zero basis functions:      166 in task    11
  | Maximal number of non-zero basis functions:      164 in task    12
  | Maximal number of non-zero basis functions:      159 in task    13
  | Maximal number of non-zero basis functions:      164 in task    14
  | Maximal number of non-zero basis functions:      160 in task    15
  | Maximal number of non-zero basis functions:      159 in task    16
  | Maximal number of non-zero basis functions:      160 in task    17
  | Maximal number of non-zero basis functions:      159 in task    18
  | Maximal number of non-zero basis functions:      159 in task    19
  | Maximal number of non-zero basis functions:      158 in task    20
  | Maximal number of non-zero basis functions:      158 in task    21
  | Maximal number of non-zero basis functions:      160 in task    22
  | Maximal number of non-zero basis functions:      159 in task    23
  Selecting the method for density update.
  Loop over occupied states selected for charge density update.
  Allocating        0.132 MB for KS_eigenvector
  Integrating Hamiltonian matrix: batch-based integration.
  Time summed over all CPUs for integration: real work        0.682 s, elapsed        0.729 s
  Integrating overlap matrix.
  Time summed over all CPUs for integration: real work        0.261 s, elapsed        0.283 s
  Deallocating overlap matrix.

  Updating Kohn-Sham eigenvalues and eigenvectors using ELSI and the ELPA eigensolver.
  Overlap matrix is not singular
  | Lowest and highest eigenvalues :  0.3409E-02,  0.4863E+01
  Finished singularity check of overlap matrix
  | Time :     0.004 s
  Starting ELPA eigensolver
  Finished Cholesky decomposition
  | Time :     0.003 s
  Finished transformation to standard eigenproblem
  | Time :     0.000 s
  Finished solving standard eigenproblem
  | Time :     0.004 s
  Finished back-transformation of eigenvectors
  | Time :     0.000 s

  Obtaining occupation numbers and chemical potential using ELSI.
  | Chemical potential (Fermi level):    -7.64329290 eV
  Writing Kohn-Sham eigenvalues.

  State    Occupation    Eigenvalue [Ha]    Eigenvalue [eV]
      1       2.00000         -55.485791        -1509.84518
      2       2.00000         -55.484024        -1509.79710
      3       2.00000         -55.484024        -1509.79710
      4       2.00000         -24.359762         -662.86284
      5       2.00000         -24.359762         -662.86284
      6       2.00000         -24.359752         -662.86259
      7       2.00000         -24.359752         -662.86259
      8       2.00000         -24.340800         -662.34687
      9       2.00000         -24.340800         -662.34687
     10       2.00000         -24.340756         -662.34568
     11       2.00000         -24.340643         -662.34260
     12       2.00000         -24.340643         -662.34260
     13       2.00000          -3.951468         -107.52493
     14       2.00000          -3.949121         -107.46105
     15       2.00000          -3.949120         -107.46103
     16       2.00000          -2.544009          -69.22600
     17       2.00000          -2.543277          -69.20610
     18       2.00000          -2.542813          -69.19347
     19       2.00000          -2.541561          -69.15939
     20       2.00000          -2.541557          -69.15928
     21       2.00000          -2.541485          -69.15732
     22       2.00000          -2.541470          -69.15691
     23       2.00000          -2.539883          -69.11374
     24       2.00000          -2.539883          -69.11373
     25       2.00000          -1.190962          -32.40774
     26       2.00000          -1.181117          -32.13983
     27       2.00000          -1.178430          -32.06670
     28       2.00000          -1.170455          -31.84971
     29       2.00000          -1.150402          -31.30403
     30       2.00000          -1.150246          -31.29979
     31       2.00000          -1.149225          -31.27200
     32       2.00000          -1.148033          -31.23956
     33       2.00000          -1.148024          -31.23932
     34       2.00000          -0.556308          -15.13792
     35       2.00000          -0.549450          -14.95129
     36       2.00000          -0.539158          -14.67123
     37       2.00000          -0.533135          -14.50733
     38       2.00000          -0.515123          -14.01722
     39       2.00000          -0.504726          -13.73428
     40       2.00000          -0.497114          -13.52716
     41       2.00000          -0.495822          -13.49201
     42       2.00000          -0.493342          -13.42451
     43       2.00000          -0.487095          -13.25453
     44       2.00000          -0.485792          -13.21907
     45       2.00000          -0.483042          -13.14424
     46       2.00000          -0.480286          -13.06924
     47       2.00000          -0.476977          -12.97919
     48       2.00000          -0.475927          -12.95064
     49       2.00000          -0.472265          -12.85099
     50       2.00000          -0.466284          -12.68822
     51       2.00000          -0.455388          -12.39174
     52       2.00000          -0.454890          -12.37818
     53       2.00000          -0.453818          -12.34902
     54       2.00000          -0.451949          -12.29816
     55       2.00000          -0.451086          -12.27466
     56       2.00000          -0.450295          -12.25315
     57       2.00000          -0.448657          -12.20857
     58       2.00000          -0.448124          -12.19407
     59       2.00000          -0.447638          -12.18086
     60       2.00000          -0.446442          -12.14829
     61       0.00000          -0.136231           -3.70704
     62       0.00000          -0.107161           -2.91599
     63       0.00000          -0.060982           -1.65939
     64       0.00000          -0.027052           -0.73611
     65       0.00000          -0.021465           -0.58409
     66       0.00000          -0.006831           -0.18588
     67       0.00000          -0.005947           -0.16183
     68       0.00000           0.039233            1.06759
     69       0.00000           0.049064            1.33510
     70       0.00000           0.065456            1.78116
     71       0.00000           0.083442            2.27056
     72       0.00000           0.120358            3.27512
     73       0.00000           0.144182            3.92339
     74       0.00000           0.153063            4.16506
     75       0.00000           0.172294            4.68835
     76       0.00000           0.174456            4.74720
     77       0.00000           0.174782            4.75605
     78       0.00000           0.180480            4.91110
     79       0.00000           0.190862            5.19362
     80       0.00000           0.202405            5.50773
     81       0.00000           0.206606            5.62203
     82       0.00000           0.215059            5.85206
     83       0.00000           0.224743            6.11555
     84       0.00000           0.232681            6.33158
     85       0.00000           0.251274            6.83752
     86       0.00000           0.267617            7.28222
     87       0.00000           0.269891            7.34412
     88       0.00000           0.273573            7.44431
     89       0.00000           0.281311            7.65485
     90       0.00000           0.292512            7.95966
     91       0.00000           0.294250            8.00695
     92       0.00000           0.304693            8.29111
     93       0.00000           0.337694            9.18912
     94       0.00000           0.347677            9.46077
     95       0.00000           0.363486            9.89097
     96       0.00000           0.373718           10.16938

  Highest occupied state (VBM) at    -12.14829478 eV
  | Occupation number:      2.00000000

  Lowest unoccupied state (CBM) at    -3.70703939 eV
  | Occupation number:      0.00000000

  Overall HOMO-LUMO gap:      8.44125538 eV.
  Calculating total energy contributions from superposition of free atom densities.

  Total energy components:
  | Sum of eigenvalues            :        -887.61836420 Ha      -24153.32459753 eV
  | XC energy correction          :        -144.33797893 Ha       -3927.63624251 eV
  | XC potential correction       :         187.93587181 Ha        5113.99526917 eV
  | Free-atom electrostatic energy:        -781.34421827 Ha      -21261.45795012 eV
  | Hartree energy correction     :           0.00000000 Ha           0.00000000 eV
  | Entropy correction            :           0.00000000 Ha           0.00000000 eV
  | ---------------------------
  | Total energy                  :       -1625.36468958 Ha      -44228.42352100 eV
  | Total energy, T -> 0          :       -1625.36468958 Ha      -44228.42352100 eV  <-- do not rely on this value for anything but (periodic) metals
  | Electronic free energy        :       -1625.36468958 Ha      -44228.42352100 eV

  Derived energy quantities:
  | Kinetic energy                :        1627.61623797 Ha       44289.69126980 eV
  | Electrostatic energy          :       -3108.64294863 Ha      -84590.47854829 eV
  | Energy correction for multipole
  | error in Hartree potential    :           0.00000000 Ha           0.00000000 eV
  | Sum of eigenvalues per atom                           :       -2012.77704979 eV
  | Total energy (T->0) per atom                          :       -3685.70196008 eV  <-- do not rely on this value for anything but (periodic) metals
  | Electronic free energy per atom                       :       -3685.70196008 eV
  Initialize hartree_potential_storage
  Max. number of atoms included in rho_multipole:           12

  End scf initialization - timings             :  max(cpu_time)    wall_clock(cpu1)
  | Time for scf. initialization                :        0.110 s           0.110 s
  | Boundary condition initialization           :        0.000 s           0.000 s
  | Integration                                 :        0.044 s           0.044 s
  | Solution of K.-S. eqns.                     :        0.012 s           0.012 s
  | Grid partitioning                           :        0.033 s           0.032 s
  | Preloading free-atom quantities on grid     :        0.014 s           0.015 s
  | Free-atom superposition energy              :        0.005 s           0.005 s
  | Total energy evaluation                     :        0.000 s           0.000 s

  Partial memory accounting:
  | Current value for overall tracked memory usage:
  |   Minimum:        0.273 MB (on task 23)
  |   Maximum:        0.292 MB (on task  0)
  |   Average:        0.287 MB
  | Peak value for overall tracked memory usage:
  |   Minimum:        1.316 MB (on task 10 after allocating wave)
  |   Maximum:        1.386 MB (on task  2 after allocating wave)
  |   Average:        1.349 MB
  | Largest tracked array allocation so far:
  |   Minimum:        0.240 MB (H_times_psi on task 20)
  |   Maximum:        0.433 MB (all_coords on task 10)
  |   Average:        0.266 MB
  Note:  These values currently only include a subset of arrays which are explicitly tracked.
  The "true" memory usage will be greater.
------------------------------------------------------------
  Evaluating new KS density.
  Integration grid: deviation in total charge (<rho> - N_e) =  -2.842171E-14

  Time for density update prior                :  max(cpu_time)    wall_clock(cpu1)
  | self-consistency iterative process          :        0.027 s           0.027 s

------------------------------------------------------------
          Begin self-consistency iteration #    1

  Date     :  20220517, Time     :  105459.569
------------------------------------------------------------
  Pulay mixing of updated and previous charge densities.
  Renormalizing the density to the exact electron count on the 3D integration grid.
  | Formal number of electrons (from input files) :     120.0000000000
  | Integrated number of electrons on 3D grid     :     120.0000000000
  | Charge integration error                      :       0.0000000000
  | Normalization factor for density and gradient :       1.0000000000

  Evaluating partitioned Hartree potential by multipole expansion.
  | Original multipole sum: apparent total charge =   0.230973E-13
  | Sum of charges compensated after spline to logarithmic grids =   0.100192E-03
  | Analytical far-field extrapolation by fixed multipoles:
  | Hartree multipole sum: apparent total charge =   0.227283E-13
  Summing up the Hartree potential.
  Time summed over all CPUs for potential: real work        0.381 s, elapsed        0.399 s
  | RMS charge density error from multipole expansion :   0.107006E-01

  Integrating Hamiltonian matrix: batch-based integration.
  Time summed over all CPUs for integration: real work        0.635 s, elapsed        0.672 s

  Updating Kohn-Sham eigenvalues and eigenvectors using ELSI and the ELPA eigensolver.
  Starting ELPA eigensolver
  Finished transformation to standard eigenproblem
  | Time :     0.001 s
  Finished solving standard eigenproblem
  | Time :     0.003 s
  Finished back-transformation of eigenvectors
  | Time :     0.000 s

  Obtaining occupation numbers and chemical potential using ELSI.
  | Chemical potential (Fermi level):    -7.72503654 eV
  Writing Kohn-Sham eigenvalues.

  State    Occupation    Eigenvalue [Ha]    Eigenvalue [eV]
      1       2.00000         -55.656197        -1514.48218
      2       2.00000         -55.640966        -1514.06773
      3       2.00000         -55.640966        -1514.06771
      4       2.00000         -24.228978         -659.30404
      5       2.00000         -24.228968         -659.30376
      6       2.00000         -24.226843         -659.24593
      7       2.00000         -24.226840         -659.24586
      8       2.00000         -24.074274         -655.09433
      9       2.00000         -24.074274         -655.09433
     10       2.00000         -24.072018         -655.03295
     11       2.00000         -24.072018         -655.03294
     12       2.00000         -24.069152         -654.95496
     13       2.00000          -4.095789         -111.45209
     14       2.00000          -4.080388         -111.03301
     15       2.00000          -4.080388         -111.03300
     16       2.00000          -2.690048          -73.19994
     17       2.00000          -2.687848          -73.14005
     18       2.00000          -2.687466          -73.12967
     19       2.00000          -2.673959          -72.76212
     20       2.00000          -2.673956          -72.76204
     21       2.00000          -2.673572          -72.75161
     22       2.00000          -2.673572          -72.75160
     23       2.00000          -2.671549          -72.69655
     24       2.00000          -2.671548          -72.69653
     25       2.00000          -1.161596          -31.60864
     26       2.00000          -1.149894          -31.29020
     27       2.00000          -1.144410          -31.14098
     28       2.00000          -1.135094          -30.88749
     29       2.00000          -1.021600          -27.79915
     30       2.00000          -1.021561          -27.79808
     31       2.00000          -1.016759          -27.66741
     32       2.00000          -1.016736          -27.66680
     33       2.00000          -1.016415          -27.65805
     34       2.00000          -0.545134          -14.83384
     35       2.00000          -0.532812          -14.49856
     36       2.00000          -0.520090          -14.15238
     37       2.00000          -0.512957          -13.95828
     38       2.00000          -0.485583          -13.21339
     39       2.00000          -0.470539          -12.80401
     40       2.00000          -0.466630          -12.69766
     41       2.00000          -0.447260          -12.17056
     42       2.00000          -0.446293          -12.14426
     43       2.00000          -0.443410          -12.06580
     44       2.00000          -0.439294          -11.95379
     45       2.00000          -0.426321          -11.60078
     46       2.00000          -0.399746          -10.87764
     47       2.00000          -0.394356          -10.73098
     48       2.00000          -0.375933          -10.22965
     49       2.00000          -0.367275           -9.99405
     50       2.00000          -0.367238           -9.99305
     51       2.00000          -0.335856           -9.13911
     52       2.00000          -0.335417           -9.12715
     53       2.00000          -0.334386           -9.09910
     54       2.00000          -0.332794           -9.05577
     55       2.00000          -0.325541           -8.85841
     56       2.00000          -0.324698           -8.83549
     57       2.00000          -0.324190           -8.82166
     58       2.00000          -0.323263           -8.79643
     59       2.00000          -0.320986           -8.73449
     60       2.00000          -0.320531           -8.72208
     61       0.00000          -0.146022           -3.97346
     62       0.00000          -0.104127           -2.83344
     63       0.00000          -0.068561           -1.86565
     64       0.00000          -0.039814           -1.08338
     65       0.00000          -0.033302           -0.90619
     66       0.00000          -0.015131           -0.41174
     67       0.00000          -0.013521           -0.36792
     68       0.00000           0.026956            0.73352
     69       0.00000           0.033898            0.92242
     70       0.00000           0.061452            1.67219
     71       0.00000           0.063898            1.73874
     72       0.00000           0.107648            2.92926
     73       0.00000           0.137164            3.73242
     74       0.00000           0.144614            3.93513
     75       0.00000           0.169810            4.62077
     76       0.00000           0.172567            4.69580
     77       0.00000           0.176172            4.79388
     78       0.00000           0.180787            4.91946
     79       0.00000           0.195904            5.33082
     80       0.00000           0.196069            5.33530
     81       0.00000           0.202593            5.51285
     82       0.00000           0.213682            5.81457
     83       0.00000           0.216955            5.90366
     84       0.00000           0.226948            6.17557
     85       0.00000           0.240961            6.55688
     86       0.00000           0.249216            6.78151
     87       0.00000           0.253219            6.89043
     88       0.00000           0.256674            6.98444
     89       0.00000           0.264909            7.20855
     90       0.00000           0.273274            7.43617
     91       0.00000           0.296403            8.06553
     92       0.00000           0.307009            8.35413
     93       0.00000           0.323004            8.78937
     94       0.00000           0.358821            9.76402
     95       0.00000           0.369055           10.04251
     96       0.00000           0.372699           10.14165

  Highest occupied state (VBM) at     -8.72208368 eV
  | Occupation number:      2.00000000

  Lowest unoccupied state (CBM) at    -3.97346295 eV
  | Occupation number:      0.00000000

  Overall HOMO-LUMO gap:      4.74862073 eV.

  Total energy components:
  | Sum of eigenvalues            :        -882.34835124 Ha      -24009.92024860 eV
  | XC energy correction          :        -145.66130082 Ha       -3963.64566335 eV
  | XC potential correction       :         189.67548307 Ha        5161.33250001 eV
  | Free-atom electrostatic energy:        -781.34421827 Ha      -21261.45795012 eV
  | Hartree energy correction     :          -5.47912654 Ha        -149.09461902 eV
  | Entropy correction            :           0.00000000 Ha           0.00000000 eV
  | ---------------------------
  | Total energy                  :       -1625.15751380 Ha      -44222.78598108 eV
  | Total energy, T -> 0          :       -1625.15751380 Ha      -44222.78598108 eV  <-- do not rely on this value for anything but (periodic) metals
  | Electronic free energy        :       -1625.15751380 Ha      -44222.78598108 eV

  Derived energy quantities:
  | Kinetic energy                :        1633.93636293 Ha       44461.67062010 eV
  | Electrostatic energy          :       -3113.43257591 Ha      -84720.81093783 eV
  | Energy correction for multipole
  | error in Hartree potential    :           0.04167460 Ha           1.13402367 eV
  | Sum of eigenvalues per atom                           :       -2000.82668738 eV
  | Total energy (T->0) per atom                          :       -3685.23216509 eV  <-- do not rely on this value for anything but (periodic) metals
  | Electronic free energy per atom                       :       -3685.23216509 eV
  Evaluating new KS density.
  Integration grid: deviation in total charge (<rho> - N_e) =   2.842171E-14

  Self-consistency convergence accuracy:
  | Change of charge density      :  0.5958E+00
  | Change of sum of eigenvalues  :  0.1434E+03 eV
  | Change of total energy        :  0.5638E+01 eV


------------------------------------------------------------
  End self-consistency iteration #     1       :  max(cpu_time)    wall_clock(cpu1)
  | Time for this iteration                     :        0.079 s           0.079 s
  | Charge density update                       :        0.026 s           0.026 s
  | Density mixing                              :        0.001 s           0.000 s
  | Hartree multipole update                    :        0.001 s           0.002 s
  | Hartree multipole summation                 :        0.017 s           0.017 s
  | Integration                                 :        0.028 s           0.028 s
  | Solution of K.-S. eqns.                     :        0.004 s           0.004 s
  | Total energy evaluation                     :        0.000 s           0.000 s

  Partial memory accounting:
  | Current value for overall tracked memory usage:
  |   Minimum:        0.273 MB (on task 23)
  |   Maximum:        0.292 MB (on task  0)
  |   Average:        0.287 MB
  | Peak value for overall tracked memory usage:
  |   Minimum:        1.316 MB (on task 10 after allocating wave)
  |   Maximum:        1.386 MB (on task  2 after allocating wave)
  |   Average:        1.349 MB
  | Largest tracked array allocation so far:
  |   Minimum:        0.711 MB (gradient_basis_wave on task 10)
  |   Maximum:        0.756 MB (gradient_basis_wave on task  2)
  |   Average:        0.735 MB
  Note:  These values currently only include a subset of arrays which are explicitly tracked.
  The "true" memory usage will be greater.
------------------------------------------------------------

------------------------------------------------------------
          Begin self-consistency iteration #    2

  Date     :  20220517, Time     :  105459.653
------------------------------------------------------------
  Pulay mixing of updated and previous charge densities.
  Renormalizing the density to the exact electron count on the 3D integration grid.
  | Formal number of electrons (from input files) :     120.0000000000
  | Integrated number of electrons on 3D grid     :     120.0000000000
  | Charge integration error                      :       0.0000000000
  | Normalization factor for density and gradient :       1.0000000000

  Evaluating partitioned Hartree potential by multipole expansion.
  | Original multipole sum: apparent total charge =   0.155040E-12
  | Sum of charges compensated after spline to logarithmic grids =   0.624827E-04
  | Analytical far-field extrapolation by fixed multipoles:
  | Hartree multipole sum: apparent total charge =   0.155236E-12
  Summing up the Hartree potential.
  Time summed over all CPUs for potential: real work        0.379 s, elapsed        0.398 s
  | RMS charge density error from multipole expansion :   0.125708E-01

  Integrating Hamiltonian matrix: batch-based integration.
  Time summed over all CPUs for integration: real work        0.635 s, elapsed        0.673 s

  Updating Kohn-Sham eigenvalues and eigenvectors using ELSI and the ELPA eigensolver.
  Starting ELPA eigensolver
  Finished transformation to standard eigenproblem
  | Time :     0.001 s
  Finished solving standard eigenproblem
  | Time :     0.003 s
  Finished back-transformation of eigenvectors
  | Time :     0.000 s

  Obtaining occupation numbers and chemical potential using ELSI.
  | Chemical potential (Fermi level):    -7.78683254 eV
  Highest occupied state (VBM) at     -9.90460262 eV
  | Occupation number:      2.00000000

  Lowest unoccupied state (CBM) at    -4.17856842 eV
  | Occupation number:      0.00000000

  Overall HOMO-LUMO gap:      5.72603421 eV.

  Checking to see if s.c.f. parameters should be adjusted.

  Total energy components:
  | Sum of eigenvalues            :        -885.45734684 Ha      -24094.52032325 eV
  | XC energy correction          :        -145.17151928 Ha       -3950.31802950 eV
  | XC potential correction       :         189.03106942 Ha        5143.79711232 eV
  | Free-atom electrostatic energy:        -781.34421827 Ha      -21261.45795012 eV
  | Hartree energy correction     :          -2.15250380 Ha         -58.57260848 eV
  | Entropy correction            :           0.00000000 Ha           0.00000000 eV
  | ---------------------------
  | Total energy                  :       -1625.09451877 Ha      -44221.07179903 eV
  | Total energy, T -> 0          :       -1625.09451877 Ha      -44221.07179903 eV  <-- do not rely on this value for anything but (periodic) metals
  | Electronic free energy        :       -1625.09451877 Ha      -44221.07179903 eV

  Derived energy quantities:
  | Kinetic energy                :        1630.07860493 Ha       44356.69568400 eV
  | Electrostatic energy          :       -3110.00160442 Ha      -84627.44945353 eV
  | Energy correction for multipole
  | error in Hartree potential    :           0.04585707 Ha           1.24783437 eV
  | Sum of eigenvalues per atom                           :       -2007.87669360 eV
  | Total energy (T->0) per atom                          :       -3685.08931659 eV  <-- do not rely on this value for anything but (periodic) metals
  | Electronic free energy per atom                       :       -3685.08931659 eV
  Evaluating new KS density.
  Integration grid: deviation in total charge (<rho> - N_e) =  -1.421085E-14

  Self-consistency convergence accuracy:
  | Change of charge density      :  0.4714E+00
  | Change of sum of eigenvalues  : -0.8460E+02 eV
  | Change of total energy        :  0.1714E+01 eV


------------------------------------------------------------
  End self-consistency iteration #     2       :  max(cpu_time)    wall_clock(cpu1)
  | Time for this iteration                     :        0.082 s           0.079 s
  | Charge density update                       :        0.026 s           0.026 s
  | Density mixing                              :        0.004 s           0.002 s
  | Hartree multipole update                    :        0.001 s           0.001 s
  | Hartree multipole summation                 :        0.017 s           0.017 s
  | Integration                                 :        0.028 s           0.028 s
  | Solution of K.-S. eqns.                     :        0.004 s           0.004 s
  | Total energy evaluation                     :        0.000 s           0.000 s

  Partial memory accounting:
  | Current value for overall tracked memory usage:
  |   Minimum:        0.274 MB (on task 23)
  |   Maximum:        0.293 MB (on task  0)
  |   Average:        0.288 MB
  | Peak value for overall tracked memory usage:
  |   Minimum:        1.316 MB (on task 10 after allocating wave)
  |   Maximum:        1.386 MB (on task  2 after allocating wave)
  |   Average:        1.349 MB
  | Largest tracked array allocation so far:
  |   Minimum:        0.711 MB (gradient_basis_wave on task 10)
  |   Maximum:        0.756 MB (gradient_basis_wave on task  2)
  |   Average:        0.735 MB
  Note:  These values currently only include a subset of arrays which are explicitly tracked.
  The "true" memory usage will be greater.
------------------------------------------------------------

------------------------------------------------------------
          Begin self-consistency iteration #    3

  Date     :  20220517, Time     :  105459.738
------------------------------------------------------------
  Pulay mixing of updated and previous charge densities.
  Renormalizing the density to the exact electron count on the 3D integration grid.
  | Formal number of electrons (from input files) :     120.0000000000
  | Integrated number of electrons on 3D grid     :     120.0000000000
  | Charge integration error                      :       0.0000000000
  | Normalization factor for density and gradient :       1.0000000000

  Evaluating partitioned Hartree potential by multipole expansion.
  | Original multipole sum: apparent total charge =   0.122202E-12
  | Sum of charges compensated after spline to logarithmic grids =   0.807185E-04
  | Analytical far-field extrapolation by fixed multipoles:
  | Hartree multipole sum: apparent total charge =   0.122939E-12
  Summing up the Hartree potential.
  Time summed over all CPUs for potential: real work        0.379 s, elapsed        0.398 s
  | RMS charge density error from multipole expansion :   0.174221E-01

  Integrating Hamiltonian matrix: batch-based integration.
  Time summed over all CPUs for integration: real work        0.636 s, elapsed        0.673 s

  Updating Kohn-Sham eigenvalues and eigenvectors using ELSI and the ELPA eigensolver.
  Starting ELPA eigensolver
  Finished transformation to standard eigenproblem
  | Time :     0.000 s
  Finished solving standard eigenproblem
  | Time :     0.004 s
  Finished back-transformation of eigenvectors
  | Time :     0.000 s

  Obtaining occupation numbers and chemical potential using ELSI.
  | Chemical potential (Fermi level):    -7.97186462 eV
  Highest occupied state (VBM) at     -9.62167088 eV
  | Occupation number:      2.00000000

  Lowest unoccupied state (CBM) at    -4.38750300 eV
  | Occupation number:      0.00000000

  Overall HOMO-LUMO gap:      5.23416788 eV.

  Total energy components:
  | Sum of eigenvalues            :        -886.44444808 Ha      -24121.38071448 eV
  | XC energy correction          :        -145.13699856 Ha       -3949.37867293 eV
  | XC potential correction       :         188.98436456 Ha        5142.52620845 eV
  | Free-atom electrostatic energy:        -781.34421827 Ha      -21261.45795012 eV
  | Hartree energy correction     :          -1.15264256 Ha         -31.36499996 eV
  | Entropy correction            :           0.00000000 Ha           0.00000000 eV
  | ---------------------------
  | Total energy                  :       -1625.09394291 Ha      -44221.05612903 eV
  | Total energy, T -> 0          :       -1625.09394291 Ha      -44221.05612903 eV  <-- do not rely on this value for anything but (periodic) metals
  | Electronic free energy        :       -1625.09394291 Ha      -44221.05612903 eV

  Derived energy quantities:
  | Kinetic energy                :        1628.33738332 Ha       44309.31463333 eV
  | Electrostatic energy          :       -3108.29432767 Ha      -84580.99208944 eV
  | Energy correction for multipole
  | error in Hartree potential    :           0.06200349 Ha           1.68720082 eV
  | Sum of eigenvalues per atom                           :       -2010.11505954 eV
  | Total energy (T->0) per atom                          :       -3685.08801075 eV  <-- do not rely on this value for anything but (periodic) metals
  | Electronic free energy per atom                       :       -3685.08801075 eV
  Evaluating new KS density.
  Integration grid: deviation in total charge (<rho> - N_e) =   1.421085E-14

  Self-consistency convergence accuracy:
  | Change of charge density      :  0.1230E+00
  | Change of sum of eigenvalues  : -0.2686E+02 eV
  | Change of total energy        :  0.1567E-01 eV


------------------------------------------------------------
  End self-consistency iteration #     3       :  max(cpu_time)    wall_clock(cpu1)
  | Time for this iteration                     :        0.081 s           0.079 s
  | Charge density update                       :        0.026 s           0.027 s
  | Density mixing                              :        0.004 s           0.001 s
  | Hartree multipole update                    :        0.001 s           0.002 s
  | Hartree multipole summation                 :        0.017 s           0.016 s
  | Integration                                 :        0.028 s           0.028 s
  | Solution of K.-S. eqns.                     :        0.004 s           0.004 s
  | Total energy evaluation                     :        0.000 s           0.000 s

  Partial memory accounting:
  | Current value for overall tracked memory usage:
  |   Minimum:        0.274 MB (on task 23)
  |   Maximum:        0.293 MB (on task  0)
  |   Average:        0.288 MB
  | Peak value for overall tracked memory usage:
  |   Minimum:        1.316 MB (on task 10 after allocating wave)
  |   Maximum:        1.386 MB (on task  2 after allocating wave)
  |   Average:        1.349 MB
  | Largest tracked array allocation so far:
  |   Minimum:        0.711 MB (gradient_basis_wave on task 10)
  |   Maximum:        0.756 MB (gradient_basis_wave on task  2)
  |   Average:        0.735 MB
  Note:  These values currently only include a subset of arrays which are explicitly tracked.
  The "true" memory usage will be greater.
------------------------------------------------------------

------------------------------------------------------------
          Begin self-consistency iteration #    4

  Date     :  20220517, Time     :  105459.823
------------------------------------------------------------
  Pulay mixing of updated and previous charge densities.
  Renormalizing the density to the exact electron count on the 3D integration grid.
  | Formal number of electrons (from input files) :     120.0000000000
  | Integrated number of electrons on 3D grid     :     120.0000000000
  | Charge integration error                      :      -0.0000000000
  | Normalization factor for density and gradient :       1.0000000000

  Evaluating partitioned Hartree potential by multipole expansion.
  | Original multipole sum: apparent total charge =   0.385201E-13
  | Sum of charges compensated after spline to logarithmic grids =   0.870166E-04
  | Analytical far-field extrapolation by fixed multipoles:
  | Hartree multipole sum: apparent total charge =   0.381265E-13
  Summing up the Hartree potential.
  Time summed over all CPUs for potential: real work        0.379 s, elapsed        0.398 s
  | RMS charge density error from multipole expansion :   0.193075E-01

  Integrating Hamiltonian matrix: batch-based integration.
  Time summed over all CPUs for integration: real work        0.635 s, elapsed        0.676 s

  Updating Kohn-Sham eigenvalues and eigenvectors using ELSI and the ELPA eigensolver.
  Starting ELPA eigensolver
  Finished transformation to standard eigenproblem
  | Time :     0.001 s
  Finished solving standard eigenproblem
  | Time :     0.003 s
  Finished back-transformation of eigenvectors
  | Time :     0.000 s

  Obtaining occupation numbers and chemical potential using ELSI.
  | Chemical potential (Fermi level):    -7.92939511 eV
  Highest occupied state (VBM) at     -9.74556331 eV
  | Occupation number:      2.00000000

  Lowest unoccupied state (CBM) at    -4.33574989 eV
  | Occupation number:      0.00000000

  Overall HOMO-LUMO gap:      5.40981342 eV.

  Total energy components:
  | Sum of eigenvalues            :        -886.55622173 Ha      -24124.42223035 eV
  | XC energy correction          :        -145.12263675 Ha       -3948.98786828 eV
  | XC potential correction       :         188.96485754 Ha        5141.99539551 eV
  | Free-atom electrostatic energy:        -781.34421827 Ha      -21261.45795012 eV
  | Hartree energy correction     :          -1.03375828 Ha         -28.12999399 eV
  | Entropy correction            :           0.00000000 Ha           0.00000000 eV
  | ---------------------------
  | Total energy                  :       -1625.09197749 Ha      -44221.00264723 eV
  | Total energy, T -> 0          :       -1625.09197749 Ha      -44221.00264723 eV  <-- do not rely on this value for anything but (periodic) metals
  | Electronic free energy        :       -1625.09197749 Ha      -44221.00264723 eV

  Derived energy quantities:
  | Kinetic energy                :        1627.73340990 Ha       44292.87968036 eV
  | Electrostatic energy          :       -3107.70275064 Ha      -84564.89445931 eV
  | Energy correction for multipole
  | error in Hartree potential    :           0.06779706 Ha           1.84485186 eV
  | Sum of eigenvalues per atom                           :       -2010.36851920 eV
  | Total energy (T->0) per atom                          :       -3685.08355394 eV  <-- do not rely on this value for anything but (periodic) metals
  | Electronic free energy per atom                       :       -3685.08355394 eV
  Evaluating new KS density.
  Integration grid: deviation in total charge (<rho> - N_e) =   4.263256E-14

  Self-consistency convergence accuracy:
  | Change of charge density      :  0.7881E-01
  | Change of sum of eigenvalues  : -0.3042E+01 eV
  | Change of total energy        :  0.5348E-01 eV


------------------------------------------------------------
  End self-consistency iteration #     4       :  max(cpu_time)    wall_clock(cpu1)
  | Time for this iteration                     :        0.082 s           0.079 s
  | Charge density update                       :        0.026 s           0.026 s
  | Density mixing                              :        0.004 s           0.002 s
  | Hartree multipole update                    :        0.001 s           0.001 s
  | Hartree multipole summation                 :        0.017 s           0.017 s
  | Integration                                 :        0.029 s           0.028 s
  | Solution of K.-S. eqns.                     :        0.004 s           0.004 s
  | Total energy evaluation                     :        0.000 s           0.001 s

  Partial memory accounting:
  | Current value for overall tracked memory usage:
  |   Minimum:        0.274 MB (on task 23)
  |   Maximum:        0.293 MB (on task  0)
  |   Average:        0.288 MB
  | Peak value for overall tracked memory usage:
  |   Minimum:        1.316 MB (on task 10 after allocating wave)
  |   Maximum:        1.386 MB (on task  2 after allocating wave)
  |   Average:        1.349 MB
  | Largest tracked array allocation so far:
  |   Minimum:        0.711 MB (gradient_basis_wave on task 10)
  |   Maximum:        0.756 MB (gradient_basis_wave on task  2)
  |   Average:        0.735 MB
  Note:  These values currently only include a subset of arrays which are explicitly tracked.
  The "true" memory usage will be greater.
------------------------------------------------------------

------------------------------------------------------------
          Begin self-consistency iteration #    5

  Date     :  20220517, Time     :  105459.908
------------------------------------------------------------
  Pulay mixing of updated and previous charge densities.
  Renormalizing the density to the exact electron count on the 3D integration grid.
  | Formal number of electrons (from input files) :     120.0000000000
  | Integrated number of electrons on 3D grid     :     120.0000000000
  | Charge integration error                      :       0.0000000000
  | Normalization factor for density and gradient :       1.0000000000

  Evaluating partitioned Hartree potential by multipole expansion.
  | Original multipole sum: apparent total charge =   0.295665E-13
  | Sum of charges compensated after spline to logarithmic grids =   0.875276E-04
  | Analytical far-field extrapolation by fixed multipoles:
  | Hartree multipole sum: apparent total charge =   0.285334E-13
  Summing up the Hartree potential.
  Time summed over all CPUs for potential: real work        0.379 s, elapsed        0.398 s
  | RMS charge density error from multipole expansion :   0.190903E-01

  Integrating Hamiltonian matrix: batch-based integration.
  Time summed over all CPUs for integration: real work        0.635 s, elapsed        0.677 s

  Updating Kohn-Sham eigenvalues and eigenvectors using ELSI and the ELPA eigensolver.
  Starting ELPA eigensolver
  Finished transformation to standard eigenproblem
  | Time :     0.000 s
  Finished solving standard eigenproblem
  | Time :     0.003 s
  Finished back-transformation of eigenvectors
  | Time :     0.000 s

  Obtaining occupation numbers and chemical potential using ELSI.
  | Chemical potential (Fermi level):    -7.88114415 eV
  Highest occupied state (VBM) at     -9.79095796 eV
  | Occupation number:      2.00000000

  Lowest unoccupied state (CBM) at    -4.28030383 eV
  | Occupation number:      0.00000000

  Overall HOMO-LUMO gap:      5.51065412 eV.

  Total energy components:
  | Sum of eigenvalues            :        -886.36960536 Ha      -24119.34414054 eV
  | XC energy correction          :        -145.11820432 Ha       -3948.86725577 eV
  | XC potential correction       :         188.95921999 Ha        5141.84198994 eV
  | Free-atom electrostatic energy:        -781.34421827 Ha      -21261.45795012 eV
  | Hartree energy correction     :          -1.21904192 Ha         -33.17181849 eV
  | Entropy correction            :           0.00000000 Ha           0.00000000 eV
[...]
   Total forces(   7)            :  0.136826E+01 -0.156393E+01 -0.940840E+00
  atom #    8
   Hellmann-Feynman              :  0.240646E+01  0.226199E+01 -0.435804E+00
   Ionic forces                  :  0.000000E+00  0.000000E+00  0.000000E+00
   Multipole                     :  0.397619E+00  0.373703E+00 -0.717318E-01
   Hartree pot. SCF incomplete   : -0.301803E-06 -0.286015E-06  0.493883E-07
   Pulay + GGA                   : -0.519283E+01 -0.487836E+01  0.939868E+00
   ----------------------------------------------------------------
   Total forces(   8)            : -0.238876E+01 -0.224267E+01  0.432331E+00
  atom #    9
   Hellmann-Feynman              :  0.628191E+00 -0.990972E+00  0.772397E-01
   Ionic forces                  :  0.000000E+00  0.000000E+00  0.000000E+00
   Multipole                     :  0.391820E+00 -0.271476E+00 -0.241218E+00
   Hartree pot. SCF incomplete   :  0.122725E-06 -0.257602E-06 -0.184716E-05
   Pulay + GGA                   : -0.256682E+01  0.281393E+01  0.725060E+00
   ----------------------------------------------------------------
   Total forces(   9)            : -0.154681E+01  0.155149E+01  0.561080E+00
  atom #   10
   Hellmann-Feynman              : -0.958452E+00  0.680745E+00 -0.167108E-01
   Ionic forces                  :  0.000000E+00  0.000000E+00  0.000000E+00
   Multipole                     : -0.203090E+00  0.447961E+00  0.206640E+00
   Hartree pot. SCF incomplete   :  0.989418E-07  0.463775E-06  0.180986E-05
   Pulay + GGA                   :  0.251042E+01 -0.286585E+01 -0.716968E+00
   ----------------------------------------------------------------
   Total forces(  10)            :  0.134887E+01 -0.173715E+01 -0.527037E+00
  atom #   11
   Hellmann-Feynman              :  0.229792E+01  0.889720E+00  0.190910E+01
   Ionic forces                  :  0.000000E+00  0.000000E+00  0.000000E+00
   Multipole                     :  0.589933E+00  0.256812E+00  0.418353E+00
   Hartree pot. SCF incomplete   :  0.447538E-06  0.554311E-06 -0.372308E-06
   Pulay + GGA                   : -0.523743E+01 -0.198243E+01 -0.443347E+01
   ----------------------------------------------------------------
   Total forces(  11)            : -0.234958E+01 -0.835899E+00 -0.210602E+01
  atom #   12
   Hellmann-Feynman              : -0.231766E+01 -0.204403E+01  0.497243E+00
   Ionic forces                  :  0.000000E+00  0.000000E+00  0.000000E+00
   Multipole                     : -0.545763E+00 -0.464868E+00  0.726827E-01
   Hartree pot. SCF incomplete   : -0.348445E-06 -0.219948E-06  0.220765E-08
   Pulay + GGA                   :  0.514098E+01  0.464707E+01 -0.133843E+01
   ----------------------------------------------------------------
   Total forces(  12)            :  0.227756E+01  0.213817E+01 -0.768506E+00


  Self-consistency convergence accuracy:
  | Change of charge density      :  0.9960E-07
  | Change of sum of eigenvalues  : -0.2483E-05 eV
  | Change of total energy        : -0.1572E-08 eV
  | Change of forces              :  0.2515E-06 eV/A

  Writing Kohn-Sham eigenvalues.

  State    Occupation    Eigenvalue [Ha]    Eigenvalue [eV]
      1       2.00000         -55.642101        -1514.09859
      2       2.00000         -55.620782        -1513.51849
      3       2.00000         -55.620782        -1513.51848
      4       2.00000         -24.306127         -661.40336
      5       2.00000         -24.306120         -661.40319
      6       2.00000         -24.304162         -661.34990
      7       2.00000         -24.304161         -661.34987
      8       2.00000         -24.212758         -658.86268
      9       2.00000         -24.212754         -658.86256
     10       2.00000         -24.211385         -658.82532
     11       2.00000         -24.211384         -658.82527
     12       2.00000         -24.208091         -658.73568
     13       2.00000          -4.094468         -111.41616
     14       2.00000          -4.074108         -110.86213
     15       2.00000          -4.074108         -110.86212
     16       2.00000          -2.687472          -73.12985
     17       2.00000          -2.685663          -73.08062
     18       2.00000          -2.684901          -73.05988
     19       2.00000          -2.667855          -72.59603
     20       2.00000          -2.667854          -72.59601
     21       2.00000          -2.666373          -72.55570
     22       2.00000          -2.666370          -72.55563
     23       2.00000          -2.662707          -72.45594
     24       2.00000          -2.662706          -72.45592
     25       2.00000          -1.184707          -32.23752
     26       2.00000          -1.173545          -31.93377
     27       2.00000          -1.168610          -31.79950
     28       2.00000          -1.159688          -31.55671
     29       2.00000          -1.061589          -28.88731
     30       2.00000          -1.061554          -28.88636
     31       2.00000          -1.057759          -28.78309
     32       2.00000          -1.057743          -28.78264
     33       2.00000          -1.055518          -28.72211
     34       2.00000          -0.565236          -15.38086
     35       2.00000          -0.552895          -15.04503
     36       2.00000          -0.540952          -14.72005
     37       2.00000          -0.535427          -14.56972
     38       2.00000          -0.508397          -13.83418
     39       2.00000          -0.492326          -13.39686
     40       2.00000          -0.489195          -13.31168
     41       2.00000          -0.472900          -12.86826
     42       2.00000          -0.468782          -12.75622
     43       2.00000          -0.465876          -12.67714
     44       2.00000          -0.465725          -12.67303
     45       2.00000          -0.449905          -12.24255
     46       2.00000          -0.433083          -11.78479
     47       2.00000          -0.428502          -11.66013
     48       2.00000          -0.412429          -11.22276
     49       2.00000          -0.406577          -11.06353
     50       2.00000          -0.406211          -11.05355
     51       2.00000          -0.371435          -10.10725
     52       2.00000          -0.371101          -10.09818
     53       2.00000          -0.370011          -10.06851
     54       2.00000          -0.368919          -10.03880
     55       2.00000          -0.362947           -9.87630
     56       2.00000          -0.362661           -9.86851
     57       2.00000          -0.361522           -9.83751
     58       2.00000          -0.359621           -9.78579
     59       2.00000          -0.359491           -9.78225
     60       2.00000          -0.359150           -9.77297
     61       0.00000          -0.157378           -4.28248
     62       0.00000          -0.115829           -3.15188
     63       0.00000          -0.078303           -2.13073
     64       0.00000          -0.045573           -1.24009
     65       0.00000          -0.036837           -1.00240
     66       0.00000          -0.019101           -0.51978
     67       0.00000          -0.018247           -0.49652
     68       0.00000           0.021385            0.58193
     69       0.00000           0.028923            0.78705
     70       0.00000           0.057305            1.55936
     71       0.00000           0.057909            1.57578
     72       0.00000           0.102879            2.79947
     73       0.00000           0.130157            3.54175
     74       0.00000           0.142958            3.89010
     75       0.00000           0.164092            4.46518
     76       0.00000           0.167309            4.55271
     77       0.00000           0.167518            4.55840
     78       0.00000           0.176316            4.79781
     79       0.00000           0.188149            5.11980
     80       0.00000           0.189892            5.16723
     81       0.00000           0.197277            5.36819
     82       0.00000           0.208750            5.68037
     83       0.00000           0.212254            5.77574
     84       0.00000           0.219448            5.97149
     85       0.00000           0.235360            6.40447
     86       0.00000           0.245724            6.68648
     87       0.00000           0.249803            6.79749
     88       0.00000           0.250458            6.81531
     89       0.00000           0.259051            7.04915
     90       0.00000           0.270403            7.35805
     91       0.00000           0.290126            7.89472
     92       0.00000           0.302504            8.23156
     93       0.00000           0.319389            8.69103
     94       0.00000           0.350250            9.53078
     95       0.00000           0.361520            9.83745
     96       0.00000           0.366618            9.97617

  Highest occupied state (VBM) at     -9.77297151 eV
  | Occupation number:      2.00000000

  Lowest unoccupied state (CBM) at    -4.28248068 eV
  | Occupation number:      0.00000000

  Overall HOMO-LUMO gap:      5.49049083 eV.
  | Chemical Potential                          :    -7.88407700 eV

  Self-consistency cycle converged.


------------------------------------------------------------
  End self-consistency iteration #    14       :  max(cpu_time)    wall_clock(cpu1)
  | Time for this iteration                     :        0.261 s           0.259 s
  | Charge density & force component update     :        0.139 s           0.139 s
  | Density mixing                              :        0.005 s           0.003 s
  | Hartree multipole update                    :        0.001 s           0.001 s
  | Hartree multipole summation                 :        0.050 s           0.050 s
  | Hartree pot. SCF incomplete forces          :        0.032 s           0.032 s
  | Integration                                 :        0.028 s           0.029 s
  | Solution of K.-S. eqns.                     :        0.004 s           0.004 s
  | Total energy evaluation                     :        0.000 s           0.000 s

  Partial memory accounting:
  | Current value for overall tracked memory usage:
  |   Minimum:        0.274 MB (on task 23)
  |   Maximum:        0.293 MB (on task  0)
  |   Average:        0.289 MB
  | Peak value for overall tracked memory usage:
  |   Minimum:        2.935 MB (on task 10 after allocating hessian_basis_wave)
  |   Maximum:        3.086 MB (on task  2 after allocating hessian_basis_wave)
  |   Average:        3.011 MB
  | Largest tracked array allocation so far:
  |   Minimum:        1.421 MB (hessian_basis_wave on task 10)
  |   Maximum:        1.512 MB (hessian_basis_wave on task  2)
  |   Average:        1.470 MB
  Note:  These values currently only include a subset of arrays which are explicitly tracked.
  The "true" memory usage will be greater.
------------------------------------------------------------
  Removing unitary transformations (pure translations, rotations) from forces on atoms.
  Atomic forces before filtering:
  | Net force on center of mass :  -0.915857E-03  0.113958E-02 -0.152491E-02 eV/A
  | Net torque on center of mass:  -0.540048E-02 -0.217348E-02  0.196609E-02 eV
  Atomic forces after filtering:
  | Net force on center of mass :   0.356812E-15 -0.356812E-15  0.892031E-15 eV/A
  | Net torque on center of mass:  -0.226580E-14  0.188817E-14  0.000000E+00 eV

  Energy and forces in a compact form:
  | Total energy uncorrected      :         -0.442209990028015E+05 eV
  | Total energy corrected        :         -0.442209990028015E+05 eV  <-- do not rely on this value for anything but (periodic) metals
  | Electronic free energy        :         -0.442209990028015E+05 eV
  Total atomic forces (unitary forces cleaned) [eV/Ang]:
  |    1          0.782352692930308E-01         -0.103279022429610E+01          0.233652722018808E+01
  |    2          0.213885302370781E+01          0.201136760764198E+01         -0.387562390963101E+00
  |    3         -0.144948746753114E+01         -0.257909993470107E+00         -0.208712217762596E+01
  |    4          0.234296804733863E+01          0.220298335382434E+01         -0.673914519707980E-01
  |    5         -0.129589353459990E+01          0.163244583697407E+01          0.928119417858055E+00
  |    6         -0.524909281614302E+00         -0.186510830911625E+01          0.262565095587327E+01
  |    7          0.136835438524759E+01         -0.156392780343928E+01         -0.940592397258487E+00
  |    8         -0.238862901064876E+01         -0.224280946757433E+01          0.432510982454375E+00
  |    9         -0.154681646462763E+01          0.155148366213296E+01          0.561144780818823E+00
  |   10          0.134903986183578E+01         -0.173733974084966E+01         -0.526840211740829E+00
  |   11         -0.234938316900411E+01         -0.836307636030640E+00         -0.210596861708029E+01
  |   12          0.227766834060297E+01          0.213791271420303E+01         -0.768476110553136E+00

  ------------------------------------ 
  Start decomposition of the XC Energy 
  ------------------------------------ 
  X and C from original XC functional choice 
  Hartree-Fock Energy :          0.000000000 Ha              0.000000000 eV
  X Energy            :       -140.181183849 Ha          -3814.524093368 eV
  C Energy            :         -4.941197772 Ha           -134.456832476 eV
  Total XC Energy     :       -145.122381621 Ha          -3948.980925844 eV
  ------------------------------------ 
  LDA X and C from self-consistent density 
  X Energy LDA        :       -132.753705372 Ha          -3612.412120686 eV
  C Energy LDA        :         -8.823323321 Ha           -240.094843460 eV
  ------------------------------------ 
  End decomposition of the XC Energy 
  ------------------------------------ 

------------------------------------------------------------

------------------------------------------------------------------------------
  Final output of selected total energy values:

  The following output summarizes some interesting total energy values
  at the end of a run (AFTER all relaxation, molecular dynamics, etc.).

  | Total energy of the DFT / Hartree-Fock s.c.f. calculation      :         -44220.999002801 eV
  | Final zero-broadening corrected energy (caution - metals only) :         -44220.999002801 eV
  | For reference only, the value of 1 Hartree used in FHI-aims is :             27.211384500 eV

  Before relying on these values, please be sure to understand exactly which
  total energy value is referred to by a given number. Different objects may
  all carry the same name 'total energy'. Definitions:

  Total energy of the DFT / Hartree-Fock s.c.f. calculation:
  | Note that this energy does not include ANY quantities calculated after the
  | s.c.f. cycle, in particular not ANY RPA, MP2, etc. many-body perturbation terms.

  Final zero-broadening corrected energy:
  | For metallic systems only, a broadening of the occupation numbers at the Fermi
  | level can be extrapolated back to zero broadening by an electron-gas inspired
  | formula. For all systems that are not real metals, this value can be
  | meaningless and should be avoided.

------------------------------------------------------------------------------
  Methods described in the following list of references were used in this FHI-aims run.
  If you publish the results, please make sure to cite these reference if they apply.
  FHI-aims is an academic code, and for our developers (often, Ph.D. students
  and postdocs), scientific credit in the community is essential.
  Thank you for helping us!

  For any use of FHI-aims, please cite:

    Volker Blum, Ralf Gehrke, Felix Hanke, Paula Havu, Ville Havu,
    Xinguo Ren, Karsten Reuter, and Matthias Scheffler
    'Ab initio molecular simulations with numeric atom-centered orbitals'
    Computer Physics Communications 180, 2175-2196 (2009)
    http://dx.doi.org/10.1016/j.cpc.2009.06.022


  The ELSI infrastructure was used in your run to solve the Kohn-Sham electronic structure.
  Please check out http://elsi-interchange.org to learn more.
  If scalability is important for your project, please acknowledge ELSI by citing:

    V. W-z. Yu, F. Corsetti, A. Garcia, W. P. Huhn, M. Jacquelin, W. Jia,
    B. Lange, L. Lin, J. Lu, W. Mi, A. Seifitokaldani, A. Vazquez-Mayagoitia,
    C. Yang, H. Yang, and V. Blum
    'ELSI: A unified software interface for Kohn-Sham electronic structure solvers'
    Computer Physics Communications 222, 267-285 (2018).
    http://dx.doi.org/10.1016/j.cpc.2017.09.007


  For the real-space grid partitioning and parallelization used in this calculation, please cite:

    Ville Havu, Volker Blum, Paula Havu, and Matthias Scheffler,
    'Efficient O(N) integration for all-electron electronic structure calculation'
    'using numerically tabulated basis functions'
    Journal of Computational Physics 228, 8367-8379 (2009).
    http://dx.doi.org/10.1016/j.jcp.2009.08.008

  Of course, there are many other important community references, e.g., those cited in the
  above references. Our list is limited to references that describe implementations in the
  FHI-aims code. The reason is purely practical (length of this list) - please credit others as well.

------------------------------------------------------------
          Leaving FHI-aims.
          Date     :  20220517, Time     :  105501.136

          Computational steps:
          | Number of self-consistency cycles          :           14
          | Number of SCF (re)initializations          :            1

          Detailed time accounting                     :  max(cpu_time)    wall_clock(cpu1)
          | Total time                                  :        1.871 s           1.934 s
          | Preparation time                            :        0.184 s           0.184 s
          | Boundary condition initalization            :        0.000 s           0.000 s
          | Grid partitioning                           :        0.033 s           0.032 s
          | Preloading free-atom quantities on grid     :        0.014 s           0.015 s
          | Free-atom superposition energy              :        0.005 s           0.005 s
          | Total time for integrations                 :        0.442 s           0.444 s
          | Total time for solution of K.-S. equations  :        0.068 s           0.068 s
          | Total time for density & force components   :        0.621 s           0.620 s
          | Total time for mixing                       :        0.061 s           0.035 s
          | Total time for Hartree multipole update     :        0.018 s           0.016 s
          | Total time for Hartree multipole sum        :        0.303 s           0.304 s
          | Total time for total energy evaluation      :        0.002 s           0.001 s
          | Total time NSC force correction             :        0.064 s           0.064 s
          | Total time for scaled ZORA corrections      :        0.000 s           0.000 s

          Partial memory accounting:
          | Residual value for overall tracked memory usage across tasks:     0.000000 MB (should be 0.000000 MB)
          | Peak values for overall tracked memory usage:
          |   Minimum:        2.935 MB (on task 10 after allocating hessian_basis_wave)
          |   Maximum:        3.086 MB (on task  2 after allocating hessian_basis_wave)
          |   Average:        3.011 MB
          | Largest tracked array allocation:
          |   Minimum:        1.421 MB (hessian_basis_wave on task 10)
          |   Maximum:        1.512 MB (hessian_basis_wave on task  2)
          |   Average:        1.470 MB
          Note:  These values currently only include a subset of arrays which are explicitly tracked.
          The "true" memory usage will be greater.

          Have a nice day.
------------------------------------------------------------
