------------------------------------------------------------
          Invoking FHI-aims ...

          When using FHI-aims, please cite the following reference:

            Volker Blum, Ralf Gehrke, Felix Hanke, Paula Havu,
            Ville Havu, Xinguo Ren, Karsten Reuter, and Matthias Scheffler,
            'Ab Initio Molecular Simulations with Numeric Atom-Centered Orbitals',
            Computer Physics Communications 180, 2175-2196 (2009)

          In addition, many other developments in FHI-aims are likely important for
          your particular application. A partial list of references is given at the end of
          this file. Thank you for giving credit to the authors of these developments.

          For any questions about FHI-aims, please visit our slack channel at

            https://fhi-aims.slack.com

          and our main development and support site at

            https://aims-git.rz-berlin.mpg.de .

          The latter site, in particular, has a wiki to collect information, as well
          as an issue tracker to log discussions, suggest improvements, and report issues
          or bugs. https://aims-git.rz-berlin.mpg.de is also the main development site
          of the project and all new and updated code versions can be obtained there.
          Please send an email to aims-coordinators@fhi-berlin.mpg.de and we will add
          you to these sites. They are for you and everyone is welcome there.

------------------------------------------------------------



  Date     :  20220517, Time     :  115700.146
  Time zero on CPU 1             :   0.578810000000000E-01  s.
  Internal wall clock time zero  :           422020620.146  s.

  FHI-aims created a unique identifier for this run for later identification
  aims_uuid : 474DA0AD-6FA3-4FBE-AC0F-9FABD5812333

  Build configuration of the current instance of FHI-aims
  -------------------------------------------------------
  FHI-aims version      : 210914
  Commit number         : GITDIR-NOTFOUND
  CMake host system     : Linux-3.10.0-693.17.1.el7.x86_64
  CMake version         : 3.21.1
  Fortran compiler      : /shared/ucl/apps/intel/2018.Update3/impi/2018.3.222/intel64/bin/mpiifort (Intel) version 18.0.3.20180410
  Fortran compiler flags: -O3 -ip -fp-model precise
  C compiler            : /shared/ucl/apps/intel/2018.Update3/compilers_and_libraries_2018.3.222/linux/bin/intel64/icc (Intel) version 18.0.3.20180410
  C compiler flags      : -O3 -ip -fp-model precise -std=gnu99
  ELPA2 kernel          : AVX2
  Using MPI
  Using ScaLAPACK
  Using LibXC
  Using i-PI
  Using RLSY
  Linking against: /shared/ucl/apps/intel/2019.Update5/compilers_and_libraries_2019.5.281/linux/mkl/lib/intel64/libmkl_intel_lp64.so
                   /shared/ucl/apps/intel/2019.Update5/compilers_and_libraries_2019.5.281/linux/mkl/lib/intel64/libmkl_sequential.so
                   /shared/ucl/apps/intel/2019.Update5/compilers_and_libraries_2019.5.281/linux/mkl/lib/intel64/libmkl_core.so
                   /shared/ucl/apps/intel/2019.Update5/compilers_and_libraries_2019.5.281/linux/mkl/lib/intel64/libmkl_blacs_intelmpi_lp64.so
                   /shared/ucl/apps/intel/2019.Update5/compilers_and_libraries_2019.5.281/linux/mkl/lib/intel64/libmkl_scalapack_lp64.so

  Using       24 parallel tasks.
  Task        0 on host node-k98i-010 reporting.
  Task        1 on host node-k98i-010 reporting.
  Task        2 on host node-k98i-010 reporting.
  Task        3 on host node-k98i-010 reporting.
  Task        4 on host node-k98i-010 reporting.
  Task        5 on host node-k98i-010 reporting.
  Task        6 on host node-k98i-010 reporting.
  Task        7 on host node-k98i-010 reporting.
  Task        8 on host node-k98i-010 reporting.
  Task        9 on host node-k98i-010 reporting.
  Task       10 on host node-k98i-010 reporting.
  Task       11 on host node-k98i-010 reporting.
  Task       12 on host node-k98i-010 reporting.
  Task       13 on host node-k98i-010 reporting.
  Task       14 on host node-k98i-010 reporting.
  Task       15 on host node-k98i-010 reporting.
  Task       16 on host node-k98i-010 reporting.
  Task       17 on host node-k98i-010 reporting.
  Task       18 on host node-k98i-010 reporting.
  Task       19 on host node-k98i-010 reporting.
  Task       20 on host node-k98i-010 reporting.
  Task       21 on host node-k98i-010 reporting.
  Task       22 on host node-k98i-010 reporting.
  Task       23 on host node-k98i-010 reporting.

  Performing system and environment tests:
  | Environment variable OMP_NUM_THREADS correctly set to 1.
  | Checking for ScaLAPACK...
  | Testing pdtran()...
  | All pdtran() tests passed.

  Obtaining array dimensions for all initial allocations:
  
  -----------------------------------------------------------------------
  Parsing control.in (first pass over file, find array dimensions only).
  The contents of control.in will be repeated verbatim below
  unless switched off by setting 'verbatim_writeout .false.' .
  in the first line of control.in .
  -----------------------------------------------------------------------
  
  #########################################################################################  Physical model
  #########################################################################################
  xc                 pbesol
  spin               none
  relativistic       atomic_zora scalar
  charge             0.0
  #  SCF convergence
  occupation_type    gaussian 0.01
  mixer              pulay
  n_max_pulay        10
  charge_mix_param   0.5
  sc_accuracy_rho    1E-5
  sc_accuracy_eev    1E-3
  sc_accuracy_etot   1E-6
  sc_accuracy_forces 1E-4
  sc_iter_limit      1500
  #  Relaxation
  #relax_geometry   bfgs 1.e-3
  
  ################################################################################
  #
  #  FHI-aims code project
  #  VB, Fritz-Haber Institut, 2009
  #
  #  Suggested "light" defaults for Al atom (to be pasted into control.in file)
  #  Be sure to double-check any results obtained with these settings for post-processing,
  #  e.g., with the "tight" defaults and larger basis sets.
  #
  ################################################################################
    species        Al
  #     global species definitions
      nucleus             13
      mass                26.9815386
  #
      l_hartree           4
  #
      cut_pot             3.5          1.5  1.0
      basis_dep_cutoff    1e-4
  #
      radial_base         41 5.0
      radial_multiplier   1
      angular_grids       specified
        division   0.6594  110
        division   0.8170  194
        division   0.9059  302
  #      division   1.0363  434
  #      division   1.1443  590
  #      division   1.2621  770
  #      division   2.8177  974
  #      outer_grid   974
        outer_grid   302
  ################################################################################
  #
  #  Definition of "minimal" basis
  #
  ################################################################################
  #     valence basis states
      valence      3  s   2.
      valence      3  p   1.
  #     ion occupancy
      ion_occ      3  s   1.
      ion_occ      2  p   6.
  ################################################################################
  #
  #  Suggested additional basis functions. For production calculations,
  #  uncomment them one after another (the most important basis functions are
  #  listed first).
  #
  #  Constructed for dimers: 2.0 A, 2.5 A, 3.0 A, 3.75 A, 4.5 A
  #
  ################################################################################
  #  "First tier" - improvements: -199.47 meV to -10.63 meV
       ionic 3 d auto
       ionic 3 p auto
  #     hydro 4 f 4.7
       ionic 3 s auto
  #  "Second tier" - improvements: -5.35 meV to -1.57 meV
  #     hydro 5 g 7
  #     hydro 3 d 6
  #     hydro 2 s 11.6
  #     hydro 2 p 0.9
  #  "Third tier" - improvements: -0.63 meV to -0.20 meV
  #     hydro 5 f 7.6
  #     hydro 4 p 7.2
  #     hydro 4 s 3.7
  #     hydro 4 d 7.6
  #  "Fourth tier" - improvements: -0.17 meV to -0.08 meV
  #     hydro 4 d 13.6
  #     hydro 5 g 11.2
  #     hydro 4 d 0.9
  #     hydro 1 s 0.4
  #     hydro 4 p 0.1
  #     hydro 5 f 9.8
  #  Further basis functions that fell out of the optimization - noise level...
  #     hydro 4 p 5
  
  ################################################################################
  #
  #  FHI-aims code project
  #  VB, Fritz-Haber Institut, 2009
  #
  #  Suggested "light" defaults for F atom (to be pasted into control.in file)
  #  Be sure to double-check any results obtained with these settings for post-processing,
  #  e.g., with the "tight" defaults and larger basis sets.
  #
  ################################################################################
    species        F
  #     global species definitions
      nucleus             9
      mass                18.9984032
  #
      l_hartree           4
  #
      cut_pot             3.5  1.5  1.0
      basis_dep_cutoff    1e-4
  #
      radial_base         37 5.0
      radial_multiplier   1
      angular_grids specified
        division   0.4014  110
        division   0.5291  194
        division   0.6019  302
  #      division   0.6814  434
  #      division   0.7989  590
  #      division   0.8965  770
  #      division   1.3427  974
  #      outer_grid   974
        outer_grid   302
  ################################################################################
  #
  #  Definition of "minimal" basis
  #
  ################################################################################
  #     valence basis states
      valence      2  s   2.
      valence      2  p   5.
  #     ion occupancy
      ion_occ      2  s   1.
      ion_occ      2  p   4.
  ################################################################################
  #
  #  Suggested additional basis functions. For production calculations,
  #  uncomment them one after another (the most important basis functions are
  #  listed first).
  #
  #  Constructed for dimers: 1.2 A, 1.418 A, 1.75 A, 2.25 A, 3.25 A
  #
  ################################################################################
  #  "First tier" - improvements: -149.44 meV to -45.88 meV
       hydro 2 p 1.7
       hydro 3 d 7.4
       hydro 3 s 6.8
  #  "Second tier" - improvements: -12.96 meV to -1.56 meV
  #     hydro 4 f 11.2
  #     ionic 2 p auto
  #     hydro 1 s 0.75
  #     hydro 4 d 8.8
  #     hydro 5 g 16.8
  #  "Third tier" - improvements: -0.58 meV to -0.05 meV
  #     hydro 3 p 6.2
  #     hydro 3 s 3.2
  #     hydro 4 f 9.6
  #     hydro 3 s 19.6
  #     hydro 4 d 8.6
  #     hydro 5 g 14.4
  # Further basis functions: -0.05 meV and below
  #     hydro 3 p 4.2
  
  -----------------------------------------------------------------------
  Completed first pass over input file control.in .
  -----------------------------------------------------------------------
  
  
  -----------------------------------------------------------------------
  Parsing geometry.in (first pass over file, find array dimensions only).
  The contents of geometry.in will be repeated verbatim below
  unless switched off by setting 'verbatim_writeout .false.' .
  in the first line of geometry.in .
  -----------------------------------------------------------------------
  
  atom -0.364025238 1.033292360 -1.819473136 Al
  atom -0.447876981 1.074315691 1.281664601 Al
  atom -3.019922103 0.458553278 -1.858813209 Al
  atom -3.531707055 0.314743336 -3.599727761 F
  atom -1.377200158 -0.562137304 -1.842283738 F
  atom -1.945233093 2.066201389 -1.892412761 F
  atom -2.034258177 0.715717855 0.455725309 F
  atom 0.596416416 1.269941297 -0.294771175 F
  atom -0.301816981 2.739125604 1.990847771 F
  atom 0.366811208 -0.354683271 2.049851758 F
  atom -4.276743767 0.211305726 -0.580801713 F
  atom 0.747012619 1.246431703 -3.233906044 F
  
  -----------------------------------------------------------------------
  Completed first pass over input file geometry.in .
  -----------------------------------------------------------------------
  

  Basic array size parameters:
  | Number of species                 :        2
  | Number of atoms                   :       12
  | Max. basis fn. angular momentum   :        2
  | Max. atomic/ionic basis occupied n:        3
  | Max. number of basis fn. types    :        3
  | Max. radial fns per species/type  :        5
  | Max. logarithmic grid size        :     1340
  | Max. radial integration grid size :       41
  | Max. angular integration grid size:      302
  | Max. angular grid division number :        8
  | Radial grid for Hartree potential :     1340
  | Number of spin channels           :        1

------------------------------------------------------------
          Reading file control.in.
------------------------------------------------------------
  XC: Using PBEsol gradient-corrected functionals.
  Spin treatment: No spin polarisation.
  Scalar relativistic treatment of kinetic energy: on-site free-atom approximation to ZORA.
  Charge =   0.000000E+00: Neutral system requested explicitly.
  Occupation type: Gaussian broadening, width =   0.100000E-01 eV.
  Using pulay charge density mixing.
  Pulay mixing - number of memorized iterations:   10
  Charge density mixing - mixing parameter:     0.5000
  Convergence accuracy of self-consistent charge density:  0.1000E-04
  Convergence accuracy of sum of eigenvalues:  0.1000E-02
  Convergence accuracy of total energy:  0.1000E-05
  Convergence accuracy of forces:  0.1000E-03
  Maximum number of s.-c. iterations  :  1500
 
  Reading configuration options for species Al                  .
  | Found nuclear charge :  13.0000
  | Found atomic mass :    26.9815386000000      amu
  | Found l_max for Hartree potential  :   4
  | Found cutoff potl. onset [A], width [A], scale factor :    3.50000    1.50000    1.00000
  | Threshold for basis-dependent cutoff potential is   0.100000E-03
  | Found data for basic radial integration grid :    41 points, outermost radius =    5.000 A
  | Found multiplier for basic radial grid :   1
  | Found angular grid specification: user-specified.
  | Specified grid contains     4 separate shells.
  | Check grid settings after all constraints further below.
  | Found free-atom valence shell :  3 s   2.000
  | Found free-atom valence shell :  3 p   1.000
  | Found free-ion valence shell :  3 s   1.000
  | Found free-ion valence shell :  2 p   6.000
  | Found ionic basis function :  3 d , default cutoff radius.
  | Found ionic basis function :  3 p , default cutoff radius.
  | Found ionic basis function :  3 s , default cutoff radius.
  Species Al                  : Missing cutoff potential type.
  Defaulting to exp(1/x)/(1-x)^2 type cutoff potential.
  Species Al: No 'logarithmic' tag. Using default grid for free atom:
  | Default logarithmic grid data [bohr] : 0.1000E-03 0.1000E+03 0.1012E+01
  | Will include ionic basis functions of  2.0-fold positive Al                   ion.
  Species Al: On-site basis accuracy parameter (for Gram-Schmidt orthonormalisation) not specified.
  Using default value basis_acc =  0.1000000E-03.
  Species Al                  : Using default innermost maximum threshold i_radial=  2 for radial functions.
  Species Al                  : Default cutoff onset for free atom density etc. : 0.35000000E+01 AA.
  Species Al                  : Basic radial grid will be enhanced according to radial_multiplier =   1, to contain    41 grid points.
 
  Reading configuration options for species F                   .
  | Found nuclear charge :   9.0000
  | Found atomic mass :    18.9984032000000      amu
  | Found l_max for Hartree potential  :   4
  | Found cutoff potl. onset [A], width [A], scale factor :    3.50000    1.50000    1.00000
  | Threshold for basis-dependent cutoff potential is   0.100000E-03
  | Found data for basic radial integration grid :    37 points, outermost radius =    5.000 A
  | Found multiplier for basic radial grid :   1
  | Found angular grid specification: user-specified.
  | Specified grid contains     4 separate shells.
  | Check grid settings after all constraints further below.
  | Found free-atom valence shell :  2 s   2.000
  | Found free-atom valence shell :  2 p   5.000
  | Found free-ion valence shell :  2 s   1.000
  | Found free-ion valence shell :  2 p   4.000
  | Found hydrogenic basis function :  2 p   1.700
  | Found hydrogenic basis function :  3 d   7.400
  | Found hydrogenic basis function :  3 s   6.800
  Species F                   : Missing cutoff potential type.
  Defaulting to exp(1/x)/(1-x)^2 type cutoff potential.
  Species F : No 'logarithmic' tag. Using default grid for free atom:
  | Default logarithmic grid data [bohr] : 0.1000E-03 0.1000E+03 0.1012E+01
  Species F : On-site basis accuracy parameter (for Gram-Schmidt orthonormalisation) not specified.
  Using default value basis_acc =  0.1000000E-03.
  Species F                   : Using default innermost maximum threshold i_radial=  2 for radial functions.
  Species F                   : Default cutoff onset for free atom density etc. : 0.35000000E+01 AA.
  Species F                   : Basic radial grid will be enhanced according to radial_multiplier =   1, to contain    37 grid points.
 
  Finished reading input file 'control.in'.
 
------------------------------------------------------------


------------------------------------------------------------
          Reading geometry description geometry.in.
------------------------------------------------------------
  | The smallest distance between any two atoms is         1.80943235 AA.
  | The first atom of this pair is atom number                      3 .
  | The second atom of this pair is atom number                    11 .
  Input structure read successfully.
  The structure contains       12 atoms,  and a total of        120.000 electrons.

  Input geometry:
  | No unit cell requested.
  | Atomic structure:
  |       Atom                x [A]            y [A]            z [A]
  |    1: Species Al           -0.36402524        1.03329236       -1.81947314
  |    2: Species Al           -0.44787698        1.07431569        1.28166460
  |    3: Species Al           -3.01992210        0.45855328       -1.85881321
  |    4: Species F            -3.53170706        0.31474334       -3.59972776
  |    5: Species F            -1.37720016       -0.56213730       -1.84228374
  |    6: Species F            -1.94523309        2.06620139       -1.89241276
  |    7: Species F            -2.03425818        0.71571785        0.45572531
  |    8: Species F             0.59641642        1.26994130       -0.29477117
  |    9: Species F            -0.30181698        2.73912560        1.99084777
  |   10: Species F             0.36681121       -0.35468327        2.04985176
  |   11: Species F            -4.27674377        0.21130573       -0.58080171
  |   12: Species F             0.74701262        1.24643170       -3.23390604

 
  Finished reading input file 'control.in'.
 

------------------------------------------------------------
          Reading geometry description geometry.in.
------------------------------------------------------------
 
  Consistency checks for stacksize environment parameter are next.
 
  | Maximum stacksize for task 0: unlimited
  | Maximum stacksize for task 1: unlimited
  | Maximum stacksize for task 2: unlimited
  | Maximum stacksize for task 3: unlimited
  | Maximum stacksize for task 4: unlimited
  | Maximum stacksize for task 5: unlimited
  | Maximum stacksize for task 6: unlimited
  | Maximum stacksize for task 7: unlimited
  | Maximum stacksize for task 8: unlimited
  | Maximum stacksize for task 9: unlimited
  | Maximum stacksize for task 10: unlimited
  | Maximum stacksize for task 11: unlimited
  | Maximum stacksize for task 12: unlimited
  | Maximum stacksize for task 13: unlimited
  | Maximum stacksize for task 14: unlimited
  | Maximum stacksize for task 15: unlimited
  | Maximum stacksize for task 16: unlimited
  | Maximum stacksize for task 17: unlimited
  | Maximum stacksize for task 18: unlimited
  | Maximum stacksize for task 19: unlimited
  | Maximum stacksize for task 20: unlimited
  | Maximum stacksize for task 21: unlimited
  | Maximum stacksize for task 22: unlimited
  | Maximum stacksize for task 23: unlimited
  | Current stacksize for task 0: unlimited
  | Current stacksize for task 1: unlimited
  | Current stacksize for task 2: unlimited
  | Current stacksize for task 3: unlimited
  | Current stacksize for task 4: unlimited
  | Current stacksize for task 5: unlimited
  | Current stacksize for task 6: unlimited
  | Current stacksize for task 7: unlimited
  | Current stacksize for task 8: unlimited
  | Current stacksize for task 9: unlimited
  | Current stacksize for task 10: unlimited
  | Current stacksize for task 11: unlimited
  | Current stacksize for task 12: unlimited
  | Current stacksize for task 13: unlimited
  | Current stacksize for task 14: unlimited
  | Current stacksize for task 15: unlimited
  | Current stacksize for task 16: unlimited
  | Current stacksize for task 17: unlimited
  | Current stacksize for task 18: unlimited
  | Current stacksize for task 19: unlimited
  | Current stacksize for task 20: unlimited
  | Current stacksize for task 21: unlimited
  | Current stacksize for task 22: unlimited
  | Current stacksize for task 23: unlimited
 
  Consistency checks for the contents of control.in are next.
 
  MPI_IN_PLACE appears to work with this MPI implementation.
  | Keeping use_mpi_in_place .true. (see manual).
  Target number of points in a grid batch is not set. Defaulting to  100
  Method for grid partitioning is not set. Defaulting to parallel hash+maxmin partitioning.
  Batch size limit is not set. Defaulting to    200
  By default, will store active basis functions for each batch.
  If in need of memory, prune_basis_once .false. can be used to disable this option.
  communication_type for Hartree potential was not specified.
  Defaulting to calc_hartree .
  Pulay mixer: Number of initial linear mixing iterations not set.
  Defaulting to    0 iterations.
  Work space size for distributed Hartree potential not set.
  Defaulting to   0.200000E+03 MB.
  Algorithm-dependent basis array size parameters:
  | n_max_pulay                         :       10
  Presetting      1001 iterations before the initial mixing cycle
  is restarted anyway using the sc_init_iter criterion / keyword.
  Presetting a factor      1.000 between actual scf density residual
  and density convergence criterion sc_accuracy_rho below which sc_init_iter
  takes no effect.
  Geometry relaxation not requested: no relaxation will be performed.
  Forces evaluation will include force correction term due to incomplete self-consistency (default).
  Handling of forces: Unphysical translation and rotation will be removed from forces.
  No accuracy limit for integral partition fn. given. Defaulting to  0.1000E-14.
  No threshold value for u(r) in integrations given. Defaulting to  0.1000E-05.
  No accuracy for occupation numbers given. Defaulting to  0.1000E-12.
  No threshold value for occupation numbers given. Defaulting to  0.0000E+00.
  No accuracy for fermi level given. Defaulting to  0.1000E-19.
  Maximum # of iterations to find E_F not set. Defaulting to  200.
  Preferred method for the eigenvalue solver ('KS_method') not specified in 'control.in'.
  Calling BLACS routine to test compilation state
  Since ScaLAPACK support is enabled, defaulting to ELPA (via ELSI).
  Will not use alltoall communication since running on < 1024 CPUs.
  Threshold for basis singularities not set.
  Default threshold for basis singularities:  0.1000E-04
  partition_type (choice of integration weights) for integrals was not specified.
  | Using a version of the partition function of Stratmann and coworkers ('stratmann_sparse').
  | At each grid point, the set of atoms used to build the partition table is smoothly restricted to
  | only those atoms whose free-atom density would be non-zero at that grid point.
  Partitioning for Hartree potential was not defined. Using partition_type for integrals.
  | Adjusted default value of keyword multip_moments_threshold to:       0.10000000E-11
  | This value may affect high angular momentum components of the Hartree potential in periodic systems.
  No q(lm)/r^(l+1) cutoff set for long-range Hartree potential.
  | Using default value of  0.100000E-09 .
  | Verify using the multipole_threshold keyword.
  Defaulting to new monopole extrapolation.
  Density update method: automatic selection selected.
  Charge integration errors on the 3D integration grid will be compensated
  by explicit normalization and distribution of residual charges.
  Use the "compensate_multipole_errors" flag to change this behaviour.
  Set 'collect_eigenvectors' to be '.true.' for use_density_matrix .false.
 
  Consistency checks for the contents of geometry.in are next.
 
  Number of empty states per atom not set in control.in - providing a guess from actual geometry.
  | Total number of empty states used during s.c.f. cycle:       36
  If you use a very high smearing, use empty_states (per atom!) in control.in to increase this value.

  Structure-dependent array size parameters: 
  | Maximum number of distinct radial functions  :       14
  | Maximum number of basis functions            :      180
  | Number of Kohn-Sham states (occupied + empty):       96
------------------------------------------------------------

------------------------------------------------------------
          Preparing all fixed parts of the calculation.
------------------------------------------------------------
  Determining machine precision:
    2.225073858507201E-308
  Setting up grids for atomic and cluster calculations.

  Creating wave function, potential, and density for free atoms.

  Species: Al

  List of occupied orbitals and eigenvalues:
    n    l              occ      energy [Ha]    energy [eV]
    1    0           2.0000       -55.621123     -1513.5278
    2    0           2.0000        -3.957030      -107.6763
    3    0           2.0000        -0.272233        -7.4078
    2    1           6.0000        -2.540949       -69.1427
    3    1           1.0000        -0.083300        -2.2667


  Species: F

  List of occupied orbitals and eigenvalues:
    n    l              occ      energy [Ha]    energy [eV]
    1    0           2.0000       -24.399611      -663.9472
    2    0           2.0000        -1.098702       -29.8972
    2    1           5.0000        -0.408210       -11.1080


  Adding cutoff potential to free-atom effective potential.
  Creating fixed part of basis set: Ionic, confined, hydrogenic.
 
  Al                   ion:

  List of free ionic orbitals and eigenvalues:
    n    l      energy [Ha]    energy [eV]
    1    0       -56.418846     -1535.2349
    2    0        -4.732717      -128.7838
    3    0        -0.872690       -23.7471
    2    1        -3.317230       -90.2664


  List of ionic basis orbitals and eigenvalues:
    n    l      energy [Ha]    energy [eV]    outer radius [A]
    3    2        -0.346815        -9.4373       4.594041
    3    1        -0.631870       -17.1940       4.538221
    3    0        -0.872657       -23.7462       4.538221

 
  F                    hydrogenic:
 
  List of hydrogenic basis orbitals: 
    n    l      effective z      eigenvalue [eV]  inner max. [A]     outer max. [A]     outer radius [A]   
    2    1         1.700000        -9.7616           1.243167           1.243167           4.598524
    3    2         7.400000       -82.7828           0.642437           0.642437           3.305741
    3    0         6.800000       -69.9026           0.057798           1.022307           3.781556
 
  Creating atomic-like basis functions for current effective potential.

  Species Al                  :

  List of atomic basis orbitals and eigenvalues:
    n    l      energy [Ha]    energy [eV]    outer radius [A]
    1    0       -55.621123     -1513.5278       0.850197
    2    0        -3.957030      -107.6763       3.144911
    3    0        -0.272233        -7.4078       4.594041
    2    1        -2.540949       -69.1427       3.731966
    3    1        -0.083300        -2.2667       4.594041


  Species F                   :

  List of atomic basis orbitals and eigenvalues:
    n    l      energy [Ha]    energy [eV]    outer radius [A]
    1    0       -24.399611      -663.9472       1.258458
    2    0        -1.098702       -29.8972       4.325857
    2    1        -0.408210       -11.1080       4.487453

  Assembling full basis from fixed parts.
  | Species Al :   atomic orbital   1 s accepted.
  | Species Al :   atomic orbital   2 s accepted.
  | Species Al :    ionic orbital   3 s accepted.
  | Species Al :   atomic orbital   3 s accepted.
  | Species Al :   atomic orbital   2 p accepted.
  | Species Al :    ionic orbital   3 p accepted.
  | Species Al :   atomic orbital   3 p accepted.
  | Species Al :    ionic orbital   3 d accepted.
  | Species F :   atomic orbital   1 s accepted.
  | Species F :    hydro orbital   3 s accepted.
  | Species F :   atomic orbital   2 s accepted.
  | Species F :   atomic orbital   2 p accepted.
  | Species F :    hydro orbital   2 p accepted.
  | Species F :    hydro orbital   3 d accepted.
 
  Basis size parameters after reduction:
  | Total number of radial functions:       14
  | Total number of basis functions :      180
 
  Per-task memory consumption for arrays in subroutine allocate_ext:
  |           4.807768MB.
  Testing on-site integration grid accuracy.
  |  Species  Function  <phi|h_atom|phi> (log., in eV)  <phi|h_atom|phi> (rad., in eV)
           1        1              -1513.5277717935              -1513.5271881332
           1        2               -107.6762691836               -107.6762662489
           1        3                 -6.9467474784                 -6.9471269649
           1        4                  5.5771951849                  5.4862107220 ***
           1        5                -69.1427313144                -69.1427312731
           1        6                 -1.5197375330                 -1.5230432022
           1        7                  6.8210948310                  6.5529872240 ***
           1        8                  4.3216540965                  4.2851170187 ***
           2        9               -663.9471986398               -663.9470363334
           2       10                 16.8514011578                 16.8512525338
           2       11                -28.4490593856                -28.4490661472
           2       12                -11.1080115307                -11.1080620173
           2       13                  7.1940182175                  7.1685154137
           2       14                 44.8544281765                 44.8543763625
 * Note: Onsite integrals marked "***" above are less accurate than
 * onsite_accuracy_threshold =    0.03000 eV. Usually, this is harmless.
 * When in doubt, tighten the "radial" and/or "radial_multiplier" flags to check.

  Preparing densities etc. for the partition functions (integrals / Hartree potential).

  Preparations completed.
  max(cpu_time)          :      0.184 s.
  Wall clock time (cpu1) :      0.184 s.
------------------------------------------------------------

------------------------------------------------------------
          Begin self-consistency loop: Initialization.

          Date     :  20220517, Time     :  115700.391
------------------------------------------------------------

  Initializing index lists of integration centers etc. from given atomic structure:
  | Number of centers in hartree potential         :        12
  | Number of centers in hartree multipole         :        12
  | Number of centers in electron density summation:        12
  | Number of centers in basis integrals           :        12
  | Number of centers in integrals                 :        12
  | Number of centers in hamiltonian               :        12
  * Using 24 tasks for Scalapack Eigenvalue solver.
  Detailed listing of tasks and assigned k-points:
  (for non-periodic systems, the "k-point" denotes an internal label only)
   Task     0 k-point     1 on node-k98i-010
   Task     1 k-point     1 on node-k98i-010
   Task     2 k-point     1 on node-k98i-010
   Task     3 k-point     1 on node-k98i-010
   Task     4 k-point     1 on node-k98i-010
   Task     5 k-point     1 on node-k98i-010
   Task     6 k-point     1 on node-k98i-010
   Task     7 k-point     1 on node-k98i-010
   Task     8 k-point     1 on node-k98i-010
   Task     9 k-point     1 on node-k98i-010
   Task    10 k-point     1 on node-k98i-010
   Task    11 k-point     1 on node-k98i-010
   Task    12 k-point     1 on node-k98i-010
   Task    13 k-point     1 on node-k98i-010
   Task    14 k-point     1 on node-k98i-010
   Task    15 k-point     1 on node-k98i-010
   Task    16 k-point     1 on node-k98i-010
   Task    17 k-point     1 on node-k98i-010
   Task    18 k-point     1 on node-k98i-010
   Task    19 k-point     1 on node-k98i-010
   Task    20 k-point     1 on node-k98i-010
   Task    21 k-point     1 on node-k98i-010
   Task    22 k-point     1 on node-k98i-010
   Task    23 k-point     1 on node-k98i-010
  Tasks:    24 split into      6 X      4 BLACS grid
  Calculating block size based on n_basis =          180  max_nprow =            6  max_npcol =            4
  ScaLAPACK block size set to:           16
  Allocating        0.012 MB for ovlp
  Allocating        0.012 MB for ham
  Allocating        0.012 MB for eigenvec
  Required Scalapack workspace - INTEGER:            1  REAL:             1
  Partitioning the integration grid into batches with parallel hashing+maxmin method.
  | Number of batches:     1058
  | Maximal batch size:     198
  | Minimal batch size:      20
  | Average batch size:      86.881
  | Standard deviation of batch sizes:      28.388

  Integration load balanced across    24 MPI tasks.
  Work distribution over tasks is as follows:
  Task     0 has       3767 integration points.
  Task     1 has       3932 integration points.
  Task     2 has       3817 integration points.
  Task     3 has       3821 integration points.
  Task     4 has       3795 integration points.
  Task     5 has       3812 integration points.
  Task     6 has       3911 integration points.
  Task     7 has       3883 integration points.
  Task     8 has       3766 integration points.
  Task     9 has       3841 integration points.
  Task    10 has       3953 integration points.
  Task    11 has       3843 integration points.
  Task    12 has       3758 integration points.
  Task    13 has       3816 integration points.
  Task    14 has       3913 integration points.
  Task    15 has       3906 integration points.
  Task    16 has       3837 integration points.
  Task    17 has       3808 integration points.
  Task    18 has       3759 integration points.
  Task    19 has       3810 integration points.
  Task    20 has       3803 integration points.
  Task    21 has       3812 integration points.
  Task    22 has       3771 integration points.
  Task    23 has       3786 integration points.
  Initializing partition tables, free-atom densities, potentials, etc. across the integration grid (initialize_grid_storage).
  | initialize_grid_storage: Actual outermost partition radius vs. multipole_radius_free
  | (-- VB: in principle, multipole_radius_free should be larger, hence this output)
  | Species        1: Confinement radius =              4.999999999999999 AA, multipole_radius_free =              5.004487022111096 AA.
  | Species        1: outer_partition_radius set to              5.004487022111096 AA .
  | Species        2: Confinement radius =              4.999999999999999 AA, multipole_radius_free =              5.009370088163274 AA.
  | Species        2: outer_partition_radius set to              5.009370088163274 AA .
  | The sparse table of interatomic distances needs          1.64 kbyte instead of         1.15 kbyte of memory.
  | Using the partition_type stratmann_smoother will reduce your memory usage.
  | Net number of integration points:    91920
  | of which are non-zero points    :    85669
  Renormalizing the initial density to the exact electron count on the 3D integration grid.
  | Initial density: Formal number of electrons (from input files) :     120.0000000000
  | Integrated number of electrons on 3D grid     :     119.9999302233
  | Charge integration error                      :      -0.0000697767
  | Normalization factor for density and gradient :       1.0000005815
  Renormalizing the free-atom superposition density to the exact electron count on the 3D integration grid.
  | Formal number of electrons (from input files) :     120.0000000000
  | Integrated number of electrons on 3D grid     :     119.9999302233
  | Charge integration error                      :      -0.0000697767
  | Normalization factor for density and gradient :       1.0000005815
  Obtaining max. number of non-zero basis functions in each batch (get_n_compute_maxes).
  | Maximal number of non-zero basis functions:      165 in task     0
  | Maximal number of non-zero basis functions:      166 in task     1
  | Maximal number of non-zero basis functions:      165 in task     2
  | Maximal number of non-zero basis functions:      164 in task     3
  | Maximal number of non-zero basis functions:      170 in task     4
  | Maximal number of non-zero basis functions:      164 in task     5
  | Maximal number of non-zero basis functions:      159 in task     6
  | Maximal number of non-zero basis functions:      160 in task     7
  | Maximal number of non-zero basis functions:      158 in task     8
  | Maximal number of non-zero basis functions:      173 in task     9
  | Maximal number of non-zero basis functions:      165 in task    10
  | Maximal number of non-zero basis functions:      165 in task    11
  | Maximal number of non-zero basis functions:      158 in task    12
  | Maximal number of non-zero basis functions:      165 in task    13
  | Maximal number of non-zero basis functions:      165 in task    14
  | Maximal number of non-zero basis functions:      161 in task    15
  | Maximal number of non-zero basis functions:      170 in task    16
  | Maximal number of non-zero basis functions:      172 in task    17
  | Maximal number of non-zero basis functions:      161 in task    18
  | Maximal number of non-zero basis functions:      166 in task    19
  | Maximal number of non-zero basis functions:      163 in task    20
  | Maximal number of non-zero basis functions:      164 in task    21
  | Maximal number of non-zero basis functions:      163 in task    22
  | Maximal number of non-zero basis functions:      163 in task    23
  Selecting the method for density update.
  Loop over occupied states selected for charge density update.
  Allocating        0.132 MB for KS_eigenvector
  Integrating Hamiltonian matrix: batch-based integration.
  Time summed over all CPUs for integration: real work        0.703 s, elapsed        0.770 s
  Integrating overlap matrix.
  Time summed over all CPUs for integration: real work        0.275 s, elapsed        0.292 s
  Deallocating overlap matrix.

  Updating Kohn-Sham eigenvalues and eigenvectors using ELSI and the ELPA eigensolver.
  Overlap matrix is not singular
  | Lowest and highest eigenvalues :  0.3542E-02,  0.5213E+01
  Finished singularity check of overlap matrix
  | Time :     0.010 s
  Starting ELPA eigensolver
  Finished Cholesky decomposition
  | Time :     0.005 s
  Finished transformation to standard eigenproblem
  | Time :     0.002 s
  Finished solving standard eigenproblem
  | Time :     0.006 s
  Finished back-transformation of eigenvectors
  | Time :     0.002 s

  Obtaining occupation numbers and chemical potential using ELSI.
  | Chemical potential (Fermi level):    -7.74747634 eV
  Writing Kohn-Sham eigenvalues.

  State    Occupation    Eigenvalue [Ha]    Eigenvalue [eV]
      1       2.00000         -55.484926        -1509.82165
      2       2.00000         -55.484215        -1509.80231
      3       2.00000         -55.483204        -1509.77479
      4       2.00000         -24.370587         -663.15742
      5       2.00000         -24.360111         -662.87234
      6       2.00000         -24.360111         -662.87234
      7       2.00000         -24.345022         -662.46176
      8       2.00000         -24.341397         -662.36312
      9       2.00000         -24.341134         -662.35595
     10       2.00000         -24.340637         -662.34243
     11       2.00000         -24.340637         -662.34243
     12       2.00000         -24.340088         -662.32748
     13       2.00000          -3.950386         -107.49547
     14       2.00000          -3.949281         -107.46539
     15       2.00000          -3.948239         -107.43706
     16       2.00000          -2.543261          -69.20565
     17       2.00000          -2.542485          -69.18454
     18       2.00000          -2.542135          -69.17502
     19       2.00000          -2.541259          -69.15117
     20       2.00000          -2.541113          -69.14720
     21       2.00000          -2.540583          -69.13278
     22       2.00000          -2.540428          -69.12855
     23       2.00000          -2.539922          -69.11479
     24       2.00000          -2.539372          -69.09983
     25       2.00000          -1.194571          -32.50592
     26       2.00000          -1.186068          -32.27456
     27       2.00000          -1.175694          -31.99226
     28       2.00000          -1.158943          -31.53645
     29       2.00000          -1.150553          -31.30813
     30       2.00000          -1.149740          -31.28602
     31       2.00000          -1.149234          -31.27225
     32       2.00000          -1.147833          -31.23413
     33       2.00000          -1.147012          -31.21177
     34       2.00000          -0.560197          -15.24374
     35       2.00000          -0.547313          -14.89314
     36       2.00000          -0.543050          -14.77715
     37       2.00000          -0.517986          -14.09512
     38       2.00000          -0.516027          -14.04180
     39       2.00000          -0.512724          -13.95192
     40       2.00000          -0.498148          -13.55529
     41       2.00000          -0.498055          -13.55277
     42       2.00000          -0.495672          -13.48791
     43       2.00000          -0.488459          -13.29166
     44       2.00000          -0.484635          -13.18760
     45       2.00000          -0.483903          -13.16766
     46       2.00000          -0.480402          -13.07239
     47       2.00000          -0.479056          -13.03576
     48       2.00000          -0.478303          -13.01529
     49       2.00000          -0.458684          -12.48142
     50       2.00000          -0.457053          -12.43706
     51       2.00000          -0.454961          -12.38013
     52       2.00000          -0.452987          -12.32641
     53       2.00000          -0.452585          -12.31547
     54       2.00000          -0.451694          -12.29122
     55       2.00000          -0.451660          -12.29029
     56       2.00000          -0.448757          -12.21130
     57       2.00000          -0.448541          -12.20542
     58       2.00000          -0.448094          -12.19327
     59       2.00000          -0.444502          -12.09551
     60       2.00000          -0.442396          -12.03821
     61       0.00000          -0.141342           -3.84612
     62       0.00000          -0.095825           -2.60752
     63       0.00000          -0.077323           -2.10408
     64       0.00000          -0.031860           -0.86696
     65       0.00000          -0.012952           -0.35243
     66       0.00000           0.000368            0.01001
     67       0.00000           0.007927            0.21571
     68       0.00000           0.025276            0.68780
     69       0.00000           0.037526            1.02112
     70       0.00000           0.051052            1.38920
     71       0.00000           0.076533            2.08256
     72       0.00000           0.102724            2.79525
     73       0.00000           0.145837            3.96844
     74       0.00000           0.162427            4.41986
     75       0.00000           0.169221            4.60474
     76       0.00000           0.169870            4.62239
     77       0.00000           0.179298            4.87893
     78       0.00000           0.184241            5.01345
     79       0.00000           0.191853            5.22058
     80       0.00000           0.200983            5.46904
     81       0.00000           0.205886            5.60244
     82       0.00000           0.217085            5.90719
     83       0.00000           0.228171            6.20884
     84       0.00000           0.239703            6.52265
     85       0.00000           0.240069            6.53261
     86       0.00000           0.242657            6.60303
     87       0.00000           0.274489            7.46922
     88       0.00000           0.275978            7.50973
     89       0.00000           0.290593            7.90744
     90       0.00000           0.297468            8.09450
     91       0.00000           0.309968            8.43465
     92       0.00000           0.317523            8.64024
     93       0.00000           0.342757            9.32690
     94       0.00000           0.344339            9.36993
     95       0.00000           0.364243            9.91156
     96       0.00000           0.369833           10.06368

  Highest occupied state (VBM) at    -12.03821103 eV
  | Occupation number:      2.00000000

  Lowest unoccupied state (CBM) at    -3.84611872 eV
  | Occupation number:      0.00000000

  Overall HOMO-LUMO gap:      8.19209231 eV.
  Calculating total energy contributions from superposition of free atom densities.

  Total energy components:
  | Sum of eigenvalues            :        -887.53204384 Ha      -24150.97570108 eV
  | XC energy correction          :        -144.32134143 Ha       -3927.18351320 eV
  | XC potential correction       :         187.91406806 Ha        5113.40195906 eV
  | Free-atom electrostatic energy:        -781.42063709 Ha      -21263.53741219 eV
  | Hartree energy correction     :           0.00000000 Ha           0.00000000 eV
  | Entropy correction            :           0.00000000 Ha           0.00000000 eV
  | ---------------------------
  | Total energy                  :       -1625.35995430 Ha      -44228.29466742 eV
  | Total energy, T -> 0          :       -1625.35995430 Ha      -44228.29466742 eV  <-- do not rely on this value for anything but (periodic) metals
  | Electronic free energy        :       -1625.35995430 Ha      -44228.29466742 eV

  Derived energy quantities:
  | Kinetic energy                :        1627.57315595 Ha       44288.51894849 eV
  | Electrostatic energy          :       -3108.61176882 Ha      -84589.63010271 eV
  | Energy correction for multipole
  | error in Hartree potential    :           0.00000000 Ha           0.00000000 eV
  | Sum of eigenvalues per atom                           :       -2012.58130842 eV
  | Total energy (T->0) per atom                          :       -3685.69122228 eV  <-- do not rely on this value for anything but (periodic) metals
  | Electronic free energy per atom                       :       -3685.69122228 eV
  Initialize hartree_potential_storage
  Max. number of atoms included in rho_multipole:           12

  End scf initialization - timings             :  max(cpu_time)    wall_clock(cpu1)
  | Time for scf. initialization                :        0.145 s           0.145 s
  | Boundary condition initialization           :        0.000 s           0.000 s
  | Integration                                 :        0.049 s           0.049 s
  | Solution of K.-S. eqns.                     :        0.031 s           0.031 s
  | Grid partitioning                           :        0.042 s           0.042 s
  | Preloading free-atom quantities on grid     :        0.016 s           0.016 s
  | Free-atom superposition energy              :        0.005 s           0.005 s
  | Total energy evaluation                     :        0.000 s           0.000 s

  Partial memory accounting:
  | Current value for overall tracked memory usage:
  |   Minimum:        0.273 MB (on task 23)
  |   Maximum:        0.292 MB (on task  0)
  |   Average:        0.287 MB
  | Peak value for overall tracked memory usage:
  |   Minimum:        1.326 MB (on task  8 after allocating wave)
  |   Maximum:        1.432 MB (on task  9 after allocating wave)
  |   Average:        1.367 MB
  | Largest tracked array allocation so far:
  |   Minimum:        0.239 MB (H_times_psi on task  8)
  |   Maximum:        0.460 MB (all_coords on task 10)
  |   Average:        0.272 MB
  Note:  These values currently only include a subset of arrays which are explicitly tracked.
  The "true" memory usage will be greater.
------------------------------------------------------------
  Evaluating new KS density.
  Integration grid: deviation in total charge (<rho> - N_e) =   2.842171E-14

  Time for density update prior                :  max(cpu_time)    wall_clock(cpu1)
  | self-consistency iterative process          :        0.032 s           0.032 s

------------------------------------------------------------
          Begin self-consistency iteration #    1

  Date     :  20220517, Time     :  115700.570
------------------------------------------------------------
  Pulay mixing of updated and previous charge densities.
  Renormalizing the density to the exact electron count on the 3D integration grid.
  | Formal number of electrons (from input files) :     120.0000000000
  | Integrated number of electrons on 3D grid     :     120.0000000000
  | Charge integration error                      :       0.0000000000
  | Normalization factor for density and gradient :       1.0000000000

  Evaluating partitioned Hartree potential by multipole expansion.
  | Original multipole sum: apparent total charge =  -0.121021E-13
  | Sum of charges compensated after spline to logarithmic grids =   0.118301E-03
  | Analytical far-field extrapolation by fixed multipoles:
  | Hartree multipole sum: apparent total charge =  -0.122989E-13
  Summing up the Hartree potential.
  Time summed over all CPUs for potential: real work        0.383 s, elapsed        0.396 s
  | RMS charge density error from multipole expansion :   0.106593E-01

  Integrating Hamiltonian matrix: batch-based integration.
  Time summed over all CPUs for integration: real work        0.666 s, elapsed        0.707 s

  Updating Kohn-Sham eigenvalues and eigenvectors using ELSI and the ELPA eigensolver.
  Starting ELPA eigensolver
  Finished transformation to standard eigenproblem
  | Time :     0.005 s
  Finished solving standard eigenproblem
  | Time :     0.022 s
  Finished back-transformation of eigenvectors
  | Time :     0.001 s

  Obtaining occupation numbers and chemical potential using ELSI.
  | Chemical potential (Fermi level):    -7.80779345 eV
  Writing Kohn-Sham eigenvalues.

  State    Occupation    Eigenvalue [Ha]    Eigenvalue [eV]
      1       2.00000         -55.677979        -1515.07490
      2       2.00000         -55.643686        -1514.14174
      3       2.00000         -55.621270        -1513.53176
      4       2.00000         -24.258450         -660.10601
      5       2.00000         -24.248441         -659.83364
      6       2.00000         -24.248437         -659.83355
      7       2.00000         -24.149996         -657.15483
      8       2.00000         -24.084394         -655.36972
      9       2.00000         -24.066535         -654.88375
     10       2.00000         -24.062643         -654.77784
     11       2.00000         -24.062642         -654.77779
     12       2.00000         -24.062279         -654.76794
     13       2.00000          -4.116995         -112.02912
     14       2.00000          -4.082048         -111.07819
     15       2.00000          -4.061816         -110.52764
     16       2.00000          -2.710368          -73.75286
     17       2.00000          -2.709726          -73.73541
     18       2.00000          -2.708897          -73.71283
     19       2.00000          -2.675645          -72.80801
     20       2.00000          -2.675412          -72.80166
     21       2.00000          -2.673017          -72.73649
     22       2.00000          -2.655866          -72.26980
     23       2.00000          -2.654205          -72.22458
     24       2.00000          -2.653239          -72.19830
     25       2.00000          -1.179358          -32.09195
     26       2.00000          -1.171009          -31.86478
     27       2.00000          -1.157579          -31.49932
     28       2.00000          -1.080570          -29.40381
     29       2.00000          -1.031117          -28.05812
     30       2.00000          -1.014847          -27.61540
     31       2.00000          -1.012010          -27.53819
     32       2.00000          -1.008515          -27.44308
     33       2.00000          -1.007837          -27.42464
     34       2.00000          -0.560757          -15.25896
     35       2.00000          -0.543041          -14.77691
     36       2.00000          -0.531880          -14.47319
     37       2.00000          -0.509674          -13.86894
     38       2.00000          -0.502547          -13.67499
     39       2.00000          -0.478501          -13.02068
     40       2.00000          -0.474891          -12.92243
     41       2.00000          -0.462885          -12.59573
     42       2.00000          -0.453198          -12.33215
     43       2.00000          -0.443688          -12.07336
     44       2.00000          -0.399492          -10.87072
     45       2.00000          -0.391359          -10.64942
     46       2.00000          -0.388887          -10.58216
     47       2.00000          -0.387523          -10.54504
     48       2.00000          -0.381181          -10.37245
     49       2.00000          -0.359418           -9.78025
     50       2.00000          -0.355717           -9.67955
     51       2.00000          -0.340909           -9.27662
     52       2.00000          -0.339905           -9.24928
     53       2.00000          -0.328603           -8.94174
     54       2.00000          -0.327413           -8.90937
     55       2.00000          -0.325119           -8.84694
     56       2.00000          -0.323079           -8.79142
     57       2.00000          -0.317041           -8.62711
     58       2.00000          -0.315316           -8.58018
     59       2.00000          -0.310912           -8.46034
     60       2.00000          -0.306798           -8.34840
     61       0.00000          -0.159117           -4.32981
     62       0.00000          -0.089472           -2.43466
     63       0.00000          -0.081375           -2.21432
     64       0.00000          -0.060418           -1.64405
     65       0.00000          -0.031681           -0.86208
     66       0.00000          -0.019411           -0.52819
     67       0.00000          -0.004433           -0.12063
     68       0.00000           0.020757            0.56483
     69       0.00000           0.032965            0.89701
     70       0.00000           0.042755            1.16341
     71       0.00000           0.052802            1.43680
     72       0.00000           0.087112            2.37045
     73       0.00000           0.134199            3.65174
     74       0.00000           0.157874            4.29596
     75       0.00000           0.158120            4.30266
     76       0.00000           0.167328            4.55323
     77       0.00000           0.183573            4.99529
     78       0.00000           0.186086            5.06367
     79       0.00000           0.190012            5.17049
     80       0.00000           0.201092            5.47200
     81       0.00000           0.206040            5.60663
     82       0.00000           0.210667            5.73254
     83       0.00000           0.218966            5.95836
     84       0.00000           0.224535            6.10992
     85       0.00000           0.228887            6.22834
     86       0.00000           0.233016            6.34069
     87       0.00000           0.250846            6.82587
     88       0.00000           0.265278            7.21857
     89       0.00000           0.272539            7.41617
     90       0.00000           0.292972            7.97216
     91       0.00000           0.302692            8.23665
     92       0.00000           0.321257            8.74186
     93       0.00000           0.334541            9.10333
     94       0.00000           0.349079            9.49892
     95       0.00000           0.364868            9.92858
     96       0.00000           0.369880           10.06494

  Highest occupied state (VBM) at     -8.34839701 eV
  | Occupation number:      2.00000000

  Lowest unoccupied state (CBM) at    -4.32980620 eV
  | Occupation number:      0.00000000

  Overall HOMO-LUMO gap:      4.01859081 eV.

  Total energy components:
  | Sum of eigenvalues            :        -882.17312069 Ha      -24005.15198273 eV
  | XC energy correction          :        -145.66640557 Ha       -3963.78457066 eV
  | XC potential correction       :         189.68221619 Ha        5161.51571762 eV
  | Free-atom electrostatic energy:        -781.42063709 Ha      -21263.53741219 eV
  | Hartree energy correction     :          -5.56064177 Ha        -151.31276128 eV
  | Entropy correction            :           0.00000000 Ha           0.00000000 eV
  | ---------------------------
  | Total energy                  :       -1625.13858893 Ha      -44222.27100925 eV
  | Total energy, T -> 0          :       -1625.13858893 Ha      -44222.27100925 eV  <-- do not rely on this value for anything but (periodic) metals
  | Electronic free energy        :       -1625.13858893 Ha      -44222.27100925 eV

  Derived energy quantities:
  | Kinetic energy                :        1634.01451294 Ha       44463.79719008 eV
  | Electrostatic energy          :       -3113.48669630 Ha      -84722.28362867 eV
  | Energy correction for multipole
  | error in Hartree potential    :           0.03990969 Ha           1.08599799 eV
  | Sum of eigenvalues per atom                           :       -2000.42933189 eV
  | Total energy (T->0) per atom                          :       -3685.18925077 eV  <-- do not rely on this value for anything but (periodic) metals
  | Electronic free energy per atom                       :       -3685.18925077 eV
  Evaluating new KS density.
  Integration grid: deviation in total charge (<rho> - N_e) =   4.263256E-14

  Self-consistency convergence accuracy:
  | Change of charge density      :  0.6038E+00
  | Change of sum of eigenvalues  :  0.1458E+03 eV
  | Change of total energy        :  0.6024E+01 eV


------------------------------------------------------------
  End self-consistency iteration #     1       :  max(cpu_time)    wall_clock(cpu1)
  | Time for this iteration                     :        0.123 s           0.123 s
  | Charge density update                       :        0.028 s           0.028 s
  | Density mixing                              :        0.001 s           0.001 s
  | Hartree multipole update                    :        0.009 s           0.009 s
  | Hartree multipole summation                 :        0.019 s           0.019 s
  | Integration                                 :        0.034 s           0.034 s
  | Solution of K.-S. eqns.                     :        0.030 s           0.030 s
  | Total energy evaluation                     :        0.000 s           0.001 s

  Partial memory accounting:
  | Current value for overall tracked memory usage:
  |   Minimum:        0.273 MB (on task 23)
  |   Maximum:        0.292 MB (on task  0)
  |   Average:        0.287 MB
  | Peak value for overall tracked memory usage:
  |   Minimum:        1.326 MB (on task  8 after allocating wave)
  |   Maximum:        1.432 MB (on task  9 after allocating wave)
  |   Average:        1.367 MB
  | Largest tracked array allocation so far:
  |   Minimum:        0.716 MB (gradient_basis_wave on task  8)
  |   Maximum:        0.784 MB (gradient_basis_wave on task  9)
  |   Average:        0.745 MB
  Note:  These values currently only include a subset of arrays which are explicitly tracked.
  The "true" memory usage will be greater.
------------------------------------------------------------

------------------------------------------------------------
          Begin self-consistency iteration #    2

  Date     :  20220517, Time     :  115700.700
------------------------------------------------------------
  Pulay mixing of updated and previous charge densities.
  Renormalizing the density to the exact electron count on the 3D integration grid.
  | Formal number of electrons (from input files) :     120.0000000000
  | Integrated number of electrons on 3D grid     :     120.0000000000
  | Charge integration error                      :      -0.0000000000
  | Normalization factor for density and gradient :       1.0000000000

  Evaluating partitioned Hartree potential by multipole expansion.
  | Original multipole sum: apparent total charge =  -0.748509E-13
  | Sum of charges compensated after spline to logarithmic grids =   0.817435E-04
  | Analytical far-field extrapolation by fixed multipoles:
  | Hartree multipole sum: apparent total charge =  -0.762776E-13
  Summing up the Hartree potential.
  Time summed over all CPUs for potential: real work        0.381 s, elapsed        0.392 s
  | RMS charge density error from multipole expansion :   0.126061E-01

  Integrating Hamiltonian matrix: batch-based integration.
  Time summed over all CPUs for integration: real work        0.665 s, elapsed        0.709 s

  Updating Kohn-Sham eigenvalues and eigenvectors using ELSI and the ELPA eigensolver.
  Starting ELPA eigensolver
  Finished transformation to standard eigenproblem
  | Time :     0.000 s
  Finished solving standard eigenproblem
  | Time :     0.003 s
  Finished back-transformation of eigenvectors
  | Time :     0.000 s

  Obtaining occupation numbers and chemical potential using ELSI.
  | Chemical potential (Fermi level):    -7.94521744 eV
  Highest occupied state (VBM) at     -9.53737743 eV
  | Occupation number:      2.00000000

  Lowest unoccupied state (CBM) at    -4.55809566 eV
  | Occupation number:      0.00000000

  Overall HOMO-LUMO gap:      4.97928177 eV.

  Checking to see if s.c.f. parameters should be adjusted.

  Total energy components:
  | Sum of eigenvalues            :        -885.36123793 Ha      -24091.90506660 eV
  | XC energy correction          :        -145.17028330 Ha       -3950.28439688 eV
  | XC potential correction       :         189.02951180 Ha        5143.75472755 eV
  | Free-atom electrostatic energy:        -781.42063709 Ha      -21263.53741219 eV
  | Hartree energy correction     :          -2.15123291 Ha         -58.53802577 eV
  | Entropy correction            :           0.00000000 Ha           0.00000000 eV
  | ---------------------------
  | Total energy                  :       -1625.07387942 Ha      -44220.51017390 eV
  | Total energy, T -> 0          :       -1625.07387942 Ha      -44220.51017390 eV  <-- do not rely on this value for anything but (periodic) metals
  | Electronic free energy        :       -1625.07387942 Ha      -44220.51017390 eV

  Derived energy quantities:
  | Kinetic energy                :        1630.09932541 Ha       44357.25951700 eV
  | Electrostatic energy          :       -3110.00292154 Ha      -84627.48529401 eV
  | Energy correction for multipole
  | error in Hartree potential    :           0.04380139 Ha           1.19189659 eV
  | Sum of eigenvalues per atom                           :       -2007.65875555 eV
  | Total energy (T->0) per atom                          :       -3685.04251449 eV  <-- do not rely on this value for anything but (periodic) metals
  | Electronic free energy per atom                       :       -3685.04251449 eV
  Evaluating new KS density.
  Integration grid: deviation in total charge (<rho> - N_e) =   2.842171E-14

  Self-consistency convergence accuracy:
  | Change of charge density      :  0.4790E+00
  | Change of sum of eigenvalues  : -0.8675E+02 eV
  | Change of total energy        :  0.1761E+01 eV


------------------------------------------------------------
  End self-consistency iteration #     2       :  max(cpu_time)    wall_clock(cpu1)
  | Time for this iteration                     :        0.093 s           0.089 s
  | Charge density update                       :        0.027 s           0.027 s
  | Density mixing                              :        0.009 s           0.006 s
  | Hartree multipole update                    :        0.001 s           0.001 s
  | Hartree multipole summation                 :        0.018 s           0.018 s
  | Integration                                 :        0.032 s           0.032 s
  | Solution of K.-S. eqns.                     :        0.004 s           0.005 s
  | Total energy evaluation                     :        0.000 s           0.000 s

  Partial memory accounting:
  | Current value for overall tracked memory usage:
  |   Minimum:        0.274 MB (on task 23)
  |   Maximum:        0.293 MB (on task  0)
  |   Average:        0.288 MB
  | Peak value for overall tracked memory usage:
  |   Minimum:        1.326 MB (on task  8 after allocating wave)
  |   Maximum:        1.432 MB (on task  9 after allocating wave)
  |   Average:        1.367 MB
  | Largest tracked array allocation so far:
  |   Minimum:        0.716 MB (gradient_basis_wave on task  8)
  |   Maximum:        0.784 MB (gradient_basis_wave on task  9)
  |   Average:        0.745 MB
  Note:  These values currently only include a subset of arrays which are explicitly tracked.
  The "true" memory usage will be greater.
------------------------------------------------------------

------------------------------------------------------------
          Begin self-consistency iteration #    3

  Date     :  20220517, Time     :  115700.795
------------------------------------------------------------
  Pulay mixing of updated and previous charge densities.
  Renormalizing the density to the exact electron count on the 3D integration grid.
  | Formal number of electrons (from input files) :     120.0000000000
  | Integrated number of electrons on 3D grid     :     120.0000000000
  | Charge integration error                      :       0.0000000000
  | Normalization factor for density and gradient :       1.0000000000

  Evaluating partitioned Hartree potential by multipole expansion.
  | Original multipole sum: apparent total charge =  -0.428985E-13
  | Sum of charges compensated after spline to logarithmic grids =   0.106588E-03
  | Analytical far-field extrapolation by fixed multipoles:
  | Hartree multipole sum: apparent total charge =  -0.449155E-13
  Summing up the Hartree potential.
  Time summed over all CPUs for potential: real work        0.381 s, elapsed        0.391 s
  | RMS charge density error from multipole expansion :   0.175034E-01

  Integrating Hamiltonian matrix: batch-based integration.
  Time summed over all CPUs for integration: real work        0.664 s, elapsed        0.698 s

  Updating Kohn-Sham eigenvalues and eigenvectors using ELSI and the ELPA eigensolver.
  Starting ELPA eigensolver
  Finished transformation to standard eigenproblem
  | Time :     0.000 s
  Finished solving standard eigenproblem
  | Time :     0.003 s
  Finished back-transformation of eigenvectors
  | Time :     0.000 s

  Obtaining occupation numbers and chemical potential using ELSI.
  | Chemical potential (Fermi level):    -8.12600235 eV
  Highest occupied state (VBM) at     -9.27430707 eV
  | Occupation number:      2.00000000

  Lowest unoccupied state (CBM) at    -4.82175174 eV
  | Occupation number:      0.00000000

  Overall HOMO-LUMO gap:      4.45255533 eV.

  Total energy components:
  | Sum of eigenvalues            :        -886.40460974 Ha      -24120.29665824 eV
  | XC energy correction          :        -145.13501479 Ha       -3949.32469193 eV
  | XC potential correction       :         188.98184737 Ha        5142.45771239 eV
  | Free-atom electrostatic energy:        -781.42063709 Ha      -21263.53741219 eV
  | Hartree energy correction     :          -1.09451410 Ha         -29.78324388 eV
  | Entropy correction            :           0.00000000 Ha           0.00000000 eV
  | ---------------------------
  | Total energy                  :       -1625.07292835 Ha      -44220.48429385 eV
  | Total energy, T -> 0          :       -1625.07292835 Ha      -44220.48429385 eV  <-- do not rely on this value for anything but (periodic) metals
  | Electronic free energy        :       -1625.07292835 Ha      -44220.48429385 eV

  Derived energy quantities:
  | Kinetic energy                :        1628.33546601 Ha       44309.26246068 eV
  | Electrostatic energy          :       -3108.27337957 Ha      -84580.42206260 eV
  | Energy correction for multipole
  | error in Hartree potential    :           0.05895675 Ha           1.60429484 eV
  | Sum of eigenvalues per atom                           :       -2010.02472152 eV
  | Total energy (T->0) per atom                          :       -3685.04035782 eV  <-- do not rely on this value for anything but (periodic) metals
  | Electronic free energy per atom                       :       -3685.04035782 eV
  Evaluating new KS density.
  Integration grid: deviation in total charge (<rho> - N_e) =   0.000000E+00

  Self-consistency convergence accuracy:
  | Change of charge density      :  0.1266E+00
  | Change of sum of eigenvalues  : -0.2839E+02 eV
  | Change of total energy        :  0.2588E-01 eV


------------------------------------------------------------
  End self-consistency iteration #     3       :  max(cpu_time)    wall_clock(cpu1)
  | Time for this iteration                     :        0.083 s           0.081 s
  | Charge density update                       :        0.027 s           0.027 s
  | Density mixing                              :        0.004 s           0.002 s
  | Hartree multipole update                    :        0.001 s           0.001 s
  | Hartree multipole summation                 :        0.017 s           0.017 s
  | Integration                                 :        0.030 s           0.029 s
  | Solution of K.-S. eqns.                     :        0.004 s           0.005 s
  | Total energy evaluation                     :        0.000 s           0.000 s

  Partial memory accounting:
  | Current value for overall tracked memory usage:
  |   Minimum:        0.274 MB (on task 23)
  |   Maximum:        0.293 MB (on task  0)
  |   Average:        0.288 MB
  | Peak value for overall tracked memory usage:
  |   Minimum:        1.326 MB (on task  8 after allocating wave)
  |   Maximum:        1.432 MB (on task  9 after allocating wave)
  |   Average:        1.367 MB
  | Largest tracked array allocation so far:
  |   Minimum:        0.716 MB (gradient_basis_wave on task  8)
  |   Maximum:        0.784 MB (gradient_basis_wave on task  9)
  |   Average:        0.745 MB
  Note:  These values currently only include a subset of arrays which are explicitly tracked.
  The "true" memory usage will be greater.
------------------------------------------------------------

------------------------------------------------------------
          Begin self-consistency iteration #    4

  Date     :  20220517, Time     :  115700.882
------------------------------------------------------------
  Pulay mixing of updated and previous charge densities.
  Renormalizing the density to the exact electron count on the 3D integration grid.
  | Formal number of electrons (from input files) :     120.0000000000
  | Integrated number of electrons on 3D grid     :     120.0000000000
  | Charge integration error                      :       0.0000000000
  | Normalization factor for density and gradient :       1.0000000000

  Evaluating partitioned Hartree potential by multipole expansion.
  | Original multipole sum: apparent total charge =  -0.693656E-14
  | Sum of charges compensated after spline to logarithmic grids =   0.115795E-03
  | Analytical far-field extrapolation by fixed multipoles:
  | Hartree multipole sum: apparent total charge =  -0.511633E-14
  Summing up the Hartree potential.
  Time summed over all CPUs for potential: real work        0.380 s, elapsed        0.391 s
  | RMS charge density error from multipole expansion :   0.194543E-01

  Integrating Hamiltonian matrix: batch-based integration.
  Time summed over all CPUs for integration: real work        0.664 s, elapsed        0.698 s

  Updating Kohn-Sham eigenvalues and eigenvectors using ELSI and the ELPA eigensolver.
  Starting ELPA eigensolver
  Finished transformation to standard eigenproblem
  | Time :     0.001 s
  Finished solving standard eigenproblem
  | Time :     0.003 s
  Finished back-transformation of eigenvectors
  | Time :     0.000 s

  Obtaining occupation numbers and chemical potential using ELSI.
  | Chemical potential (Fermi level):    -8.09001928 eV
  Highest occupied state (VBM) at     -9.32114825 eV
  | Occupation number:      2.00000000

  Lowest unoccupied state (CBM) at    -4.78586802 eV
  | Occupation number:      0.00000000

  Overall HOMO-LUMO gap:      4.53528023 eV.

  Total energy components:
  | Sum of eigenvalues            :        -886.52147479 Ha      -24123.47671798 eV
  | XC energy correction          :        -145.11921403 Ha       -3948.89473132 eV
  | XC potential correction       :         188.96044535 Ha        5141.87533382 eV
  | Free-atom electrostatic energy:        -781.42063709 Ha      -21263.53741219 eV
  | Hartree energy correction     :          -0.96984663 Ha         -26.39086942 eV
  | Entropy correction            :           0.00000000 Ha           0.00000000 eV
  | ---------------------------
  | Total energy                  :       -1625.07072718 Ha      -44220.42439709 eV
  | Total energy, T -> 0          :       -1625.07072718 Ha      -44220.42439709 eV  <-- do not rely on this value for anything but (periodic) metals
  | Electronic free energy        :       -1625.07072718 Ha      -44220.42439709 eV

  Derived energy quantities:
  | Kinetic energy                :        1627.70078621 Ha       44291.99194442 eV
  | Electrostatic energy          :       -3107.65229936 Ha      -84563.52161019 eV
  | Energy correction for multipole
  | error in Hartree potential    :           0.06457417 Ha           1.75715255 eV
  | Sum of eigenvalues per atom                           :       -2010.28972650 eV
  | Total energy (T->0) per atom                          :       -3685.03536642 eV  <-- do not rely on this value for anything but (periodic) metals
  | Electronic free energy per atom                       :       -3685.03536642 eV
  Evaluating new KS density.
  Integration grid: deviation in total charge (<rho> - N_e) =   2.842171E-14

  Self-consistency convergence accuracy:
  | Change of charge density      :  0.8224E-01
  | Change of sum of eigenvalues  : -0.3180E+01 eV
  | Change of total energy        :  0.5990E-01 eV


------------------------------------------------------------
  End self-consistency iteration #     4       :  max(cpu_time)    wall_clock(cpu1)
  | Time for this iteration                     :        0.083 s           0.081 s
  | Charge density update                       :        0.027 s           0.027 s
  | Density mixing                              :        0.004 s           0.002 s
  | Hartree multipole update                    :        0.001 s           0.001 s
  | Hartree multipole summation                 :        0.017 s           0.017 s
  | Integration                                 :        0.029 s           0.029 s
  | Solution of K.-S. eqns.                     :        0.004 s           0.005 s
  | Total energy evaluation                     :        0.000 s           0.000 s

  Partial memory accounting:
  | Current value for overall tracked memory usage:
  |   Minimum:        0.274 MB (on task 23)
  |   Maximum:        0.293 MB (on task  0)
  |   Average:        0.288 MB
  | Peak value for overall tracked memory usage:
  |   Minimum:        1.326 MB (on task  8 after allocating wave)
  |   Maximum:        1.432 MB (on task  9 after allocating wave)
  |   Average:        1.367 MB
  | Largest tracked array allocation so far:
  |   Minimum:        0.716 MB (gradient_basis_wave on task  8)
  |   Maximum:        0.784 MB (gradient_basis_wave on task  9)
  |   Average:        0.745 MB
  Note:  These values currently only include a subset of arrays which are explicitly tracked.
  The "true" memory usage will be greater.
------------------------------------------------------------

------------------------------------------------------------
          Begin self-consistency iteration #    5

  Date     :  20220517, Time     :  115700.969
------------------------------------------------------------
  Pulay mixing of updated and previous charge densities.
  Renormalizing the density to the exact electron count on the 3D integration grid.
  | Formal number of electrons (from input files) :     120.0000000000
  | Integrated number of electrons on 3D grid     :     120.0000000000
  | Charge integration error                      :      -0.0000000000
  | Normalization factor for density and gradient :       1.0000000000

  Evaluating partitioned Hartree potential by multipole expansion.
  | Original multipole sum: apparent total charge =  -0.611992E-13
  | Sum of charges compensated after spline to logarithmic grids =   0.116034E-03
  | Analytical far-field extrapolation by fixed multipoles:
  | Hartree multipole sum: apparent total charge =  -0.621339E-13
  Summing up the Hartree potential.
  Time summed over all CPUs for potential: real work        0.381 s, elapsed        0.391 s
  | RMS charge density error from multipole expansion :   0.192637E-01

  Integrating Hamiltonian matrix: batch-based integration.
  Time summed over all CPUs for integration: real work        0.664 s, elapsed        0.700 s

  Updating Kohn-Sham eigenvalues and eigenvectors using ELSI and the ELPA eigensolver.
  Starting ELPA eigensolver
  Finished transformation to standard eigenproblem
  | Time :     0.000 s
  Finished solving standard eigenproblem
  | Time :     0.003 s
  Finished back-transformation of eigenvectors
  | Time :     0.001 s

  Obtaining occupation numbers and chemical potential using ELSI.
  | Chemical potential (Fermi level):    -8.04834315 eV
  Highest occupied state (VBM) at     -9.38165247 eV
  | Occupation number:      2.00000000

  Lowest unoccupied state (CBM) at    -4.71994244 eV
  | Occupation number:      0.00000000

  Overall HOMO-LUMO gap:      4.66171003 eV.

  Total energy components:
  | Sum of eigenvalues            :        -886.34066271 Ha      -24118.55657112 eV
  | XC energy correction          :        -145.11472675 Ha       -3948.77262629 eV
  | XC potential correction       :         188.95472226 Ha        5141.71960052 eV
  | Free-atom electrostatic energy:        -781.42063709 Ha      -21263.53741219 eV
  | Hartree energy correction     :          -1.14928055 Ha         -31.27351499 eV
  | Entropy correction            :           0.00000000 Ha           0.00000000 eV
[...]
   Total forces(   7)            :  0.215199E+01  0.469674E+00  0.205364E+00
  atom #    8
   Hellmann-Feynman              :  0.997836E+00  0.223455E+00  0.371566E+00
   Ionic forces                  :  0.000000E+00  0.000000E+00  0.000000E+00
   Multipole                     :  0.297172E+00  0.714016E-01  0.389221E+00
   Hartree pot. SCF incomplete   :  0.537009E-06  0.134421E-06  0.684379E-06
   Pulay + GGA                   : -0.256263E+01 -0.584081E+00 -0.159235E+01
   ----------------------------------------------------------------
   Total forces(   8)            : -0.126762E+01 -0.289224E+00 -0.831564E+00
  atom #    9
   Hellmann-Feynman              :  0.254980E+00  0.292733E+01  0.979805E+00
   Ionic forces                  :  0.000000E+00  0.000000E+00  0.000000E+00
   Multipole                     :  0.995170E-01  0.684157E+00  0.190338E+00
   Hartree pot. SCF incomplete   : -0.470218E-06  0.615749E-06  0.601555E-06
   Pulay + GGA                   : -0.687790E+00 -0.638916E+01 -0.239505E+01
   ----------------------------------------------------------------
   Total forces(   9)            : -0.333294E+00 -0.277767E+01 -0.122491E+01
  atom #   10
   Hellmann-Feynman              :  0.143246E+01 -0.252263E+01  0.108456E+01
   Ionic forces                  :  0.000000E+00  0.000000E+00  0.000000E+00
   Multipole                     :  0.371410E+00 -0.574340E+00  0.214176E+00
   Hartree pot. SCF incomplete   : -0.181266E-06 -0.733227E-06  0.633174E-06
   Pulay + GGA                   : -0.324538E+01  0.544305E+01 -0.262088E+01
   ----------------------------------------------------------------
   Total forces(  10)            : -0.144150E+01  0.234608E+01 -0.132214E+01
  atom #   11
   Hellmann-Feynman              : -0.228923E+01 -0.444891E+00  0.259224E+01
   Ionic forces                  :  0.000000E+00  0.000000E+00  0.000000E+00
   Multipole                     : -0.369276E+00 -0.696169E-01  0.546237E+00
   Hartree pot. SCF incomplete   : -0.166348E-05 -0.352894E-06  0.462349E-06
   Pulay + GGA                   :  0.464331E+01  0.896478E+00 -0.560753E+01
   ----------------------------------------------------------------
   Total forces(  11)            :  0.198480E+01  0.381970E+00 -0.246906E+01
  atom #   12
   Hellmann-Feynman              :  0.190369E+01  0.361052E+00 -0.267371E+01
   Ionic forces                  :  0.000000E+00  0.000000E+00  0.000000E+00
   Multipole                     :  0.484720E+00  0.919668E-01 -0.663640E+00
   Hartree pot. SCF incomplete   : -0.486660E-06 -0.100444E-06  0.157564E-06
   Pulay + GGA                   : -0.455056E+01 -0.869363E+00  0.602397E+01
   ----------------------------------------------------------------
   Total forces(  12)            : -0.216214E+01 -0.416344E+00  0.268662E+01


  Self-consistency convergence accuracy:
  | Change of charge density      :  0.1047E-06
  | Change of sum of eigenvalues  : -0.5821E-05 eV
  | Change of total energy        :  0.2475E-10 eV
  | Change of forces              :  0.4018E-06 eV/A

  Writing Kohn-Sham eigenvalues.

  State    Occupation    Eigenvalue [Ha]    Eigenvalue [eV]
      1       2.00000         -55.669617        -1514.84735
      2       2.00000         -55.628123        -1513.71826
      3       2.00000         -55.597254        -1512.87826
      4       2.00000         -24.326411         -661.95532
      5       2.00000         -24.323426         -661.87410
      6       2.00000         -24.323425         -661.87406
      7       2.00000         -24.251176         -659.90808
      8       2.00000         -24.235462         -659.48049
      9       2.00000         -24.206273         -658.68621
     10       2.00000         -24.204202         -658.62985
     11       2.00000         -24.196313         -658.41517
     12       2.00000         -24.196310         -658.41509
     13       2.00000          -4.122366         -112.17529
     14       2.00000          -4.079938         -111.02078
     15       2.00000          -4.051334         -110.24241
     16       2.00000          -2.715360          -73.88869
     17       2.00000          -2.714473          -73.86457
     18       2.00000          -2.711872          -73.79378
     19       2.00000          -2.674084          -72.76554
     20       2.00000          -2.672027          -72.70956
     21       2.00000          -2.668214          -72.60581
     22       2.00000          -2.646024          -72.00198
     23       2.00000          -2.642263          -71.89963
     24       2.00000          -2.640342          -71.84737
     25       2.00000          -1.202203          -32.71362
     26       2.00000          -1.195691          -32.53642
     27       2.00000          -1.183591          -32.20716
     28       2.00000          -1.105738          -30.08866
     29       2.00000          -1.082527          -29.45705
     30       2.00000          -1.054955          -28.70678
     31       2.00000          -1.050439          -28.58389
     32       2.00000          -1.046311          -28.47157
     33       2.00000          -1.042734          -28.37424
     34       2.00000          -0.582373          -15.84718
     35       2.00000          -0.564769          -15.36815
     36       2.00000          -0.553636          -15.06521
     37       2.00000          -0.535139          -14.56188
     38       2.00000          -0.525064          -14.28772
     39       2.00000          -0.500249          -13.61248
     40       2.00000          -0.496576          -13.51251
     41       2.00000          -0.490477          -13.34654
     42       2.00000          -0.476758          -12.97325
     43       2.00000          -0.467341          -12.71698
     44       2.00000          -0.442233          -12.03378
     45       2.00000          -0.427421          -11.63072
     46       2.00000          -0.416480          -11.33300
     47       2.00000          -0.410756          -11.17725
     48       2.00000          -0.410170          -11.16128
     49       2.00000          -0.399405          -10.86837
     50       2.00000          -0.389549          -10.60018
     51       2.00000          -0.387492          -10.54421
     52       2.00000          -0.386872          -10.52733
     53       2.00000          -0.363839           -9.90055
     54       2.00000          -0.362816           -9.87272
     55       2.00000          -0.356961           -9.71340
     56       2.00000          -0.356209           -9.69294
     57       2.00000          -0.354416           -9.64415
     58       2.00000          -0.348181           -9.47448
     59       2.00000          -0.345965           -9.41420
     60       2.00000          -0.343871           -9.35721
     61       0.00000          -0.173454           -4.71992
     62       0.00000          -0.102595           -2.79175
     63       0.00000          -0.089752           -2.44227
     64       0.00000          -0.067763           -1.84393
     65       0.00000          -0.037872           -1.03054
     66       0.00000          -0.027642           -0.75218
     67       0.00000          -0.009956           -0.27092
     68       0.00000           0.017144            0.46652
     69       0.00000           0.030008            0.81655
     70       0.00000           0.038475            1.04694
     71       0.00000           0.049874            1.35714
     72       0.00000           0.080294            2.18491
     73       0.00000           0.126971            3.45504
     74       0.00000           0.148558            4.04247
     75       0.00000           0.150469            4.09446
     76       0.00000           0.160443            4.36589
     77       0.00000           0.176058            4.79079
     78       0.00000           0.180740            4.91818
     79       0.00000           0.185740            5.05424
     80       0.00000           0.196622            5.35035
     81       0.00000           0.199490            5.42839
     82       0.00000           0.206083            5.60780
     83       0.00000           0.212118            5.77203
     84       0.00000           0.219601            5.97564
     85       0.00000           0.223776            6.08925
     86       0.00000           0.226299            6.15791
     87       0.00000           0.246410            6.70517
     88       0.00000           0.257675            7.01170
     89       0.00000           0.269036            7.32083
     90       0.00000           0.286288            7.79030
     91       0.00000           0.300399            8.17427
     92       0.00000           0.316710            8.61811
     93       0.00000           0.327698            8.91711
     94       0.00000           0.344082            9.36296
     95       0.00000           0.358204            9.74724
     96       0.00000           0.360900            9.82058

  Highest occupied state (VBM) at     -9.35721441 eV
  | Occupation number:      2.00000000

  Lowest unoccupied state (CBM) at    -4.71992282 eV
  | Occupation number:      0.00000000

  Overall HOMO-LUMO gap:      4.63729160 eV.
  | Chemical Potential                          :    -8.04662011 eV

  Self-consistency cycle converged.


------------------------------------------------------------
  End self-consistency iteration #    14       :  max(cpu_time)    wall_clock(cpu1)
  | Time for this iteration                     :        0.272 s           0.270 s
  | Charge density & force component update     :        0.148 s           0.147 s
  | Density mixing                              :        0.005 s           0.003 s
  | Hartree multipole update                    :        0.001 s           0.001 s
  | Hartree multipole summation                 :        0.050 s           0.050 s
  | Hartree pot. SCF incomplete forces          :        0.032 s           0.032 s
  | Integration                                 :        0.031 s           0.030 s
  | Solution of K.-S. eqns.                     :        0.005 s           0.005 s
  | Total energy evaluation                     :        0.000 s           0.000 s

  Partial memory accounting:
  | Current value for overall tracked memory usage:
  |   Minimum:        0.274 MB (on task 23)
  |   Maximum:        0.293 MB (on task  0)
  |   Average:        0.289 MB
  | Peak value for overall tracked memory usage:
  |   Minimum:        2.952 MB (on task  8 after allocating hessian_basis_wave)
  |   Maximum:        3.178 MB (on task  9 after allocating hessian_basis_wave)
  |   Average:        3.044 MB
  | Largest tracked array allocation so far:
  |   Minimum:        1.432 MB (hessian_basis_wave on task  8)
  |   Maximum:        1.568 MB (hessian_basis_wave on task  9)
  |   Average:        1.490 MB
  Note:  These values currently only include a subset of arrays which are explicitly tracked.
  The "true" memory usage will be greater.
------------------------------------------------------------
  Removing unitary transformations (pure translations, rotations) from forces on atoms.
  Atomic forces before filtering:
  | Net force on center of mass :  -0.141461E-02  0.416542E-02 -0.258143E-02 eV/A
  | Net torque on center of mass:  -0.172224E-04 -0.920721E-02 -0.188594E-02 eV
  Atomic forces after filtering:
  | Net force on center of mass :  -0.713624E-15  0.713624E-15  0.356812E-15 eV/A
  | Net torque on center of mass:   0.000000E+00  0.151054E-14 -0.188817E-15 eV

  Energy and forces in a compact form:
  | Total energy uncorrected      :         -0.442204202846487E+05 eV
  | Total energy corrected        :         -0.442204202846487E+05 eV  <-- do not rely on this value for anything but (periodic) metals
  | Electronic free energy        :         -0.442204202846487E+05 eV
  Total atomic forces (unitary forces cleaned) [eV/Ang]:
  |    1          0.179522246943723E+01          0.349035557643714E+00         -0.203253569344907E+01
  |    2          0.432557064791740E+00          0.133839803841360E+00          0.211315210451718E+01
  |    3         -0.311537952779024E+01         -0.677114280504777E+00         -0.222516118942223E+00
  |    4          0.103404265568344E+01          0.281538456006402E+00          0.301459496135572E+01
  |    5          0.775953093723919E-02          0.219690504892635E+01          0.133857831491172E-02
  |    6          0.912229941415938E+00         -0.199664738372476E+01          0.807268752753151E-01
  |    7          0.215227952737579E+01          0.469243822873639E+00          0.205674108738941E+00
  |    8         -0.126746230814794E+01         -0.289462221145565E+00         -0.831590971878534E+00
  |    9         -0.332926841591109E+00         -0.277803576767531E+01         -0.122477014285321E+01
  |   10         -0.144092718194812E+01          0.234576078785734E+01         -0.132218376910566E+01
  |   11          0.198498312543483E+01          0.381423743430522E+00         -0.246846062409009E+01
  |   12         -0.216237845559881E+01         -0.416487567528907E+00          0.268657069211673E+01

  ------------------------------------ 
  Start decomposition of the XC Energy 
  ------------------------------------ 
  X and C from original XC functional choice 
  Hartree-Fock Energy :          0.000000000 Ha              0.000000000 eV
  X Energy            :       -140.177995520 Ha          -3814.437334536 eV
  C Energy            :         -4.940860504 Ha           -134.447654938 eV
  Total XC Energy     :       -145.118856024 Ha          -3948.884989473 eV
  ------------------------------------ 
  LDA X and C from self-consistent density 
  X Energy LDA        :       -132.751080474 Ha          -3612.340693570 eV
  C Energy LDA        :         -8.823156101 Ha           -240.090293164 eV
  ------------------------------------ 
  End decomposition of the XC Energy 
  ------------------------------------ 

------------------------------------------------------------

------------------------------------------------------------------------------
  Final output of selected total energy values:

  The following output summarizes some interesting total energy values
  at the end of a run (AFTER all relaxation, molecular dynamics, etc.).

  | Total energy of the DFT / Hartree-Fock s.c.f. calculation      :         -44220.420284649 eV
  | Final zero-broadening corrected energy (caution - metals only) :         -44220.420284649 eV
  | For reference only, the value of 1 Hartree used in FHI-aims is :             27.211384500 eV

  Before relying on these values, please be sure to understand exactly which
  total energy value is referred to by a given number. Different objects may
  all carry the same name 'total energy'. Definitions:

  Total energy of the DFT / Hartree-Fock s.c.f. calculation:
  | Note that this energy does not include ANY quantities calculated after the
  | s.c.f. cycle, in particular not ANY RPA, MP2, etc. many-body perturbation terms.

  Final zero-broadening corrected energy:
  | For metallic systems only, a broadening of the occupation numbers at the Fermi
  | level can be extrapolated back to zero broadening by an electron-gas inspired
  | formula. For all systems that are not real metals, this value can be
  | meaningless and should be avoided.

------------------------------------------------------------------------------
  Methods described in the following list of references were used in this FHI-aims run.
  If you publish the results, please make sure to cite these reference if they apply.
  FHI-aims is an academic code, and for our developers (often, Ph.D. students
  and postdocs), scientific credit in the community is essential.
  Thank you for helping us!

  For any use of FHI-aims, please cite:

    Volker Blum, Ralf Gehrke, Felix Hanke, Paula Havu, Ville Havu,
    Xinguo Ren, Karsten Reuter, and Matthias Scheffler
    'Ab initio molecular simulations with numeric atom-centered orbitals'
    Computer Physics Communications 180, 2175-2196 (2009)
    http://dx.doi.org/10.1016/j.cpc.2009.06.022


  The ELSI infrastructure was used in your run to solve the Kohn-Sham electronic structure.
  Please check out http://elsi-interchange.org to learn more.
  If scalability is important for your project, please acknowledge ELSI by citing:

    V. W-z. Yu, F. Corsetti, A. Garcia, W. P. Huhn, M. Jacquelin, W. Jia,
    B. Lange, L. Lin, J. Lu, W. Mi, A. Seifitokaldani, A. Vazquez-Mayagoitia,
    C. Yang, H. Yang, and V. Blum
    'ELSI: A unified software interface for Kohn-Sham electronic structure solvers'
    Computer Physics Communications 222, 267-285 (2018).
    http://dx.doi.org/10.1016/j.cpc.2017.09.007


  For the real-space grid partitioning and parallelization used in this calculation, please cite:

    Ville Havu, Volker Blum, Paula Havu, and Matthias Scheffler,
    'Efficient O(N) integration for all-electron electronic structure calculation'
    'using numerically tabulated basis functions'
    Journal of Computational Physics 228, 8367-8379 (2009).
    http://dx.doi.org/10.1016/j.jcp.2009.08.008

  Of course, there are many other important community references, e.g., those cited in the
  above references. Our list is limited to references that describe implementations in the
  FHI-aims code. The reason is purely practical (length of this list) - please credit others as well.

------------------------------------------------------------
          Leaving FHI-aims.
          Date     :  20220517, Time     :  115702.420

          Computational steps:
          | Number of self-consistency cycles          :           14
          | Number of SCF (re)initializations          :            1

          Detailed time accounting                     :  max(cpu_time)    wall_clock(cpu1)
          | Total time                                  :        2.193 s           2.274 s
          | Preparation time                            :        0.184 s           0.184 s
          | Boundary condition initalization            :        0.000 s           0.000 s
          | Grid partitioning                           :        0.042 s           0.042 s
          | Preloading free-atom quantities on grid     :        0.016 s           0.016 s
          | Free-atom superposition energy              :        0.005 s           0.005 s
          | Total time for integrations                 :        0.492 s           0.492 s
          | Total time for solution of K.-S. equations  :        0.227 s           0.229 s
          | Total time for density & force components   :        0.660 s           0.658 s
          | Total time for mixing                       :        0.086 s           0.044 s
          | Total time for Hartree multipole update     :        0.034 s           0.036 s
          | Total time for Hartree multipole sum        :        0.313 s           0.312 s
          | Total time for total energy evaluation      :        0.002 s           0.006 s
          | Total time NSC force correction             :        0.064 s           0.064 s
          | Total time for scaled ZORA corrections      :        0.000 s           0.000 s

          Partial memory accounting:
          | Residual value for overall tracked memory usage across tasks:     0.000000 MB (should be 0.000000 MB)
          | Peak values for overall tracked memory usage:
          |   Minimum:        2.952 MB (on task  8 after allocating hessian_basis_wave)
          |   Maximum:        3.178 MB (on task  9 after allocating hessian_basis_wave)
          |   Average:        3.044 MB
          | Largest tracked array allocation:
          |   Minimum:        1.432 MB (hessian_basis_wave on task  8)
          |   Maximum:        1.568 MB (hessian_basis_wave on task  9)
          |   Average:        1.490 MB
          Note:  These values currently only include a subset of arrays which are explicitly tracked.
          The "true" memory usage will be greater.

          Have a nice day.
------------------------------------------------------------
