********************************************************************************
*                       GENERAL UTILITY LATTICE PROGRAM                        *
*                                 Julian Gale                                  *
*                       Curtin Institute for Computation                       *
*                           Department of Chemistry                            *
*                    Curtin University, Western Australia                      *
********************************************************************************
* Version = 5.1.1 * Last modified =  24th November 2018                        *
********************************************************************************
*  optimise     - perform optimisation run                                     *
*  conp         - constant pressure calculation                                *
*  shell        - only shells and radii to be optimised                        *
*  phonon       - calculate phonons for final geometry                         *
*  eigenvectors - output phonon eigenvectors                                   *
********************************************************************************

  Job Started  at 14:39.50 25th May        2022                               

  Number of CPUs =     1

  Host name      = login03                                 


  Total number of configurations input =      1

********************************************************************************
*  Input for Configuration =   1                                               *
********************************************************************************

  Formula = Al3F9                                                       

  Number of irreducible atoms/shells =      21


  Total number atoms/shells =      21

  Dimensionality = 0               :  Cluster


  Charge on cluster =  -0.000000


  Initial cluster dipoles : x =      0.878950 e.Angs
                            y =      0.405680 e.Angs
                            z =     -0.155594 e.Angs

  Temperature of configuration =  0.000     K 

  Symmetry number =      1

  Cartesian coordinates of cluster :

--------------------------------------------------------------------------------
   No.  Atomic       x           y          z         Charge      Occupancy
        Label      (Angs)      (Angs)     (Angs)        (e)         (Frac)  
--------------------------------------------------------------------------------
      1 Al    c     -0.1700      1.7255      2.0784     3.00000    1.000000    
      2 Al    c      2.5004      2.7371      1.9272     3.00000    1.000000    
      3 Al    c      1.4999      2.4787     -0.5987     3.00000    1.000000    
      4 F     c      0.8961      3.1121      2.9698     0.59000    1.000000    
      5 F     c     -1.7943      2.5635      2.1152     0.59000    1.000000    
      6 F     c     -0.3383     -0.0047      2.7006     0.59000    1.000000    
      7 F     c      1.7552      1.0041      1.8277     0.59000    1.000000    
      8 F     c      3.0935      1.7975     -0.0183     0.59000    1.000000    
      9 F     c      1.0040      3.0662     -2.2775     0.59000    1.000000    
     10 F     c      1.7651      3.9192      0.6680     0.59000    1.000000    
     11 F     c      4.3378      3.0296      2.1938     0.59000    1.000000    
     12 F     c     -0.1074      1.9308      0.1971     0.59000    1.000000    
     13 F     s      0.8961 *    3.1121 *    2.9698 *  -1.59000    1.000000    
     14 F     s     -1.7943 *    2.5635 *    2.1152 *  -1.59000    1.000000    
     15 F     s     -0.3383 *   -0.0047 *    2.7006 *  -1.59000    1.000000    
     16 F     s      1.7552 *    1.0041 *    1.8277 *  -1.59000    1.000000    
     17 F     s      3.0935 *    1.7975 *   -0.0183 *  -1.59000    1.000000    
     18 F     s      1.0040 *    3.0662 *   -2.2775 *  -1.59000    1.000000    
     19 F     s      1.7651 *    3.9192 *    0.6680 *  -1.59000    1.000000    
     20 F     s      4.3378 *    3.0296 *    2.1938 *  -1.59000    1.000000    
     21 F     s     -0.1074 *    1.9308 *    0.1971 *  -1.59000    1.000000    
--------------------------------------------------------------------------------


  Brillouin zone sampling points :

--------------------------------------------------------------------------------
  Point number          x          y          z            Weight
--------------------------------------------------------------------------------
        1           0.000000   0.000000   0.000000     1.00000000
--------------------------------------------------------------------------------


********************************************************************************
*  General input information                                                   *
********************************************************************************

  Species output for all configurations : 

--------------------------------------------------------------------------------
  Species    Type    Atomic    Atomic    Charge       Radii (Angs)     Library
                     Number     Mass       (e)     Cova   Ionic  VDW   Symbol
--------------------------------------------------------------------------------
    Al       Core       13      26.98   3.000000   1.350  0.000  2.050          
    F        Core        9      19.00   0.590000   0.710  0.000  1.300          
    F        Shell       9       0.00  -1.590000   0.710  0.000  1.300          
--------------------------------------------------------------------------------


  Accuracy factor for short range sums = 12.000

  Time limit = Infinity

  Maximum range for interatomic potentials =    100000.000000 Angstroms

  General interatomic potentials :

--------------------------------------------------------------------------------
Atom  Types   Potential      Parameter       Value         Units   Cutoffs(Ang)
  1     2                                                            Min /  Max 
--------------------------------------------------------------------------------
Al   c F    s Buckingham    Buckingham A     3760.0008    eV        0.000 10.000
                            Buckingham rho  0.22200000    Ang       
                            Buckingham C     0.0000000    eV*Ang^6  
--------------------------------------------------------------------------------
F    s F    s Buck 4 range  Buck4 A          1127.7000    eV        0.000 12.000
                            Buck4 rho       0.27530000    Ang       
                            Buck4 C          15.830000    eV*Ang^6  
                            Buck4 minimum    2.7900000    Ang       
--------------------------------------------------------------------------------
F    c F    s Spring (c-s)  Spring k 2       20.770000    eV*Ang^-2 0.000  0.800
                            Spring k 4       0.0000000    eV*Ang^-4 
--------------------------------------------------------------------------------

********************************************************************************
*  Output for configuration   1                                                *
********************************************************************************


  Components of energy : 

--------------------------------------------------------------------------------
  Interatomic potentials     =           9.86196595 eV    
  Monopole - monopole (real) =        -176.85887407 eV    
--------------------------------------------------------------------------------
  Total lattice energy       =        -166.99690812 eV    
--------------------------------------------------------------------------------
  Total lattice energy       =          -16112.6489 kJ/mol
--------------------------------------------------------------------------------


  Number of variables =       27

  Maximum number of calculations  =          2000
  Maximum Hessian update interval =            10
  Maximum step size               =   1.000000000
  Maximum parameter tolerance     =   0.000001000
  Maximum function  tolerance     =   0.000010000
  Maximum gradient  tolerance     =   0.000000010
  Maximum gradient  component     =   0.010000000

  Symmetry not applied to optimisation

  Newton-Raphson optimiser to be used

  BFGS hessian update to be used

  Lower half triangular hessian to be used

  Minimiser to switch to RFO
  When gradient norm is less than     0.010000

  Shell only optimisation

  Start of cluster optimisation :

  Cycle:      0 Energy:      -166.996908  Gnorm:      1.485568  CPU:    0.004
  ** Hessian calculated **
  Cycle:      1 Energy:      -184.144619  Gnorm:      0.530198  CPU:    0.006
  ** Hessian calculated **
  Cycle:      2 Energy:      -185.881898  Gnorm:      0.046962  CPU:    0.008
  Cycle:      3 Energy:      -185.893447  Gnorm:      0.010368  CPU:    0.009
  Cycle:      4 Energy:      -185.894090  Gnorm:      0.000741  CPU:    0.010
  ** Hessian has required structure
  Cycle:      5 Energy:      -185.894093  Gnorm:      0.000180  CPU:    0.012
  ** Hessian has required structure
  Cycle:      6 Energy:      -185.894093  Gnorm:      0.000096  CPU:    0.014
  ** Hessian has required structure
  Cycle:      7 Energy:      -185.894093  Gnorm:      0.000058  CPU:    0.015
  ** Hessian has required structure
  Cycle:      8 Energy:      -185.894093  Gnorm:      0.000053  CPU:    0.017
  ** Hessian has required structure
  Cycle:      9 Energy:      -185.894093  Gnorm:      0.000050  CPU:    0.018
  ** Hessian has required structure
  Cycle:     10 Energy:      -185.894093  Gnorm:      0.000049  CPU:    0.020
  ** Hessian has required structure
  Cycle:     11 Energy:      -185.894093  Gnorm:      0.000049  CPU:    0.021
  ** Hessian has required structure
  Cycle:     12 Energy:      -185.894093  Gnorm:      0.000000  CPU:    0.023
  ** Hessian has required structure
  Cycle:     13 Energy:      -185.894093  Gnorm:      0.000000  CPU:    0.025
  ** Hessian has required structure
  Cycle:     14 Energy:      -185.894093  Gnorm:      0.000000  CPU:    0.026
  ** Hessian has required structure
  Cycle:     15 Energy:      -185.894093  Gnorm:      0.000000  CPU:    0.028
  ** Hessian calculated **
  Cycle:     16 Energy:      -185.894093  Gnorm:      0.000000  CPU:    0.030
  ** Hessian has required structure
  Cycle:     17 Energy:      -185.894093  Gnorm:      0.000000  CPU:    0.031
  ** Hessian has required structure
  Cycle:     18 Energy:      -185.894093  Gnorm:      0.000000  CPU:    0.033
  ** Hessian calculated **

  XYZ File written as 004/2/sp_mod_70/sp_mod_70_eig.xyz



  **** Optimisation achieved ****


  Final energy =    -185.89409341 eV
  Final Gnorm  =       0.00000009

  Components of energy : 

--------------------------------------------------------------------------------
  Interatomic potentials     =          37.47001445 eV    
  Monopole - monopole (real) =        -223.36410786 eV    
--------------------------------------------------------------------------------
  Total lattice energy       =        -185.89409341 eV    
--------------------------------------------------------------------------------
  Total lattice energy       =          -17935.9384 kJ/mol
--------------------------------------------------------------------------------

  Final cartesian coordinates of atoms :

--------------------------------------------------------------------------------
   No.  Atomic        x           y          z          Radius
        Label       (Angs)      (Angs)     (Angs)       (Angs) 
--------------------------------------------------------------------------------
     1  Al    c    -0.170020    1.725481    2.078392    0.000000
     2  Al    c     2.500379    2.737122    1.927212    0.000000
     3  Al    c     1.499868    2.478743   -0.598654    0.000000
     4  F     c     0.896143    3.112104    2.969837    0.000000
     5  F     c    -1.794349    2.563507    2.115163    0.000000
     6  F     c    -0.338339   -0.004651    2.700584    0.000000
     7  F     c     1.755155    1.004088    1.827749    0.000000
     8  F     c     3.093546    1.797545   -0.018273    0.000000
     9  F     c     1.004039    3.066154   -2.277505    0.000000
    10  F     c     1.765114    3.919227    0.667971    0.000000
    11  F     c     4.337801    3.029626    2.193846    0.000000
    12  F     c    -0.107379    1.930761    0.197074    0.000000
    13  F     s     0.973920    2.951259    2.778581    0.000000
    14  F     s    -1.545507    2.464305    2.112831    0.000000
    15  F     s    -0.322325    0.259125    2.609286    0.000000
    16  F     s     1.737718    1.286782    1.842198    0.000000
    17  F     s     2.863029    1.913922   -0.051103    0.000000
    18  F     s     1.100832    2.958643   -2.001421    0.000000
    19  F     s     1.818758    3.646748    0.664963    0.000000
    20  F     s     4.002757    2.994785    2.182740    0.000000
    21  F     s     0.135462    1.963762    0.284385    0.000000
--------------------------------------------------------------------------------


  Final Cartesian derivatives :

--------------------------------------------------------------------------------
   No.  Atomic          x             y             z           Radius
        Label       (eV/Angs)     (eV/Angs)    (eV/Angs)      (eV/Angs)
--------------------------------------------------------------------------------
      1 Al    c       0.000000      0.000000      0.000000      0.000000
      2 Al    c       0.000000      0.000000      0.000000      0.000000
      3 Al    c       0.000000      0.000000      0.000000      0.000000
      4 F     c       0.000000      0.000000      0.000000      0.000000
      5 F     c       0.000000      0.000000      0.000000      0.000000
      6 F     c       0.000000      0.000000      0.000000      0.000000
      7 F     c       0.000000      0.000000      0.000000      0.000000
      8 F     c       0.000000      0.000000      0.000000      0.000000
      9 F     c       0.000000      0.000000      0.000000      0.000000
     10 F     c       0.000000      0.000000      0.000000      0.000000
     11 F     c       0.000000      0.000000      0.000000      0.000000
     12 F     c       0.000000      0.000000      0.000000      0.000000
     13 F     s       0.000001     -0.000001     -0.000001      0.000000
     14 F     s      -0.000000      0.000000     -0.000000      0.000000
     15 F     s      -0.000000     -0.000000      0.000000      0.000000
     16 F     s       0.000000      0.000002      0.000000      0.000000
     17 F     s      -0.000000      0.000000     -0.000000      0.000000
     18 F     s      -0.000000      0.000000     -0.000000      0.000000
     19 F     s       0.000000     -0.000000      0.000000      0.000000
     20 F     s       0.000000      0.000000      0.000000      0.000000
     21 F     s      -0.000000      0.000000     -0.000000      0.000000
--------------------------------------------------------------------------------
  Maximum abs         0.000001      0.000002      0.000001      0.000000
--------------------------------------------------------------------------------


  Born effective charge tensors : 

-------------------------------------------------------------------------------
  Atom             x           y             z
-------------------------------------------------------------------------------
    1 Al    x       1.4288      0.2659     -0.0700
            y       0.2206      0.7892      0.1603
            z      -0.1390      0.1772      1.4170
-------------------------------------------------------------------------------
    2 Al    x       0.7727     -0.2446     -0.2216
            y      -0.1751      0.9666      0.2598
            z      -0.1439      0.2874      1.7582
-------------------------------------------------------------------------------
    3 Al    x       0.8562      0.2080     -0.2007
            y       0.2098      1.2469      0.1202
            z      -0.2239      0.1232      0.9685
-------------------------------------------------------------------------------
    4 F     x      -0.4735     -0.0245      0.0369
            y      -0.1610     -0.3745     -0.0525
            z      -0.0292     -0.0445     -0.3759
-------------------------------------------------------------------------------
    5 F     x      -0.1666     -0.2426      0.0127
            y      -0.2333     -0.3998      0.0002
            z       0.0048      0.0099     -0.5545
-------------------------------------------------------------------------------
    6 F     x      -0.5639      0.0223     -0.0014
            y       0.0363     -0.0819     -0.1542
            z       0.0373     -0.1542     -0.4748
-------------------------------------------------------------------------------
    7 F     x      -0.6139      0.1567      0.0127
            y       0.2412     -0.1985      0.0489
            z       0.0328     -0.0002     -0.5165
-------------------------------------------------------------------------------
    8 F     x      -0.1166     -0.0996      0.2866
            y      -0.1119     -0.3874     -0.2189
            z       0.1495     -0.1658     -0.7660
-------------------------------------------------------------------------------
    9 F     x      -0.4727     -0.0537      0.1277
            y      -0.0743     -0.4774     -0.1570
            z       0.1754     -0.1600     -0.0679
-------------------------------------------------------------------------------
   10 F     x      -0.3230     -0.0465      0.0155
            y      -0.0332     -0.2860     -0.0359
            z       0.0589     -0.0836     -0.3324
-------------------------------------------------------------------------------
   11 F     x      -0.0074      0.0821      0.0727
            y       0.0940     -0.4986     -0.0172
            z       0.1031      0.0046     -0.5541
-------------------------------------------------------------------------------
   12 F     x      -0.3203     -0.0235     -0.0710
            y      -0.0131     -0.2986      0.0463
            z      -0.0257      0.0061     -0.5015
-------------------------------------------------------------------------------




  Moment of inertia tensor (10^-46 x kgm^2): 

-------------------------------------------------------------------------------
                x           y           z           Principal axis system
-------------------------------------------------------------------------------
       x        130.95      -20.13       12.18          114.727968
       y        -20.13      193.40       16.23          149.838701
       z         12.18       16.23      142.15          201.935952
-------------------------------------------------------------------------------
  Centre of mass (Ang) =     1.210457     2.283188     1.147384
-------------------------------------------------------------------------------


  Vibrational Frequency Calculation : 

--------------------------------------------------------------------------------

  Frequencies (cm-1) and Eigenvectors : 

  Frequency     -36.3116   -0.0000   -0.0000    0.0000   20.2350   33.7952
  IR Intensity    0.0048    0.0000    0.0000    0.0000    0.0010    0.0030
     in X         0.0001    0.0000    0.0000    0.0000    0.0001    0.0003
     in Y         0.0003    0.0000    0.0000    0.0000    0.0004    0.0006
     in Z         0.0044    0.0000    0.0000    0.0000    0.0005    0.0020
  Raman Intsty    0.9028    0.0000    0.0000    0.0000    0.0289    0.1495

     1 x       0.083251  0.100743 -0.306865 -0.052666  0.149418 -0.045276
     1 y      -0.130928 -0.308146 -0.106191  0.029295  0.019480  0.244905
     1 z       0.040106 -0.044561  0.040574 -0.321647  0.192020  0.102696
     2 x       0.110097  0.100743 -0.306865 -0.052666  0.063719  0.144477
     2 y      -0.231515 -0.308146 -0.106191  0.029295  0.162679 -0.265855
     2 z      -0.163490 -0.044561  0.040574 -0.321647 -0.196831 -0.138300
     3 x      -0.186463  0.100743 -0.306865 -0.052666 -0.222722 -0.073609
     3 y       0.337583 -0.308146 -0.106191  0.029295 -0.207721 -0.013887
     3 z       0.023778 -0.044561  0.040574 -0.321647 -0.028895 -0.030931
     4 x       0.201922  0.084541 -0.257515 -0.044197  0.167905  0.204044
     4 y      -0.293104 -0.258591 -0.089114  0.024584  0.076344  0.079998
     4 z       0.108272 -0.037395  0.034049 -0.269920  0.028781 -0.066757
     5 x       0.081946  0.084541 -0.257515 -0.044197  0.115153  0.072720
     5 y      -0.092260 -0.258591 -0.089114  0.024584 -0.007258  0.418007
     5 z       0.186014 -0.037395  0.034049 -0.269920  0.225917  0.083960
     6 x       0.079630  0.084541 -0.257515 -0.044197  0.241110 -0.247928
     6 y      -0.128957 -0.258591 -0.089114  0.024584  0.068852  0.257527
     6 z      -0.016573 -0.037395  0.034049 -0.269920  0.338935  0.165749
     7 x      -0.008088  0.084541 -0.257515 -0.044197  0.098115 -0.126195
     7 y      -0.151740 -0.258591 -0.089114  0.024584  0.101011 -0.122267
     7 z      -0.288775 -0.037395  0.034049 -0.269920 -0.066590  0.076146
     8 x      -0.077517  0.084541 -0.257515 -0.044197 -0.026842 -0.186693
     8 y       0.318706 -0.258591 -0.089114  0.024584  0.104416 -0.315927
     8 z      -0.102511 -0.037395  0.034049 -0.269920 -0.128192 -0.020907
     9 x      -0.145763  0.084541 -0.257515 -0.044197 -0.289479 -0.053640
     9 y       0.334238 -0.258591 -0.089114  0.024584 -0.309346 -0.020074
     9 z       0.035987 -0.037395  0.034049 -0.269920 -0.041626 -0.030354
    10 x      -0.123277  0.084541 -0.257515 -0.044197 -0.232775  0.219723
    10 y       0.108950 -0.258591 -0.089114  0.024584 -0.031908 -0.065080
    10 z       0.232097 -0.037395  0.034049 -0.269920 -0.160921 -0.041193
    11 x       0.082420  0.084541 -0.257515 -0.044197  0.053936  0.148003
    11 y      -0.204102 -0.258591 -0.089114  0.024584  0.222399 -0.328941
    11 z      -0.058692 -0.037395  0.034049 -0.269920 -0.265647 -0.162984
    12 x      -0.099478  0.084541 -0.257515 -0.044197 -0.115700 -0.060530
    12 y       0.137891 -0.258591 -0.089114  0.024584 -0.194050  0.138270
    12 z       0.022875 -0.037395  0.034049 -0.269920  0.109508  0.075626


  Frequency      63.2705   77.7760   78.9132  107.7438  131.0899  164.1920
  IR Intensity    0.0109    0.0133    0.0279    0.0023    0.0052    0.0104
     in X         0.0003    0.0004    0.0042    0.0000    0.0003    0.0037
     in Y         0.0062    0.0000    0.0008    0.0006    0.0049    0.0029
     in Z         0.0044    0.0129    0.0229    0.0017    0.0000    0.0038
  Raman Intsty    0.8468    0.6171    2.7733    0.2237    0.1098    0.1324

     1 x      -0.050190  0.026454 -0.103830 -0.018277  0.230170 -0.188544
     1 y       0.091029 -0.082684  0.063100 -0.031851 -0.231867  0.124922
     1 z      -0.055676  0.080099 -0.086185  0.030925  0.004433  0.023720
     2 x       0.015258  0.021626 -0.066177 -0.054825 -0.194918  0.072372
     2 y      -0.129361 -0.107469  0.067820  0.013986  0.184712 -0.147799
     2 z      -0.089735 -0.178489  0.269308 -0.085106  0.057145 -0.010571
     3 x       0.048936 -0.033016  0.080537  0.030175 -0.026856  0.020720
     3 y      -0.069653  0.208764 -0.120111  0.038104 -0.049118 -0.096397
     3 z       0.048770 -0.075829  0.006154  0.000655 -0.090474  0.074619
     4 x       0.093275 -0.081804 -0.100465 -0.024675  0.066325  0.013021
     4 y      -0.167481  0.098245 -0.116789  0.067940  0.087953 -0.244787
     4 z       0.099609 -0.262379  0.161721 -0.074928  0.235677  0.077987
     5 x       0.041702 -0.124502 -0.130824 -0.150055  0.349995 -0.265243
     5 y       0.248871 -0.322353 -0.024867 -0.295283  0.065847 -0.074477
     5 z      -0.320619 -0.372421 -0.190520  0.214747  0.072045  0.122358
     6 x      -0.164614  0.111430  0.172338  0.176369 -0.053563  0.029594
     6 y       0.206905  0.082165  0.201326  0.003529 -0.122701  0.090955
     6 z       0.266989  0.520434  0.392481  0.196120  0.195301 -0.003178
     7 x      -0.125863  0.056755  0.016805 -0.187040 -0.262985  0.066846
     7 y      -0.066331 -0.113563  0.083167  0.063556  0.143746 -0.108268
     7 z      -0.212916  0.276998 -0.331013 -0.247707 -0.136791 -0.034592
     8 x       0.187453 -0.166120  0.180985 -0.014724 -0.180390  0.002119
     8 y       0.357841 -0.016553 -0.114460  0.006278 -0.261038 -0.181360
     8 z       0.216124  0.152540 -0.460931  0.114460  0.080668 -0.028856
     9 x       0.285278  0.026620 -0.175980  0.260129  0.361304  0.426929
     9 y      -0.242271  0.248740  0.189136 -0.368514  0.342928  0.154943
     9 z      -0.091430 -0.052914  0.172017 -0.205120 -0.055155  0.038804
    10 x      -0.287358  0.022154  0.170668  0.189281 -0.103479 -0.096087
    10 y      -0.025701  0.098738 -0.124441  0.135360 -0.010050 -0.126386
    10 z       0.121565 -0.005823  0.005710 -0.112271 -0.121970  0.098346
    11 x      -0.040688 -0.006318 -0.003707 -0.056972 -0.118837  0.033124
    11 y      -0.011537  0.009556 -0.147376 -0.143021 -0.040389  0.488857
    11 z       0.165011 -0.075906  0.070815  0.148300 -0.088716 -0.417494
    12 x      -0.005872  0.143834 -0.023205 -0.141159 -0.068374 -0.096557
    12 y      -0.171618 -0.107152  0.041423  0.506038 -0.091575  0.142655
    12 z      -0.129172  0.027078 -0.045829  0.030183 -0.146624  0.042038


  Frequency     176.1158  185.8523  203.6147  213.0110  235.2829  247.6777
  IR Intensity    0.0028    0.0508    0.0095    0.0170    0.0027    0.0407
     in X         0.0010    0.0006    0.0067    0.0089    0.0001    0.0013
     in Y         0.0009    0.0230    0.0024    0.0076    0.0011    0.0148
     in Z         0.0009    0.0272    0.0004    0.0005    0.0016    0.0246
  Raman Intsty    0.0061    0.1896    0.3106    0.1555    0.0354    0.1743

     1 x      -0.096798  0.022644  0.087666 -0.026216 -0.077814  0.037949
     1 y       0.173590  0.054969  0.102215 -0.159024 -0.043720 -0.043146
     1 z      -0.000261  0.040768 -0.036407 -0.000692 -0.315067 -0.050680
     2 x       0.076277 -0.037564  0.159778 -0.014594 -0.083710 -0.127088
     2 y       0.013698  0.167280  0.017040  0.058569 -0.100177 -0.030464
     2 z      -0.111508  0.193913 -0.067457 -0.031746  0.181298 -0.100762
     3 x      -0.043364 -0.016361 -0.097073  0.183143  0.182733  0.211082
     3 y      -0.229927  0.081916 -0.161237 -0.092472  0.230401 -0.255763
     3 z       0.081243  0.043744  0.195864  0.136511  0.051207 -0.173804
     4 x      -0.069301 -0.066627  0.178213 -0.018308 -0.207163 -0.022434
     4 y       0.251073  0.073542  0.016755  0.029607  0.006762 -0.020180
     4 z      -0.305076  0.251245  0.074746 -0.084107 -0.164550 -0.033298
     5 x      -0.198770 -0.070680 -0.025794 -0.019154  0.087496  0.118786
     5 y      -0.074834 -0.111208 -0.091092 -0.142339  0.235520  0.110052
     5 z       0.317022 -0.234612 -0.441919  0.059076  0.247457 -0.010789
     6 x       0.179204  0.061599  0.271301 -0.468158  0.394249  0.129205
     6 y       0.098311 -0.007331  0.007932 -0.078478  0.060283 -0.015274
     6 z      -0.089976 -0.107055 -0.217470  0.109133  0.098988  0.054365
     7 x      -0.043565  0.005180 -0.128570 -0.157626 -0.084704  0.054404
     7 y       0.073963  0.154906  0.119614  0.071540 -0.071015 -0.147123
     7 z      -0.037417  0.215046 -0.187666 -0.197230 -0.100270  0.223619
     8 x       0.134484  0.001195 -0.164255  0.274475 -0.058327  0.241105
     8 y       0.141132  0.087153 -0.203419  0.181078 -0.132495  0.048379
     8 z       0.049200 -0.079288  0.401070  0.244622  0.276391  0.171063
     9 x       0.250503  0.137570 -0.184154 -0.179098 -0.179993 -0.188820
     9 y       0.298141 -0.198248  0.033295  0.036652 -0.150015  0.187908
     9 z       0.171064 -0.098162  0.275889  0.278066  0.020662  0.091690
    10 x      -0.165041 -0.214978  0.013533  0.235261 -0.028629 -0.378470
    10 y      -0.071992  0.020841  0.029114  0.131991  0.052946 -0.218507
    10 z      -0.067219  0.191785 -0.007807 -0.132998  0.235565 -0.126810
    11 x       0.103525  0.180793  0.134246  0.068192 -0.030241 -0.133062
    11 y      -0.364835 -0.465415  0.054190  0.007105  0.018420 -0.097331
    11 z       0.070658 -0.514422  0.036478 -0.431591 -0.249624 -0.027560
    12 x      -0.114912  0.003223 -0.273707  0.094806  0.082037  0.033973
    12 y      -0.300148  0.083305  0.083637 -0.007257 -0.123489  0.544569
    12 z      -0.071879  0.043682 -0.042951  0.031011 -0.266237  0.045295


  Frequency     255.0746  261.8710  286.4883  295.9232  359.2581  376.4681
  IR Intensity    0.0496    0.0460    0.0223    0.0104    0.0034    0.0026
     in X         0.0094    0.0426    0.0024    0.0001    0.0002    0.0007
     in Y         0.0078    0.0021    0.0095    0.0050    0.0001    0.0018
     in Z         0.0324    0.0013    0.0104    0.0054    0.0032    0.0001
  Raman Intsty    0.0787    0.0982    0.1373    0.0230    0.0414    0.2935

     1 x       0.005469 -0.213899 -0.074700 -0.038127 -0.187500 -0.172579
     1 y       0.260594 -0.005645 -0.047048  0.026341 -0.142502 -0.105402
     1 z      -0.015967  0.223321 -0.182484  0.222050 -0.067121  0.107139
     2 x      -0.052861 -0.195959  0.040036 -0.035241  0.122296  0.240579
     2 y      -0.006003 -0.009731  0.289641  0.049475  0.084877  0.049217
     2 z      -0.102250 -0.143747 -0.053830 -0.097332 -0.234911  0.116418
     3 x       0.190640 -0.073015 -0.035626  0.110573  0.112327 -0.029366
     3 y       0.050492 -0.069099 -0.026136  0.075020  0.084168 -0.047075
     3 z      -0.252840  0.017424  0.004329  0.044776  0.126736 -0.228070
     4 x       0.225198 -0.104922 -0.105248 -0.064638  0.186810 -0.164999
     4 y      -0.130291 -0.225020 -0.424831  0.110970 -0.261107 -0.125965
     4 z       0.425292  0.141791  0.012064 -0.162201 -0.103214 -0.080442
     5 x      -0.255346 -0.042707 -0.036845 -0.038375 -0.082755 -0.097654
     5 y      -0.267726  0.351384  0.050534  0.064856  0.103851  0.143660
     5 z       0.192706 -0.110466  0.113162 -0.072431  0.013787  0.004877
     6 x       0.015554  0.389721 -0.170634 -0.056840  0.049361  0.016410
     6 y       0.233210 -0.166459  0.094525 -0.072017 -0.174327 -0.219177
     6 z      -0.096390 -0.082207  0.114179 -0.068174  0.090215  0.078008
     7 x      -0.171059 -0.030169  0.592910  0.151035 -0.351136 -0.176785
     7 y       0.050330 -0.052225  0.118131  0.036303  0.271750  0.347849
     7 z       0.024342  0.021285  0.004148 -0.470621  0.314968 -0.075103
     8 x      -0.012492  0.014994 -0.171216 -0.047393  0.174821 -0.129181
     8 y      -0.089997  0.172701 -0.109095 -0.340551 -0.230999  0.132269
     8 z       0.199799  0.085774  0.238137 -0.005232 -0.263251  0.177967
     9 x      -0.202128  0.111100  0.026197  0.020195  0.008262 -0.083811
     9 y       0.064758  0.059579  0.010933 -0.037908 -0.073538  0.112584
     9 z      -0.147087  0.015800 -0.000022  0.045006  0.154922 -0.276083
    10 x      -0.040683  0.314517 -0.041575 -0.367006 -0.205127  0.034486
    10 y       0.011649  0.185104  0.181919  0.119367  0.303948 -0.395688
    10 z      -0.127054 -0.290781 -0.172391  0.112490 -0.006359  0.033819
    11 x      -0.070965 -0.193482  0.112091 -0.049531  0.120604  0.406389
    11 y      -0.058468 -0.103023 -0.197470 -0.066346  0.014589  0.074836
    11 z       0.045980 -0.138333  0.064146  0.039279  0.113492  0.065469
    12 x       0.341221  0.116357 -0.121920  0.408219  0.043008  0.149108
    12 y      -0.177013 -0.121376  0.017415  0.005585  0.014205  0.052681
    12 z      -0.075423  0.241550 -0.096980  0.379910 -0.105669  0.076866


  Frequency     424.6559  451.1129  489.9066  522.2641  529.2071  545.2096
  IR Intensity    0.0329    0.0202    0.0030    0.0826    0.0583    0.0772
     in X         0.0277    0.0191    0.0001    0.0043    0.0025    0.0020
     in Y         0.0004    0.0000    0.0003    0.0320    0.0258    0.0004
     in Z         0.0048    0.0011    0.0026    0.0463    0.0300    0.0748
  Raman Intsty    1.9817    1.4785    0.4788    1.8453    0.5658    0.3580

     1 x      -0.307708 -0.061584  0.075240 -0.073492 -0.034319 -0.053805
     1 y      -0.141055 -0.099364  0.094870 -0.115522 -0.037948 -0.117297
     1 z       0.079569 -0.441605  0.241007 -0.344670 -0.095729 -0.332167
     2 x      -0.056118 -0.100305 -0.114935  0.002307  0.048348  0.083144
     2 y       0.022683  0.098869  0.089762  0.040871 -0.073126 -0.194015
     2 z       0.095533  0.238530  0.019121  0.029287 -0.331860 -0.342920
     3 x       0.098808 -0.135746  0.042378 -0.079247 -0.132017  0.014796
     3 y       0.097054  0.019194 -0.138660 -0.426423 -0.306395  0.256276
     3 z      -0.038396  0.110335 -0.124344 -0.175019 -0.029459  0.072447
     4 x       0.511239  0.460429  0.221077  0.044059 -0.077501 -0.124028
     4 y       0.354927 -0.093968 -0.267260  0.154440  0.142744  0.167914
     4 z       0.086292 -0.236157 -0.354478  0.101848  0.168329  0.247653
     5 x      -0.321996 -0.010907  0.055395 -0.049641 -0.014924  0.035811
     5 y       0.157868 -0.034402 -0.045674  0.036151  0.021533  0.004701
     5 z      -0.035105  0.004547 -0.022350  0.019819  0.042750  0.009578
     6 x       0.002035  0.032514 -0.006722  0.013349 -0.012835 -0.004720
     6 y      -0.347995  0.134456  0.059237 -0.001390 -0.064662  0.020840
     6 z       0.109118 -0.003109 -0.053105  0.039636  0.048515  0.028443
     7 x       0.295151 -0.073578  0.035730 -0.048328  0.121082  0.128746
     7 y      -0.052330  0.062482  0.316359 -0.183863  0.219834  0.357191
     7 z      -0.062730  0.039513  0.031140  0.010007  0.025715  0.031831
     8 x       0.048240 -0.251523  0.143377  0.078256 -0.302842  0.255691
     8 y      -0.013383  0.165644 -0.058593 -0.026679  0.139604 -0.116015
     8 z       0.072284 -0.017728  0.079858  0.034454 -0.087148  0.066566
     9 x      -0.035158  0.101321 -0.067031 -0.053013  0.071598 -0.001619
     9 y       0.016934 -0.040988  0.074670  0.141269 -0.077880  0.013729
     9 z      -0.075765  0.128357 -0.198622 -0.283472  0.289124 -0.067130
    10 x       0.000562 -0.006433  0.169633  0.047251  0.148026  0.066622
    10 y      -0.058266 -0.207088 -0.018444  0.459016 -0.031266 -0.253895
    10 z      -0.002741 -0.125942  0.450424  0.315554  0.343146  0.042299
    11 x      -0.070701 -0.129041 -0.396266  0.190892 -0.171970 -0.186906
    11 y      -0.022190 -0.032005 -0.065812  0.047937 -0.009535 -0.022550
    11 z      -0.015303 -0.031722 -0.089667  0.036086 -0.007125 -0.004674
    12 x      -0.113565  0.231893 -0.158391 -0.043564  0.379968 -0.222189
    12 y      -0.010160  0.023586 -0.049266 -0.029784  0.157097 -0.106333
    12 z      -0.238954  0.352755 -0.005005  0.310449 -0.278671  0.363561


  Frequency     650.7506  678.3042  701.8108  763.3696  807.2959  864.9391
  IR Intensity    0.0485    0.0592    0.0318    0.0143    0.0089    0.0006
     in X         0.0002    0.0399    0.0298    0.0039    0.0065    0.0000
     in Y         0.0341    0.0006    0.0018    0.0101    0.0001    0.0000
     in Z         0.0141    0.0186    0.0002    0.0003    0.0023    0.0006
  Raman Intsty    0.0376    0.0230    0.0001    0.0230    0.1531    1.2159

     1 x      -0.117447  0.165946  0.557196 -0.334454  0.136565 -0.138987
     1 y      -0.005138  0.101816  0.258800  0.614974  0.152293 -0.070177
     1 z       0.050138 -0.039518 -0.198405 -0.167822 -0.043340  0.025509
     2 x       0.105293  0.022162  0.185459  0.033622 -0.567443  0.476198
     2 y      -0.609585 -0.080935 -0.060113  0.085048 -0.215789  0.124952
     2 z       0.354168  0.013618  0.125408 -0.015566  0.003222  0.194527
     3 x      -0.006523  0.547173 -0.190470  0.005050 -0.316273 -0.331194
     3 y      -0.144366  0.001270 -0.030446  0.001367  0.116246  0.135421
     3 z       0.011079 -0.388851  0.146383  0.044460 -0.327688 -0.536646
     4 x       0.013949 -0.031459 -0.081536  0.007067  0.070082 -0.033282
     4 y       0.050787 -0.023998 -0.067304 -0.026283 -0.032672  0.015208
     4 z      -0.010347 -0.010871 -0.030637  0.002275 -0.057024  0.022121
     5 x       0.166020 -0.124289 -0.405617  0.418254 -0.032358  0.041226
     5 y      -0.082735  0.061698  0.188600 -0.231901  0.007191 -0.016601
     5 z      -0.006471 -0.001166  0.019420 -0.005478  0.005249 -0.000025
     6 x       0.001318 -0.023868 -0.057513 -0.034122 -0.005016  0.006892
     6 y       0.045934 -0.156401 -0.374473 -0.450644 -0.101062  0.040081
     6 z      -0.020198  0.053179  0.139808  0.162162  0.032393 -0.010020
     7 x       0.134701 -0.021376 -0.026439 -0.003149  0.092243 -0.057478
     7 y       0.405227  0.052285  0.013840 -0.076154  0.158603 -0.101379
     7 z       0.007932  0.001377  0.008144 -0.004461  0.005923 -0.020557
     8 x      -0.049186 -0.366825  0.094961 -0.012890  0.230496  0.212051
     8 y       0.055026  0.166561 -0.040335 -0.004068 -0.081931 -0.087918
     8 z      -0.020203 -0.102427  0.021932  0.008795  0.081076  0.105468
     9 x      -0.026375  0.059016 -0.023733 -0.005357  0.088033  0.097825
     9 y       0.045717 -0.095757  0.036241  0.011274 -0.094182 -0.108907
     9 z      -0.095224  0.295773 -0.108252 -0.035197  0.267878  0.310769
    10 x      -0.156077 -0.028468 -0.033835  0.008292  0.038010 -0.020679
    10 y       0.323504  0.082085  0.042645 -0.024248  0.011139  0.073211
    10 z      -0.260688  0.028342 -0.085400  0.008146  0.045822 -0.012938
    11 x      -0.099140 -0.017150 -0.217293 -0.033854  0.380348 -0.261051
    11 y       0.021077  0.002650 -0.028522 -0.015460  0.067645 -0.040879
    11 z      -0.032282  0.001446 -0.039036 -0.004293  0.054019 -0.036169
    12 x       0.037045 -0.321767  0.093002  0.008224  0.028494  0.007327
    12 y       0.040023 -0.115519  0.028826 -0.018316  0.002411  0.000539
    12 z      -0.057507  0.228579 -0.013426  0.033602  0.002956  0.018635




--------------------------------------------------------------------------------
  Vibrational properties (for cluster):  Temperature  =       0.000 K
--------------------------------------------------------------------------------
  Zero point energy            =        0.691120 eV
--------------------------------------------------------------------------------

  Phonon density of states : 

--------------------------------------------------------------------------------
 Frequency (cm-1) Density of States                                             
--------------------------------------------------------------------------------
    0.00000 |******************************                                0.030
   13.51467 |******************************                                0.030
   27.02935 |******************************                                0.030
   40.54402 |                                                              0.000
   54.05870 |******************************                                0.030
   67.57337 |************************************************************  0.061
   81.08805 |                                                              0.000
   94.60272 |******************************                                0.030
  108.11739 |                                                              0.000
  121.63207 |******************************                                0.030
  135.14674 |                                                              0.000
  148.66142 |                                                              0.000
  162.17609 |******************************                                0.030
  175.69076 |************************************************************  0.061
  189.20544 |                                                              0.000
  202.72011 |************************************************************  0.061
  216.23479 |                                                              0.000
  229.74946 |******************************                                0.030
  243.26414 |************************************************************  0.061
  256.77881 |******************************                                0.030
  270.29348 |                                                              0.000
  283.80816 |************************************************************  0.061
  297.32283 |                                                              0.000
  310.83751 |                                                              0.000
  324.35218 |                                                              0.000
  337.86686 |                                                              0.000
  351.38153 |******************************                                0.030
  364.89620 |******************************                                0.030
  378.41088 |                                                              0.000
  391.92555 |                                                              0.000
  405.44023 |                                                              0.000
  418.95490 |******************************                                0.030
  432.46957 |                                                              0.000
  445.98425 |******************************                                0.030
  459.49892 |                                                              0.000
  473.01360 |                                                              0.000
  486.52827 |******************************                                0.030
  500.04295 |                                                              0.000
  513.55762 |******************************                                0.030
  527.07229 |******************************                                0.030
  540.58697 |******************************                                0.030
  554.10164 |                                                              0.000
  567.61632 |                                                              0.000
  581.13099 |                                                              0.000
  594.64567 |                                                              0.000
  608.16034 |                                                              0.000
  621.67501 |                                                              0.000
  635.18969 |                                                              0.000
  648.70436 |******************************                                0.030
  662.21904 |                                                              0.000
  675.73371 |******************************                                0.030
  689.24838 |******************************                                0.030
  702.76306 |                                                              0.000
  716.27773 |                                                              0.000
  729.79241 |                                                              0.000
  743.30708 |                                                              0.000
  756.82176 |******************************                                0.030
  770.33643 |                                                              0.000
  783.85110 |                                                              0.000
  797.36578 |******************************                                0.030
  810.88045 |                                                              0.000
  824.39513 |                                                              0.000
  837.90980 |                                                              0.000
  851.42447 |******************************                                0.030
--------------------------------------------------------------------------------



  Time to end of optimisation =       0.0432 seconds


  Peak dynamic memory used =       0.65 MB 


  Timing analysis for GULP :

--------------------------------------------------------------------------------
  Task / Subroutine                                          Time (Seconds)
--------------------------------------------------------------------------------
  Calculation of real space energy and derivatives                0.0030
  Calculation of phonons                                          0.0016
  Calculation and manipulation of Hessian matrix                  0.0017
--------------------------------------------------------------------------------
  Total CPU time                                                  0.0432
--------------------------------------------------------------------------------


  Job Finished at 14:39.50 25th May        2022                               

