------------------------------------------------------------
          Invoking FHI-aims ...

          When using FHI-aims, please cite the following reference:

            Volker Blum, Ralf Gehrke, Felix Hanke, Paula Havu,
            Ville Havu, Xinguo Ren, Karsten Reuter, and Matthias Scheffler,
            'Ab Initio Molecular Simulations with Numeric Atom-Centered Orbitals',
            Computer Physics Communications 180, 2175-2196 (2009)

          In addition, many other developments in FHI-aims are likely important for
          your particular application. A partial list of references is given at the end of
          this file. Thank you for giving credit to the authors of these developments.

          For any questions about FHI-aims, please visit our slack channel at

            https://fhi-aims.slack.com

          and our main development and support site at

            https://aims-git.rz-berlin.mpg.de .

          The latter site, in particular, has a wiki to collect information, as well
          as an issue tracker to log discussions, suggest improvements, and report issues
          or bugs. https://aims-git.rz-berlin.mpg.de is also the main development site
          of the project and all new and updated code versions can be obtained there.
          Please send an email to aims-coordinators@fhi-berlin.mpg.de and we will add
          you to these sites. They are for you and everyone is welcome there.

------------------------------------------------------------



  Date     :  20220517, Time     :  115011.223
  Time zero on CPU 1             :   0.400270000000000E-01  s.
  Internal wall clock time zero  :           422020211.223  s.

  FHI-aims created a unique identifier for this run for later identification
  aims_uuid : F99EDE51-D625-4455-A429-9A930A24BBCE

  Build configuration of the current instance of FHI-aims
  -------------------------------------------------------
  FHI-aims version      : 210914
  Commit number         : GITDIR-NOTFOUND
  CMake host system     : Linux-3.10.0-693.17.1.el7.x86_64
  CMake version         : 3.21.1
  Fortran compiler      : /shared/ucl/apps/intel/2018.Update3/impi/2018.3.222/intel64/bin/mpiifort (Intel) version 18.0.3.20180410
  Fortran compiler flags: -O3 -ip -fp-model precise
  C compiler            : /shared/ucl/apps/intel/2018.Update3/compilers_and_libraries_2018.3.222/linux/bin/intel64/icc (Intel) version 18.0.3.20180410
  C compiler flags      : -O3 -ip -fp-model precise -std=gnu99
  ELPA2 kernel          : AVX2
  Using MPI
  Using ScaLAPACK
  Using LibXC
  Using i-PI
  Using RLSY
  Linking against: /shared/ucl/apps/intel/2019.Update5/compilers_and_libraries_2019.5.281/linux/mkl/lib/intel64/libmkl_intel_lp64.so
                   /shared/ucl/apps/intel/2019.Update5/compilers_and_libraries_2019.5.281/linux/mkl/lib/intel64/libmkl_sequential.so
                   /shared/ucl/apps/intel/2019.Update5/compilers_and_libraries_2019.5.281/linux/mkl/lib/intel64/libmkl_core.so
                   /shared/ucl/apps/intel/2019.Update5/compilers_and_libraries_2019.5.281/linux/mkl/lib/intel64/libmkl_blacs_intelmpi_lp64.so
                   /shared/ucl/apps/intel/2019.Update5/compilers_and_libraries_2019.5.281/linux/mkl/lib/intel64/libmkl_scalapack_lp64.so

  Using       24 parallel tasks.
  Task        0 on host node-k98a-015 reporting.
  Task        1 on host node-k98a-015 reporting.
  Task        2 on host node-k98a-015 reporting.
  Task        3 on host node-k98a-015 reporting.
  Task        4 on host node-k98a-015 reporting.
  Task        5 on host node-k98a-015 reporting.
  Task        6 on host node-k98a-015 reporting.
  Task        7 on host node-k98a-015 reporting.
  Task        8 on host node-k98a-015 reporting.
  Task        9 on host node-k98a-015 reporting.
  Task       10 on host node-k98a-015 reporting.
  Task       11 on host node-k98a-015 reporting.
  Task       12 on host node-k98a-015 reporting.
  Task       13 on host node-k98a-015 reporting.
  Task       14 on host node-k98a-015 reporting.
  Task       15 on host node-k98a-015 reporting.
  Task       16 on host node-k98a-015 reporting.
  Task       17 on host node-k98a-015 reporting.
  Task       18 on host node-k98a-015 reporting.
  Task       19 on host node-k98a-015 reporting.
  Task       20 on host node-k98a-015 reporting.
  Task       21 on host node-k98a-015 reporting.
  Task       22 on host node-k98a-015 reporting.
  Task       23 on host node-k98a-015 reporting.

  Performing system and environment tests:
  | Environment variable OMP_NUM_THREADS correctly set to 1.
  | Checking for ScaLAPACK...
  | Testing pdtran()...
  | All pdtran() tests passed.

  Obtaining array dimensions for all initial allocations:
  
  -----------------------------------------------------------------------
  Parsing control.in (first pass over file, find array dimensions only).
  The contents of control.in will be repeated verbatim below
  unless switched off by setting 'verbatim_writeout .false.' .
  in the first line of control.in .
  -----------------------------------------------------------------------
  
  #########################################################################################  Physical model
  #########################################################################################
  xc                 pbesol
  spin               none
  relativistic       atomic_zora scalar
  charge             0.0
  #  SCF convergence
  occupation_type    gaussian 0.01
  mixer              pulay
  n_max_pulay        10
  charge_mix_param   0.5
  sc_accuracy_rho    1E-5
  sc_accuracy_eev    1E-3
  sc_accuracy_etot   1E-6
  sc_accuracy_forces 1E-4
  sc_iter_limit      1500
  #  Relaxation
  #relax_geometry   bfgs 1.e-3
  
  ################################################################################
  #
  #  FHI-aims code project
  #  VB, Fritz-Haber Institut, 2009
  #
  #  Suggested "light" defaults for Al atom (to be pasted into control.in file)
  #  Be sure to double-check any results obtained with these settings for post-processing,
  #  e.g., with the "tight" defaults and larger basis sets.
  #
  ################################################################################
    species        Al
  #     global species definitions
      nucleus             13
      mass                26.9815386
  #
      l_hartree           4
  #
      cut_pot             3.5          1.5  1.0
      basis_dep_cutoff    1e-4
  #
      radial_base         41 5.0
      radial_multiplier   1
      angular_grids       specified
        division   0.6594  110
        division   0.8170  194
        division   0.9059  302
  #      division   1.0363  434
  #      division   1.1443  590
  #      division   1.2621  770
  #      division   2.8177  974
  #      outer_grid   974
        outer_grid   302
  ################################################################################
  #
  #  Definition of "minimal" basis
  #
  ################################################################################
  #     valence basis states
      valence      3  s   2.
      valence      3  p   1.
  #     ion occupancy
      ion_occ      3  s   1.
      ion_occ      2  p   6.
  ################################################################################
  #
  #  Suggested additional basis functions. For production calculations,
  #  uncomment them one after another (the most important basis functions are
  #  listed first).
  #
  #  Constructed for dimers: 2.0 A, 2.5 A, 3.0 A, 3.75 A, 4.5 A
  #
  ################################################################################
  #  "First tier" - improvements: -199.47 meV to -10.63 meV
       ionic 3 d auto
       ionic 3 p auto
  #     hydro 4 f 4.7
       ionic 3 s auto
  #  "Second tier" - improvements: -5.35 meV to -1.57 meV
  #     hydro 5 g 7
  #     hydro 3 d 6
  #     hydro 2 s 11.6
  #     hydro 2 p 0.9
  #  "Third tier" - improvements: -0.63 meV to -0.20 meV
  #     hydro 5 f 7.6
  #     hydro 4 p 7.2
  #     hydro 4 s 3.7
  #     hydro 4 d 7.6
  #  "Fourth tier" - improvements: -0.17 meV to -0.08 meV
  #     hydro 4 d 13.6
  #     hydro 5 g 11.2
  #     hydro 4 d 0.9
  #     hydro 1 s 0.4
  #     hydro 4 p 0.1
  #     hydro 5 f 9.8
  #  Further basis functions that fell out of the optimization - noise level...
  #     hydro 4 p 5
  
  ################################################################################
  #
  #  FHI-aims code project
  #  VB, Fritz-Haber Institut, 2009
  #
  #  Suggested "light" defaults for F atom (to be pasted into control.in file)
  #  Be sure to double-check any results obtained with these settings for post-processing,
  #  e.g., with the "tight" defaults and larger basis sets.
  #
  ################################################################################
    species        F
  #     global species definitions
      nucleus             9
      mass                18.9984032
  #
      l_hartree           4
  #
      cut_pot             3.5  1.5  1.0
      basis_dep_cutoff    1e-4
  #
      radial_base         37 5.0
      radial_multiplier   1
      angular_grids specified
        division   0.4014  110
        division   0.5291  194
        division   0.6019  302
  #      division   0.6814  434
  #      division   0.7989  590
  #      division   0.8965  770
  #      division   1.3427  974
  #      outer_grid   974
        outer_grid   302
  ################################################################################
  #
  #  Definition of "minimal" basis
  #
  ################################################################################
  #     valence basis states
      valence      2  s   2.
      valence      2  p   5.
  #     ion occupancy
      ion_occ      2  s   1.
      ion_occ      2  p   4.
  ################################################################################
  #
  #  Suggested additional basis functions. For production calculations,
  #  uncomment them one after another (the most important basis functions are
  #  listed first).
  #
  #  Constructed for dimers: 1.2 A, 1.418 A, 1.75 A, 2.25 A, 3.25 A
  #
  ################################################################################
  #  "First tier" - improvements: -149.44 meV to -45.88 meV
       hydro 2 p 1.7
       hydro 3 d 7.4
       hydro 3 s 6.8
  #  "Second tier" - improvements: -12.96 meV to -1.56 meV
  #     hydro 4 f 11.2
  #     ionic 2 p auto
  #     hydro 1 s 0.75
  #     hydro 4 d 8.8
  #     hydro 5 g 16.8
  #  "Third tier" - improvements: -0.58 meV to -0.05 meV
  #     hydro 3 p 6.2
  #     hydro 3 s 3.2
  #     hydro 4 f 9.6
  #     hydro 3 s 19.6
  #     hydro 4 d 8.6
  #     hydro 5 g 14.4
  # Further basis functions: -0.05 meV and below
  #     hydro 3 p 4.2
  
  -----------------------------------------------------------------------
  Completed first pass over input file control.in .
  -----------------------------------------------------------------------
  
  
  -----------------------------------------------------------------------
  Parsing geometry.in (first pass over file, find array dimensions only).
  The contents of geometry.in will be repeated verbatim below
  unless switched off by setting 'verbatim_writeout .false.' .
  in the first line of geometry.in .
  -----------------------------------------------------------------------
  
  atom -0.365955238 1.032298360 -1.849718936 Al
  atom -0.502389981 1.064016691 1.359379401 Al
  atom -2.998702503 0.463243878 -1.853320209 Al
  atom -3.522864855 0.317100336 -3.576340761 F
  atom -1.433409758 -0.614393304 -1.845086538 F
  atom -2.017977493 2.090453189 -1.896674761 F
  atom -2.052228977 0.711571455 0.441957109 F
  atom 0.685252416 1.288593497 -0.323449375 F
  atom -0.294799981 2.776583804 2.002005571 F
  atom 0.388577208 -0.385470471 2.062310958 F
  atom -4.257140967 0.215127126 -0.602568713 F
  atom 0.789846819 1.254948303 -3.272743244 F
  
  -----------------------------------------------------------------------
  Completed first pass over input file geometry.in .
  -----------------------------------------------------------------------
  

  Basic array size parameters:
  | Number of species                 :        2
  | Number of atoms                   :       12
  | Max. basis fn. angular momentum   :        2
  | Max. atomic/ionic basis occupied n:        3
  | Max. number of basis fn. types    :        3
  | Max. radial fns per species/type  :        5
  | Max. logarithmic grid size        :     1340
  | Max. radial integration grid size :       41
  | Max. angular integration grid size:      302
  | Max. angular grid division number :        8
  | Radial grid for Hartree potential :     1340
  | Number of spin channels           :        1

------------------------------------------------------------
          Reading file control.in.
------------------------------------------------------------
  XC: Using PBEsol gradient-corrected functionals.
  Spin treatment: No spin polarisation.
  Scalar relativistic treatment of kinetic energy: on-site free-atom approximation to ZORA.
  Charge =   0.000000E+00: Neutral system requested explicitly.
  Occupation type: Gaussian broadening, width =   0.100000E-01 eV.
  Using pulay charge density mixing.
  Pulay mixing - number of memorized iterations:   10
  Charge density mixing - mixing parameter:     0.5000
  Convergence accuracy of self-consistent charge density:  0.1000E-04
  Convergence accuracy of sum of eigenvalues:  0.1000E-02
  Convergence accuracy of total energy:  0.1000E-05
  Convergence accuracy of forces:  0.1000E-03
  Maximum number of s.-c. iterations  :  1500
 
  Reading configuration options for species Al                  .
  | Found nuclear charge :  13.0000
  | Found atomic mass :    26.9815386000000      amu
  | Found l_max for Hartree potential  :   4
  | Found cutoff potl. onset [A], width [A], scale factor :    3.50000    1.50000    1.00000
  | Threshold for basis-dependent cutoff potential is   0.100000E-03
  | Found data for basic radial integration grid :    41 points, outermost radius =    5.000 A
  | Found multiplier for basic radial grid :   1
  | Found angular grid specification: user-specified.
  | Specified grid contains     4 separate shells.
  | Check grid settings after all constraints further below.
  | Found free-atom valence shell :  3 s   2.000
  | Found free-atom valence shell :  3 p   1.000
  | Found free-ion valence shell :  3 s   1.000
  | Found free-ion valence shell :  2 p   6.000
  | Found ionic basis function :  3 d , default cutoff radius.
  | Found ionic basis function :  3 p , default cutoff radius.
  | Found ionic basis function :  3 s , default cutoff radius.
  Species Al                  : Missing cutoff potential type.
  Defaulting to exp(1/x)/(1-x)^2 type cutoff potential.
  Species Al: No 'logarithmic' tag. Using default grid for free atom:
  | Default logarithmic grid data [bohr] : 0.1000E-03 0.1000E+03 0.1012E+01
  | Will include ionic basis functions of  2.0-fold positive Al                   ion.
  Species Al: On-site basis accuracy parameter (for Gram-Schmidt orthonormalisation) not specified.
  Using default value basis_acc =  0.1000000E-03.
  Species Al                  : Using default innermost maximum threshold i_radial=  2 for radial functions.
  Species Al                  : Default cutoff onset for free atom density etc. : 0.35000000E+01 AA.
  Species Al                  : Basic radial grid will be enhanced according to radial_multiplier =   1, to contain    41 grid points.
 
  Reading configuration options for species F                   .
  | Found nuclear charge :   9.0000
  | Found atomic mass :    18.9984032000000      amu
  | Found l_max for Hartree potential  :   4
  | Found cutoff potl. onset [A], width [A], scale factor :    3.50000    1.50000    1.00000
  | Threshold for basis-dependent cutoff potential is   0.100000E-03
  | Found data for basic radial integration grid :    37 points, outermost radius =    5.000 A
  | Found multiplier for basic radial grid :   1
  | Found angular grid specification: user-specified.
  | Specified grid contains     4 separate shells.
  | Check grid settings after all constraints further below.
  | Found free-atom valence shell :  2 s   2.000
  | Found free-atom valence shell :  2 p   5.000
  | Found free-ion valence shell :  2 s   1.000
  | Found free-ion valence shell :  2 p   4.000
  | Found hydrogenic basis function :  2 p   1.700
  | Found hydrogenic basis function :  3 d   7.400
  | Found hydrogenic basis function :  3 s   6.800
  Species F                   : Missing cutoff potential type.
  Defaulting to exp(1/x)/(1-x)^2 type cutoff potential.
  Species F : No 'logarithmic' tag. Using default grid for free atom:
  | Default logarithmic grid data [bohr] : 0.1000E-03 0.1000E+03 0.1012E+01
  Species F : On-site basis accuracy parameter (for Gram-Schmidt orthonormalisation) not specified.
  Using default value basis_acc =  0.1000000E-03.
  Species F                   : Using default innermost maximum threshold i_radial=  2 for radial functions.
  Species F                   : Default cutoff onset for free atom density etc. : 0.35000000E+01 AA.
  Species F                   : Basic radial grid will be enhanced according to radial_multiplier =   1, to contain    37 grid points.
 
  Finished reading input file 'control.in'.
 
------------------------------------------------------------


------------------------------------------------------------
          Reading geometry description geometry.in.
------------------------------------------------------------
  | The smallest distance between any two atoms is         1.79153805 AA.
  | The first atom of this pair is atom number                      3 .
  | The second atom of this pair is atom number                    11 .
  Input structure read successfully.
  The structure contains       12 atoms,  and a total of        120.000 electrons.

  Input geometry:
  | No unit cell requested.
  | Atomic structure:
  |       Atom                x [A]            y [A]            z [A]
  |    1: Species Al           -0.36595524        1.03229836       -1.84971894
  |    2: Species Al           -0.50238998        1.06401669        1.35937940
  |    3: Species Al           -2.99870250        0.46324388       -1.85332021
  |    4: Species F            -3.52286485        0.31710034       -3.57634076
  |    5: Species F            -1.43340976       -0.61439330       -1.84508654
  |    6: Species F            -2.01797749        2.09045319       -1.89667476
  |    7: Species F            -2.05222898        0.71157145        0.44195711
  |    8: Species F             0.68525242        1.28859350       -0.32344937
  |    9: Species F            -0.29479998        2.77658380        2.00200557
  |   10: Species F             0.38857721       -0.38547047        2.06231096
  |   11: Species F            -4.25714097        0.21512713       -0.60256871
  |   12: Species F             0.78984682        1.25494830       -3.27274324

 
  Finished reading input file 'control.in'.
 

------------------------------------------------------------
          Reading geometry description geometry.in.
------------------------------------------------------------
 
  Consistency checks for stacksize environment parameter are next.
 
  | Maximum stacksize for task 0: unlimited
  | Maximum stacksize for task 1: unlimited
  | Maximum stacksize for task 2: unlimited
  | Maximum stacksize for task 3: unlimited
  | Maximum stacksize for task 4: unlimited
  | Maximum stacksize for task 5: unlimited
  | Maximum stacksize for task 6: unlimited
  | Maximum stacksize for task 7: unlimited
  | Maximum stacksize for task 8: unlimited
  | Maximum stacksize for task 9: unlimited
  | Maximum stacksize for task 10: unlimited
  | Maximum stacksize for task 11: unlimited
  | Maximum stacksize for task 12: unlimited
  | Maximum stacksize for task 13: unlimited
  | Maximum stacksize for task 14: unlimited
  | Maximum stacksize for task 15: unlimited
  | Maximum stacksize for task 16: unlimited
  | Maximum stacksize for task 17: unlimited
  | Maximum stacksize for task 18: unlimited
  | Maximum stacksize for task 19: unlimited
  | Maximum stacksize for task 20: unlimited
  | Maximum stacksize for task 21: unlimited
  | Maximum stacksize for task 22: unlimited
  | Maximum stacksize for task 23: unlimited
  | Current stacksize for task 0: unlimited
  | Current stacksize for task 1: unlimited
  | Current stacksize for task 2: unlimited
  | Current stacksize for task 3: unlimited
  | Current stacksize for task 4: unlimited
  | Current stacksize for task 5: unlimited
  | Current stacksize for task 6: unlimited
  | Current stacksize for task 7: unlimited
  | Current stacksize for task 8: unlimited
  | Current stacksize for task 9: unlimited
  | Current stacksize for task 10: unlimited
  | Current stacksize for task 11: unlimited
  | Current stacksize for task 12: unlimited
  | Current stacksize for task 13: unlimited
  | Current stacksize for task 14: unlimited
  | Current stacksize for task 15: unlimited
  | Current stacksize for task 16: unlimited
  | Current stacksize for task 17: unlimited
  | Current stacksize for task 18: unlimited
  | Current stacksize for task 19: unlimited
  | Current stacksize for task 20: unlimited
  | Current stacksize for task 21: unlimited
  | Current stacksize for task 22: unlimited
  | Current stacksize for task 23: unlimited
 
  Consistency checks for the contents of control.in are next.
 
  MPI_IN_PLACE appears to work with this MPI implementation.
  | Keeping use_mpi_in_place .true. (see manual).
  Target number of points in a grid batch is not set. Defaulting to  100
  Method for grid partitioning is not set. Defaulting to parallel hash+maxmin partitioning.
  Batch size limit is not set. Defaulting to    200
  By default, will store active basis functions for each batch.
  If in need of memory, prune_basis_once .false. can be used to disable this option.
  communication_type for Hartree potential was not specified.
  Defaulting to calc_hartree .
  Pulay mixer: Number of initial linear mixing iterations not set.
  Defaulting to    0 iterations.
  Work space size for distributed Hartree potential not set.
  Defaulting to   0.200000E+03 MB.
  Algorithm-dependent basis array size parameters:
  | n_max_pulay                         :       10
  Presetting      1001 iterations before the initial mixing cycle
  is restarted anyway using the sc_init_iter criterion / keyword.
  Presetting a factor      1.000 between actual scf density residual
  and density convergence criterion sc_accuracy_rho below which sc_init_iter
  takes no effect.
  Geometry relaxation not requested: no relaxation will be performed.
  Forces evaluation will include force correction term due to incomplete self-consistency (default).
  Handling of forces: Unphysical translation and rotation will be removed from forces.
  No accuracy limit for integral partition fn. given. Defaulting to  0.1000E-14.
  No threshold value for u(r) in integrations given. Defaulting to  0.1000E-05.
  No accuracy for occupation numbers given. Defaulting to  0.1000E-12.
  No threshold value for occupation numbers given. Defaulting to  0.0000E+00.
  No accuracy for fermi level given. Defaulting to  0.1000E-19.
  Maximum # of iterations to find E_F not set. Defaulting to  200.
  Preferred method for the eigenvalue solver ('KS_method') not specified in 'control.in'.
  Calling BLACS routine to test compilation state
  Since ScaLAPACK support is enabled, defaulting to ELPA (via ELSI).
  Will not use alltoall communication since running on < 1024 CPUs.
  Threshold for basis singularities not set.
  Default threshold for basis singularities:  0.1000E-04
  partition_type (choice of integration weights) for integrals was not specified.
  | Using a version of the partition function of Stratmann and coworkers ('stratmann_sparse').
  | At each grid point, the set of atoms used to build the partition table is smoothly restricted to
  | only those atoms whose free-atom density would be non-zero at that grid point.
  Partitioning for Hartree potential was not defined. Using partition_type for integrals.
  | Adjusted default value of keyword multip_moments_threshold to:       0.10000000E-11
  | This value may affect high angular momentum components of the Hartree potential in periodic systems.
  No q(lm)/r^(l+1) cutoff set for long-range Hartree potential.
  | Using default value of  0.100000E-09 .
  | Verify using the multipole_threshold keyword.
  Defaulting to new monopole extrapolation.
  Density update method: automatic selection selected.
  Charge integration errors on the 3D integration grid will be compensated
  by explicit normalization and distribution of residual charges.
  Use the "compensate_multipole_errors" flag to change this behaviour.
  Set 'collect_eigenvectors' to be '.true.' for use_density_matrix .false.
 
  Consistency checks for the contents of geometry.in are next.
 
  Number of empty states per atom not set in control.in - providing a guess from actual geometry.
  | Total number of empty states used during s.c.f. cycle:       36
  If you use a very high smearing, use empty_states (per atom!) in control.in to increase this value.

  Structure-dependent array size parameters: 
  | Maximum number of distinct radial functions  :       14
  | Maximum number of basis functions            :      180
  | Number of Kohn-Sham states (occupied + empty):       96
------------------------------------------------------------

------------------------------------------------------------
          Preparing all fixed parts of the calculation.
------------------------------------------------------------
  Determining machine precision:
    2.225073858507201E-308
  Setting up grids for atomic and cluster calculations.

  Creating wave function, potential, and density for free atoms.

  Species: Al

  List of occupied orbitals and eigenvalues:
    n    l              occ      energy [Ha]    energy [eV]
    1    0           2.0000       -55.621123     -1513.5278
    2    0           2.0000        -3.957030      -107.6763
    3    0           2.0000        -0.272233        -7.4078
    2    1           6.0000        -2.540949       -69.1427
    3    1           1.0000        -0.083300        -2.2667


  Species: F

  List of occupied orbitals and eigenvalues:
    n    l              occ      energy [Ha]    energy [eV]
    1    0           2.0000       -24.399611      -663.9472
    2    0           2.0000        -1.098702       -29.8972
    2    1           5.0000        -0.408210       -11.1080


  Adding cutoff potential to free-atom effective potential.
  Creating fixed part of basis set: Ionic, confined, hydrogenic.
 
  Al                   ion:

  List of free ionic orbitals and eigenvalues:
    n    l      energy [Ha]    energy [eV]
    1    0       -56.418846     -1535.2349
    2    0        -4.732717      -128.7838
    3    0        -0.872690       -23.7471
    2    1        -3.317230       -90.2664


  List of ionic basis orbitals and eigenvalues:
    n    l      energy [Ha]    energy [eV]    outer radius [A]
    3    2        -0.346815        -9.4373       4.594041
    3    1        -0.631870       -17.1940       4.538221
    3    0        -0.872657       -23.7462       4.538221

 
  F                    hydrogenic:
 
  List of hydrogenic basis orbitals: 
    n    l      effective z      eigenvalue [eV]  inner max. [A]     outer max. [A]     outer radius [A]   
    2    1         1.700000        -9.7616           1.243167           1.243167           4.598524
    3    2         7.400000       -82.7828           0.642437           0.642437           3.305741
    3    0         6.800000       -69.9026           0.057798           1.022307           3.781556
 
  Creating atomic-like basis functions for current effective potential.

  Species Al                  :

  List of atomic basis orbitals and eigenvalues:
    n    l      energy [Ha]    energy [eV]    outer radius [A]
    1    0       -55.621123     -1513.5278       0.850197
    2    0        -3.957030      -107.6763       3.144911
    3    0        -0.272233        -7.4078       4.594041
    2    1        -2.540949       -69.1427       3.731966
    3    1        -0.083300        -2.2667       4.594041


  Species F                   :

  List of atomic basis orbitals and eigenvalues:
    n    l      energy [Ha]    energy [eV]    outer radius [A]
    1    0       -24.399611      -663.9472       1.258458
    2    0        -1.098702       -29.8972       4.325857
    2    1        -0.408210       -11.1080       4.487453

  Assembling full basis from fixed parts.
  | Species Al :   atomic orbital   1 s accepted.
  | Species Al :   atomic orbital   2 s accepted.
  | Species Al :    ionic orbital   3 s accepted.
  | Species Al :   atomic orbital   3 s accepted.
  | Species Al :   atomic orbital   2 p accepted.
  | Species Al :    ionic orbital   3 p accepted.
  | Species Al :   atomic orbital   3 p accepted.
  | Species Al :    ionic orbital   3 d accepted.
  | Species F :   atomic orbital   1 s accepted.
  | Species F :    hydro orbital   3 s accepted.
  | Species F :   atomic orbital   2 s accepted.
  | Species F :   atomic orbital   2 p accepted.
  | Species F :    hydro orbital   2 p accepted.
  | Species F :    hydro orbital   3 d accepted.
 
  Basis size parameters after reduction:
  | Total number of radial functions:       14
  | Total number of basis functions :      180
 
  Per-task memory consumption for arrays in subroutine allocate_ext:
  |           4.807768MB.
  Testing on-site integration grid accuracy.
  |  Species  Function  <phi|h_atom|phi> (log., in eV)  <phi|h_atom|phi> (rad., in eV)
           1        1              -1513.5277717935              -1513.5271881332
           1        2               -107.6762691836               -107.6762662489
           1        3                 -6.9467474784                 -6.9471269649
           1        4                  5.5771951849                  5.4862107220 ***
           1        5                -69.1427313144                -69.1427312731
           1        6                 -1.5197375330                 -1.5230432022
           1        7                  6.8210948310                  6.5529872240 ***
           1        8                  4.3216540965                  4.2851170187 ***
           2        9               -663.9471986398               -663.9470363334
           2       10                 16.8514011578                 16.8512525338
           2       11                -28.4490593856                -28.4490661472
           2       12                -11.1080115307                -11.1080620173
           2       13                  7.1940182175                  7.1685154137
           2       14                 44.8544281765                 44.8543763625
 * Note: Onsite integrals marked "***" above are less accurate than
 * onsite_accuracy_threshold =    0.03000 eV. Usually, this is harmless.
 * When in doubt, tighten the "radial" and/or "radial_multiplier" flags to check.

  Preparing densities etc. for the partition functions (integrals / Hartree potential).

  Preparations completed.
  max(cpu_time)          :      0.184 s.
  Wall clock time (cpu1) :      0.185 s.
------------------------------------------------------------

------------------------------------------------------------
          Begin self-consistency loop: Initialization.

          Date     :  20220517, Time     :  115011.451
------------------------------------------------------------

  Initializing index lists of integration centers etc. from given atomic structure:
  | Number of centers in hartree potential         :        12
  | Number of centers in hartree multipole         :        12
  | Number of centers in electron density summation:        12
  | Number of centers in basis integrals           :        12
  | Number of centers in integrals                 :        12
  | Number of centers in hamiltonian               :        12
  * Using 24 tasks for Scalapack Eigenvalue solver.
  Detailed listing of tasks and assigned k-points:
  (for non-periodic systems, the "k-point" denotes an internal label only)
   Task     0 k-point     1 on node-k98a-015
   Task     1 k-point     1 on node-k98a-015
   Task     2 k-point     1 on node-k98a-015
   Task     3 k-point     1 on node-k98a-015
   Task     4 k-point     1 on node-k98a-015
   Task     5 k-point     1 on node-k98a-015
   Task     6 k-point     1 on node-k98a-015
   Task     7 k-point     1 on node-k98a-015
   Task     8 k-point     1 on node-k98a-015
   Task     9 k-point     1 on node-k98a-015
   Task    10 k-point     1 on node-k98a-015
   Task    11 k-point     1 on node-k98a-015
   Task    12 k-point     1 on node-k98a-015
   Task    13 k-point     1 on node-k98a-015
   Task    14 k-point     1 on node-k98a-015
   Task    15 k-point     1 on node-k98a-015
   Task    16 k-point     1 on node-k98a-015
   Task    17 k-point     1 on node-k98a-015
   Task    18 k-point     1 on node-k98a-015
   Task    19 k-point     1 on node-k98a-015
   Task    20 k-point     1 on node-k98a-015
   Task    21 k-point     1 on node-k98a-015
   Task    22 k-point     1 on node-k98a-015
   Task    23 k-point     1 on node-k98a-015
  Tasks:    24 split into      6 X      4 BLACS grid
  Calculating block size based on n_basis =          180  max_nprow =            6  max_npcol =            4
  ScaLAPACK block size set to:           16
  Allocating        0.012 MB for ovlp
  Allocating        0.012 MB for ham
  Allocating        0.012 MB for eigenvec
  Required Scalapack workspace - INTEGER:            1  REAL:             1
  Partitioning the integration grid into batches with parallel hashing+maxmin method.
  | Number of batches:     1045
  | Maximal batch size:     198
  | Minimal batch size:      21
  | Average batch size:      87.962
  | Standard deviation of batch sizes:      30.345

  Integration load balanced across    24 MPI tasks.
  Work distribution over tasks is as follows:
  Task     0 has       3923 integration points.
  Task     1 has       3855 integration points.
  Task     2 has       3813 integration points.
  Task     3 has       3911 integration points.
  Task     4 has       3855 integration points.
  Task     5 has       3810 integration points.
  Task     6 has       3859 integration points.
  Task     7 has       3815 integration points.
  Task     8 has       3887 integration points.
  Task     9 has       3800 integration points.
  Task    10 has       3820 integration points.
  Task    11 has       3873 integration points.
  Task    12 has       3760 integration points.
  Task    13 has       3804 integration points.
  Task    14 has       3751 integration points.
  Task    15 has       3887 integration points.
  Task    16 has       3806 integration points.
  Task    17 has       3946 integration points.
  Task    18 has       3752 integration points.
  Task    19 has       3809 integration points.
  Task    20 has       3754 integration points.
  Task    21 has       3762 integration points.
  Task    22 has       3899 integration points.
  Task    23 has       3769 integration points.
  Initializing partition tables, free-atom densities, potentials, etc. across the integration grid (initialize_grid_storage).
  | initialize_grid_storage: Actual outermost partition radius vs. multipole_radius_free
  | (-- VB: in principle, multipole_radius_free should be larger, hence this output)
  | Species        1: Confinement radius =              4.999999999999999 AA, multipole_radius_free =              5.004487022111096 AA.
  | Species        1: outer_partition_radius set to              5.004487022111096 AA .
  | Species        2: Confinement radius =              4.999999999999999 AA, multipole_radius_free =              5.009370088163274 AA.
  | Species        2: outer_partition_radius set to              5.009370088163274 AA .
  | The sparse table of interatomic distances needs          1.64 kbyte instead of         1.15 kbyte of memory.
  | Using the partition_type stratmann_smoother will reduce your memory usage.
  | Net number of integration points:    91920
  | of which are non-zero points    :    85782
  Renormalizing the initial density to the exact electron count on the 3D integration grid.
  | Initial density: Formal number of electrons (from input files) :     120.0000000000
  | Integrated number of electrons on 3D grid     :     119.9999993945
  | Charge integration error                      :      -0.0000006055
  | Normalization factor for density and gradient :       1.0000000050
  Renormalizing the free-atom superposition density to the exact electron count on the 3D integration grid.
  | Formal number of electrons (from input files) :     120.0000000000
  | Integrated number of electrons on 3D grid     :     119.9999993945
  | Charge integration error                      :      -0.0000006055
  | Normalization factor for density and gradient :       1.0000000050
  Obtaining max. number of non-zero basis functions in each batch (get_n_compute_maxes).
  | Maximal number of non-zero basis functions:      158 in task     0
  | Maximal number of non-zero basis functions:      165 in task     1
  | Maximal number of non-zero basis functions:      171 in task     2
  | Maximal number of non-zero basis functions:      164 in task     3
  | Maximal number of non-zero basis functions:      163 in task     4
  | Maximal number of non-zero basis functions:      162 in task     5
  | Maximal number of non-zero basis functions:      159 in task     6
  | Maximal number of non-zero basis functions:      160 in task     7
  | Maximal number of non-zero basis functions:      170 in task     8
  | Maximal number of non-zero basis functions:      159 in task     9
  | Maximal number of non-zero basis functions:      165 in task    10
  | Maximal number of non-zero basis functions:      166 in task    11
  | Maximal number of non-zero basis functions:      159 in task    12
  | Maximal number of non-zero basis functions:      166 in task    13
  | Maximal number of non-zero basis functions:      165 in task    14
  | Maximal number of non-zero basis functions:      162 in task    15
  | Maximal number of non-zero basis functions:      166 in task    16
  | Maximal number of non-zero basis functions:      170 in task    17
  | Maximal number of non-zero basis functions:      159 in task    18
  | Maximal number of non-zero basis functions:      165 in task    19
  | Maximal number of non-zero basis functions:      165 in task    20
  | Maximal number of non-zero basis functions:      165 in task    21
  | Maximal number of non-zero basis functions:      171 in task    22
  | Maximal number of non-zero basis functions:      165 in task    23
  Selecting the method for density update.
  Loop over occupied states selected for charge density update.
  Allocating        0.132 MB for KS_eigenvector
  Integrating Hamiltonian matrix: batch-based integration.
  Time summed over all CPUs for integration: real work        0.695 s, elapsed        0.719 s
  Integrating overlap matrix.
  Time summed over all CPUs for integration: real work        0.273 s, elapsed        0.289 s
  Deallocating overlap matrix.

  Updating Kohn-Sham eigenvalues and eigenvectors using ELSI and the ELPA eigensolver.
  Overlap matrix is not singular
  | Lowest and highest eigenvalues :  0.3644E-02,  0.5137E+01
  Finished singularity check of overlap matrix
  | Time :     0.004 s
  Starting ELPA eigensolver
  Finished Cholesky decomposition
  | Time :     0.001 s
  Finished transformation to standard eigenproblem
  | Time :     0.001 s
  Finished solving standard eigenproblem
  | Time :     0.004 s
  Finished back-transformation of eigenvectors
  | Time :     0.000 s

  Obtaining occupation numbers and chemical potential using ELSI.
  | Chemical potential (Fermi level):    -7.90759235 eV
  Writing Kohn-Sham eigenvalues.

  State    Occupation    Eigenvalue [Ha]    Eigenvalue [eV]
      1       2.00000         -55.484885        -1509.82053
      2       2.00000         -55.483889        -1509.79344
      3       2.00000         -55.482162        -1509.74644
      4       2.00000         -24.356877         -662.78435
      5       2.00000         -24.356877         -662.78435
      6       2.00000         -24.352509         -662.66549
      7       2.00000         -24.344160         -662.43830
      8       2.00000         -24.343598         -662.42301
      9       2.00000         -24.341671         -662.37056
     10       2.00000         -24.337756         -662.26402
     11       2.00000         -24.337756         -662.26402
     12       2.00000         -24.337124         -662.24684
     13       2.00000          -3.950292         -107.49291
     14       2.00000          -3.948672         -107.44884
     15       2.00000          -3.946600         -107.39245
     16       2.00000          -2.543319          -69.20724
     17       2.00000          -2.542256          -69.17830
     18       2.00000          -2.541399          -69.15498
     19       2.00000          -2.541024          -69.14478
     20       2.00000          -2.540507          -69.13072
     21       2.00000          -2.539390          -69.10031
     22       2.00000          -2.538991          -69.08945
     23       2.00000          -2.538910          -69.08724
     24       2.00000          -2.537301          -69.04347
     25       2.00000          -1.181936          -32.16210
     26       2.00000          -1.171988          -31.89142
     27       2.00000          -1.168815          -31.80506
     28       2.00000          -1.158722          -31.53042
     29       2.00000          -1.151699          -31.33934
     30       2.00000          -1.149101          -31.26864
     31       2.00000          -1.145549          -31.17198
     32       2.00000          -1.143975          -31.12913
     33       2.00000          -1.143918          -31.12759
     34       2.00000          -0.548999          -14.93903
     35       2.00000          -0.537367          -14.62250
     36       2.00000          -0.530900          -14.44652
     37       2.00000          -0.511350          -13.91454
     38       2.00000          -0.510141          -13.88166
     39       2.00000          -0.503774          -13.70838
     40       2.00000          -0.496117          -13.50002
     41       2.00000          -0.490446          -13.34570
     42       2.00000          -0.488176          -13.28394
     43       2.00000          -0.483128          -13.14659
     44       2.00000          -0.482975          -13.14242
     45       2.00000          -0.480950          -13.08730
     46       2.00000          -0.477164          -12.98430
     47       2.00000          -0.475070          -12.92730
     48       2.00000          -0.468368          -12.74495
     49       2.00000          -0.458324          -12.47162
     50       2.00000          -0.454787          -12.37539
     51       2.00000          -0.453711          -12.34612
     52       2.00000          -0.452515          -12.31355
     53       2.00000          -0.450310          -12.25356
     54       2.00000          -0.449139          -12.22171
     55       2.00000          -0.449131          -12.22148
     56       2.00000          -0.447538          -12.17812
     57       2.00000          -0.445540          -12.12375
     58       2.00000          -0.444674          -12.10020
     59       2.00000          -0.442592          -12.04353
     60       2.00000          -0.442523          -12.04168
     61       0.00000          -0.150880           -4.10566
     62       0.00000          -0.107648           -2.92926
     63       0.00000          -0.079111           -2.15273
     64       0.00000          -0.033231           -0.90427
     65       0.00000          -0.026100           -0.71020
     66       0.00000          -0.003754           -0.10214
     67       0.00000           0.011418            0.31070
     68       0.00000           0.016450            0.44764
     69       0.00000           0.032638            0.88813
     70       0.00000           0.047097            1.28156
     71       0.00000           0.069696            1.89653
     72       0.00000           0.104880            2.85394
     73       0.00000           0.143281            3.89888
     74       0.00000           0.157485            4.28540
     75       0.00000           0.162450            4.42050
     76       0.00000           0.168266            4.57875
     77       0.00000           0.182442            4.96450
     78       0.00000           0.185767            5.05499
     79       0.00000           0.192432            5.23635
     80       0.00000           0.198063            5.38957
     81       0.00000           0.203230            5.53016
     82       0.00000           0.216696            5.89659
     83       0.00000           0.225865            6.14610
     84       0.00000           0.237121            6.45240
     85       0.00000           0.238815            6.49848
     86       0.00000           0.245874            6.69057
     87       0.00000           0.272300            7.40965
     88       0.00000           0.277409            7.54867
     89       0.00000           0.283033            7.70172
     90       0.00000           0.288687            7.85558
     91       0.00000           0.308454            8.39347
     92       0.00000           0.312507            8.50376
     93       0.00000           0.332092            9.03668
     94       0.00000           0.341279            9.28668
     95       0.00000           0.361903            9.84789
     96       0.00000           0.363879            9.90165

  Highest occupied state (VBM) at    -12.04167509 eV
  | Occupation number:      2.00000000

  Lowest unoccupied state (CBM) at    -4.10566314 eV
  | Occupation number:      0.00000000

  Overall HOMO-LUMO gap:      7.93601195 eV.
  Calculating total energy contributions from superposition of free atom densities.

  Total energy components:
  | Sum of eigenvalues            :        -887.11866852 Ha      -24139.72718634 eV
  | XC energy correction          :        -144.27272881 Ha       -3925.86069652 eV
  | XC potential correction       :         187.84790727 Ha        5111.60163233 eV
  | Free-atom electrostatic energy:        -781.79615123 Ha      -21273.75567164 eV
  | Hartree energy correction     :           0.00000000 Ha           0.00000000 eV
  | Entropy correction            :           0.00000000 Ha           0.00000000 eV
  | ---------------------------
  | Total energy                  :       -1625.33964129 Ha      -44227.74192216 eV
  | Total energy, T -> 0          :       -1625.33964129 Ha      -44227.74192216 eV  <-- do not rely on this value for anything but (periodic) metals
  | Electronic free energy        :       -1625.33964129 Ha      -44227.74192216 eV

  Derived energy quantities:
  | Kinetic energy                :        1627.46561325 Ha       44285.59256265 eV
  | Electrostatic energy          :       -3108.53252573 Ha      -84587.47378829 eV
  | Energy correction for multipole
  | error in Hartree potential    :           0.00000000 Ha           0.00000000 eV
  | Sum of eigenvalues per atom                           :       -2011.64393219 eV
  | Total energy (T->0) per atom                          :       -3685.64516018 eV  <-- do not rely on this value for anything but (periodic) metals
  | Electronic free energy per atom                       :       -3685.64516018 eV
  Initialize hartree_potential_storage
  Max. number of atoms included in rho_multipole:           12

  End scf initialization - timings             :  max(cpu_time)    wall_clock(cpu1)
  | Time for scf. initialization                :        0.111 s           0.111 s
  | Boundary condition initialization           :        0.000 s           0.000 s
  | Integration                                 :        0.043 s           0.043 s
  | Solution of K.-S. eqns.                     :        0.011 s           0.011 s
  | Grid partitioning                           :        0.034 s           0.035 s
  | Preloading free-atom quantities on grid     :        0.015 s           0.015 s
  | Free-atom superposition energy              :        0.005 s           0.005 s
  | Total energy evaluation                     :        0.000 s           0.000 s

  Partial memory accounting:
  | Current value for overall tracked memory usage:
  |   Minimum:        0.273 MB (on task 23)
  |   Maximum:        0.292 MB (on task  0)
  |   Average:        0.287 MB
  | Peak value for overall tracked memory usage:
  |   Minimum:        1.326 MB (on task  0 after allocating wave)
  |   Maximum:        1.418 MB (on task  2 after allocating wave)
  |   Average:        1.365 MB
  | Largest tracked array allocation so far:
  |   Minimum:        0.239 MB (H_times_psi on task  0)
  |   Maximum:        0.459 MB (all_coords on task  9)
  |   Average:        0.272 MB
  Note:  These values currently only include a subset of arrays which are explicitly tracked.
  The "true" memory usage will be greater.
------------------------------------------------------------
  Evaluating new KS density.
  Integration grid: deviation in total charge (<rho> - N_e) =   2.842171E-14

  Time for density update prior                :  max(cpu_time)    wall_clock(cpu1)
  | self-consistency iterative process          :        0.028 s           0.029 s

------------------------------------------------------------
          Begin self-consistency iteration #    1

  Date     :  20220517, Time     :  115011.591
------------------------------------------------------------
  Pulay mixing of updated and previous charge densities.
  Renormalizing the density to the exact electron count on the 3D integration grid.
  | Formal number of electrons (from input files) :     120.0000000000
  | Integrated number of electrons on 3D grid     :     120.0000000000
  | Charge integration error                      :       0.0000000000
  | Normalization factor for density and gradient :       1.0000000000

  Evaluating partitioned Hartree potential by multipole expansion.
  | Original multipole sum: apparent total charge =  -0.362325E-13
  | Sum of charges compensated after spline to logarithmic grids =   0.126776E-03
  | Analytical far-field extrapolation by fixed multipoles:
  | Hartree multipole sum: apparent total charge =  -0.391842E-13
  Summing up the Hartree potential.
  Time summed over all CPUs for potential: real work        0.382 s, elapsed        0.402 s
  | RMS charge density error from multipole expansion :   0.105855E-01

  Integrating Hamiltonian matrix: batch-based integration.
  Time summed over all CPUs for integration: real work        0.659 s, elapsed        0.688 s

  Updating Kohn-Sham eigenvalues and eigenvectors using ELSI and the ELPA eigensolver.
  Starting ELPA eigensolver
  Finished transformation to standard eigenproblem
  | Time :     0.001 s
  Finished solving standard eigenproblem
  | Time :     0.003 s
  Finished back-transformation of eigenvectors
  | Time :     0.000 s

  Obtaining occupation numbers and chemical potential using ELSI.
  | Chemical potential (Fermi level):    -7.79397587 eV
  Writing Kohn-Sham eigenvalues.

  State    Occupation    Eigenvalue [Ha]    Eigenvalue [eV]
      1       2.00000         -55.693636        -1515.50095
      2       2.00000         -55.638733        -1514.00697
      3       2.00000         -55.633153        -1513.85513
      4       2.00000         -24.246017         -659.76768
      5       2.00000         -24.246016         -659.76767
      6       2.00000         -24.224918         -659.19355
      7       2.00000         -24.159328         -657.40876
      8       2.00000         -24.079011         -655.22324
      9       2.00000         -24.064184         -654.81975
     10       2.00000         -24.064179         -654.81962
     11       2.00000         -24.064026         -654.81548
     12       2.00000         -24.061365         -654.74306
     13       2.00000          -4.129313         -112.36432
     14       2.00000          -4.076395         -110.92435
     15       2.00000          -4.073499         -110.84555
     16       2.00000          -2.722499          -74.08297
     17       2.00000          -2.722242          -74.07599
     18       2.00000          -2.721308          -74.05057
     19       2.00000          -2.670562          -72.66968
     20       2.00000          -2.668792          -72.62153
     21       2.00000          -2.667828          -72.59529
     22       2.00000          -2.667250          -72.57956
     23       2.00000          -2.666558          -72.56075
     24       2.00000          -2.664463          -72.50374
     25       2.00000          -1.166605          -31.74493
     26       2.00000          -1.153719          -31.39430
     27       2.00000          -1.139648          -31.01139
     28       2.00000          -1.087419          -29.59017
     29       2.00000          -1.023612          -27.85390
     30       2.00000          -1.014459          -27.60484
     31       2.00000          -1.011402          -27.52165
     32       2.00000          -1.008805          -27.45097
     33       2.00000          -1.007701          -27.42095
     34       2.00000          -0.549875          -14.96286
     35       2.00000          -0.530562          -14.43732
     36       2.00000          -0.506372          -13.77908
     37       2.00000          -0.502460          -13.67263
     38       2.00000          -0.483858          -13.16645
     39       2.00000          -0.475786          -12.94680
     40       2.00000          -0.464099          -12.62878
     41       2.00000          -0.454184          -12.35898
     42       2.00000          -0.440606          -11.98950
     43       2.00000          -0.439051          -11.94719
     44       2.00000          -0.397086          -10.80526
     45       2.00000          -0.394358          -10.73103
     46       2.00000          -0.392696          -10.68579
     47       2.00000          -0.386895          -10.52796
     48       2.00000          -0.382510          -10.40863
     49       2.00000          -0.358172           -9.74637
     50       2.00000          -0.357610           -9.73106
     51       2.00000          -0.335176           -9.12059
     52       2.00000          -0.333708           -9.08065
     53       2.00000          -0.328415           -8.93662
     54       2.00000          -0.326289           -8.87876
     55       2.00000          -0.324379           -8.82680
     56       2.00000          -0.323142           -8.79314
     57       2.00000          -0.316278           -8.60636
     58       2.00000          -0.315965           -8.59785
     59       2.00000          -0.312157           -8.49423
     60       2.00000          -0.306133           -8.33031
     61       0.00000          -0.174901           -4.75929
     62       0.00000          -0.108636           -2.95613
     63       0.00000          -0.082718           -2.25087
     64       0.00000          -0.067877           -1.84703
     65       0.00000          -0.051156           -1.39202
     66       0.00000          -0.027951           -0.76060
     67       0.00000           0.000255            0.00694
     68       0.00000           0.006569            0.17875
     69       0.00000           0.023976            0.65241
     70       0.00000           0.034443            0.93725
     71       0.00000           0.051808            1.40977
     72       0.00000           0.089688            2.44054
     73       0.00000           0.130787            3.55890
     74       0.00000           0.143883            3.91525
     75       0.00000           0.151569            4.12441
     76       0.00000           0.164242            4.46924
     77       0.00000           0.178549            4.85856
     78       0.00000           0.183836            5.00243
     79       0.00000           0.190025            5.17085
     80       0.00000           0.203651            5.54164
     81       0.00000           0.206241            5.61212
     82       0.00000           0.209365            5.69710
     83       0.00000           0.213344            5.80539
     84       0.00000           0.222010            6.04119
     85       0.00000           0.225054            6.12404
     86       0.00000           0.234861            6.39090
     87       0.00000           0.240817            6.55297
     88       0.00000           0.254031            6.91253
     89       0.00000           0.266974            7.26474
     90       0.00000           0.282081            7.67582
     91       0.00000           0.303840            8.26792
     92       0.00000           0.314540            8.55907
     93       0.00000           0.327038            8.89916
     94       0.00000           0.341887            9.30321
     95       0.00000           0.361149            9.82736
     96       0.00000           0.370579           10.08397

  Highest occupied state (VBM) at     -8.33031296 eV
  | Occupation number:      2.00000000

  Lowest unoccupied state (CBM) at    -4.75928879 eV
  | Occupation number:      0.00000000

  Overall HOMO-LUMO gap:      3.57102417 eV.

  Total energy components:
  | Sum of eigenvalues            :        -881.95293693 Ha      -23999.16047769 eV
  | XC energy correction          :        -145.61542215 Ha       -3962.39724121 eV
  | XC potential correction       :         189.61309807 Ha        5159.63491789 eV
  | Free-atom electrostatic energy:        -781.79615123 Ha      -21273.75567164 eV
  | Hartree energy correction     :          -5.36503187 Ha        -145.98994511 eV
  | Entropy correction            :           0.00000000 Ha           0.00000000 eV
  | ---------------------------
  | Total energy                  :       -1625.11644410 Ha      -44221.66841777 eV
  | Total energy, T -> 0          :       -1625.11644410 Ha      -44221.66841777 eV  <-- do not rely on this value for anything but (periodic) metals
  | Electronic free energy        :       -1625.11644410 Ha      -44221.66841777 eV

  Derived energy quantities:
  | Kinetic energy                :        1633.81868143 Ha       44458.46834355 eV
  | Electrostatic energy          :       -3113.31970338 Ha      -84717.73952011 eV
  | Energy correction for multipole
  | error in Hartree potential    :           0.03792016 Ha           1.03185997 eV
  | Sum of eigenvalues per atom                           :       -1999.93003981 eV
  | Total energy (T->0) per atom                          :       -3685.13903481 eV  <-- do not rely on this value for anything but (periodic) metals
  | Electronic free energy per atom                       :       -3685.13903481 eV
  Evaluating new KS density.
  Integration grid: deviation in total charge (<rho> - N_e) =   0.000000E+00

  Self-consistency convergence accuracy:
  | Change of charge density      :  0.6051E+00
  | Change of sum of eigenvalues  :  0.1406E+03 eV
  | Change of total energy        :  0.6074E+01 eV


------------------------------------------------------------
  End self-consistency iteration #     1       :  max(cpu_time)    wall_clock(cpu1)
  | Time for this iteration                     :        0.080 s           0.080 s
  | Charge density update                       :        0.027 s           0.027 s
  | Density mixing                              :        0.001 s           0.000 s
  | Hartree multipole update                    :        0.001 s           0.002 s
  | Hartree multipole summation                 :        0.017 s           0.017 s
  | Integration                                 :        0.029 s           0.029 s
  | Solution of K.-S. eqns.                     :        0.004 s           0.004 s
  | Total energy evaluation                     :        0.000 s           0.000 s

  Partial memory accounting:
  | Current value for overall tracked memory usage:
  |   Minimum:        0.273 MB (on task 23)
  |   Maximum:        0.292 MB (on task  0)
  |   Average:        0.287 MB
  | Peak value for overall tracked memory usage:
  |   Minimum:        1.326 MB (on task  0 after allocating wave)
  |   Maximum:        1.418 MB (on task  2 after allocating wave)
  |   Average:        1.365 MB
  | Largest tracked array allocation so far:
  |   Minimum:        0.716 MB (gradient_basis_wave on task  0)
  |   Maximum:        0.775 MB (gradient_basis_wave on task  2)
  |   Average:        0.744 MB
  Note:  These values currently only include a subset of arrays which are explicitly tracked.
  The "true" memory usage will be greater.
------------------------------------------------------------

------------------------------------------------------------
          Begin self-consistency iteration #    2

  Date     :  20220517, Time     :  115011.676
------------------------------------------------------------
  Pulay mixing of updated and previous charge densities.
  Renormalizing the density to the exact electron count on the 3D integration grid.
  | Formal number of electrons (from input files) :     120.0000000000
  | Integrated number of electrons on 3D grid     :     120.0000000000
  | Charge integration error                      :      -0.0000000000
  | Normalization factor for density and gradient :       1.0000000000

  Evaluating partitioned Hartree potential by multipole expansion.
  | Original multipole sum: apparent total charge =  -0.974562E-13
  | Sum of charges compensated after spline to logarithmic grids =   0.911521E-04
  | Analytical far-field extrapolation by fixed multipoles:
  | Hartree multipole sum: apparent total charge =  -0.971857E-13
  Summing up the Hartree potential.
  Time summed over all CPUs for potential: real work        0.380 s, elapsed        0.401 s
  | RMS charge density error from multipole expansion :   0.124302E-01

  Integrating Hamiltonian matrix: batch-based integration.
  Time summed over all CPUs for integration: real work        0.658 s, elapsed        0.685 s

  Updating Kohn-Sham eigenvalues and eigenvectors using ELSI and the ELPA eigensolver.
  Starting ELPA eigensolver
  Finished transformation to standard eigenproblem
  | Time :     0.000 s
  Finished solving standard eigenproblem
  | Time :     0.003 s
  Finished back-transformation of eigenvectors
  | Time :     0.001 s

  Obtaining occupation numbers and chemical potential using ELSI.
  | Chemical potential (Fermi level):    -8.02998883 eV
  Highest occupied state (VBM) at     -9.44888222 eV
  | Occupation number:      2.00000000

  Lowest unoccupied state (CBM) at    -4.99489454 eV
  | Occupation number:      0.00000000

  Overall HOMO-LUMO gap:      4.45398768 eV.

  Checking to see if s.c.f. parameters should be adjusted.

  Total energy components:
  | Sum of eigenvalues            :        -885.19311990 Ha      -24087.33034248 eV
  | XC energy correction          :        -145.10142875 Ha       -3948.41076925 eV
  | XC potential correction       :         188.93692756 Ha        5141.23538216 eV
  | Free-atom electrostatic energy:        -781.79615123 Ha      -21273.75567164 eV
  | Hartree energy correction     :          -1.89309002 Ha         -51.51360041 eV
  | Entropy correction            :           0.00000000 Ha           0.00000000 eV
  | ---------------------------
  | Total energy                  :       -1625.04686234 Ha      -44219.77500161 eV
  | Total energy, T -> 0          :       -1625.04686234 Ha      -44219.77500161 eV  <-- do not rely on this value for anything but (periodic) metals
  | Electronic free energy        :       -1625.04686234 Ha      -44219.77500161 eV

  Derived energy quantities:
  | Kinetic energy                :        1629.83119670 Ha       44349.96336358 eV
  | Electrostatic energy          :       -3109.77663029 Ha      -84621.32759594 eV
  | Energy correction for multipole
  | error in Hartree potential    :           0.04140815 Ha           1.12677310 eV
  | Sum of eigenvalues per atom                           :       -2007.27752854 eV
  | Total energy (T->0) per atom                          :       -3684.98125013 eV  <-- do not rely on this value for anything but (periodic) metals
  | Electronic free energy per atom                       :       -3684.98125013 eV
  Evaluating new KS density.
  Integration grid: deviation in total charge (<rho> - N_e) =   1.421085E-14

  Self-consistency convergence accuracy:
  | Change of charge density      :  0.4950E+00
  | Change of sum of eigenvalues  : -0.8817E+02 eV
  | Change of total energy        :  0.1893E+01 eV


------------------------------------------------------------
  End self-consistency iteration #     2       :  max(cpu_time)    wall_clock(cpu1)
  | Time for this iteration                     :        0.083 s           0.080 s
  | Charge density update                       :        0.027 s           0.027 s
  | Density mixing                              :        0.004 s           0.002 s
  | Hartree multipole update                    :        0.001 s           0.001 s
  | Hartree multipole summation                 :        0.017 s           0.017 s
  | Integration                                 :        0.029 s           0.029 s
  | Solution of K.-S. eqns.                     :        0.004 s           0.004 s
  | Total energy evaluation                     :        0.000 s           0.000 s

  Partial memory accounting:
  | Current value for overall tracked memory usage:
  |   Minimum:        0.274 MB (on task 23)
  |   Maximum:        0.293 MB (on task  0)
  |   Average:        0.288 MB
  | Peak value for overall tracked memory usage:
  |   Minimum:        1.326 MB (on task  0 after allocating wave)
  |   Maximum:        1.418 MB (on task  2 after allocating wave)
  |   Average:        1.365 MB
  | Largest tracked array allocation so far:
  |   Minimum:        0.716 MB (gradient_basis_wave on task  0)
  |   Maximum:        0.775 MB (gradient_basis_wave on task  2)
  |   Average:        0.744 MB
  Note:  These values currently only include a subset of arrays which are explicitly tracked.
  The "true" memory usage will be greater.
------------------------------------------------------------

------------------------------------------------------------
          Begin self-consistency iteration #    3

  Date     :  20220517, Time     :  115011.762
------------------------------------------------------------
  Pulay mixing of updated and previous charge densities.
  Renormalizing the density to the exact electron count on the 3D integration grid.
  | Formal number of electrons (from input files) :     120.0000000000
  | Integrated number of electrons on 3D grid     :     120.0000000000
  | Charge integration error                      :      -0.0000000000
  | Normalization factor for density and gradient :       1.0000000000

  Evaluating partitioned Hartree potential by multipole expansion.
  | Original multipole sum: apparent total charge =  -0.100654E-12
  | Sum of charges compensated after spline to logarithmic grids =   0.120725E-03
  | Analytical far-field extrapolation by fixed multipoles:
  | Hartree multipole sum: apparent total charge =  -0.961280E-13
  Summing up the Hartree potential.
  Time summed over all CPUs for potential: real work        0.381 s, elapsed        0.401 s
  | RMS charge density error from multipole expansion :   0.173075E-01

  Integrating Hamiltonian matrix: batch-based integration.
  Time summed over all CPUs for integration: real work        0.659 s, elapsed        0.687 s

  Updating Kohn-Sham eigenvalues and eigenvectors using ELSI and the ELPA eigensolver.
  Starting ELPA eigensolver
  Finished transformation to standard eigenproblem
  | Time :     0.000 s
  Finished solving standard eigenproblem
  | Time :     0.003 s
  Finished back-transformation of eigenvectors
  | Time :     0.000 s

  Obtaining occupation numbers and chemical potential using ELSI.
  | Chemical potential (Fermi level):    -8.10754048 eV
  Highest occupied state (VBM) at     -9.28012420 eV
  | Occupation number:      2.00000000

  Lowest unoccupied state (CBM) at    -5.29093010 eV
  | Occupation number:      0.00000000

  Overall HOMO-LUMO gap:      3.98919410 eV.

  Total energy components:
  | Sum of eigenvalues            :        -886.28001329 Ha      -24116.90621621 eV
  | XC energy correction          :        -145.06213214 Ha       -3947.34145402 eV
  | XC potential correction       :         188.88402101 Ha        5139.79572157 eV
  | Free-atom electrostatic energy:        -781.79615123 Ha      -21273.75567164 eV
  | Hartree energy correction     :          -0.79196764 Ha         -21.55053609 eV
  | Entropy correction            :           0.00000000 Ha           0.00000000 eV
  | ---------------------------
  | Total energy                  :       -1625.04624329 Ha      -44219.75815639 eV
  | Total energy, T -> 0          :       -1625.04624329 Ha      -44219.75815639 eV  <-- do not rely on this value for anything but (periodic) metals
  | Electronic free energy        :       -1625.04624329 Ha      -44219.75815639 eV

  Derived energy quantities:
  | Kinetic energy                :        1628.03885323 Ha       44301.19121627 eV
  | Electrostatic energy          :       -3108.02296438 Ha      -84573.60791864 eV
  | Energy correction for multipole
  | error in Hartree potential    :           0.05603108 Ha           1.52468323 eV
  | Sum of eigenvalues per atom                           :       -2009.74218468 eV
  | Total energy (T->0) per atom                          :       -3684.97984637 eV  <-- do not rely on this value for anything but (periodic) metals
  | Electronic free energy per atom                       :       -3684.97984637 eV
  Evaluating new KS density.
  Integration grid: deviation in total charge (<rho> - N_e) =   4.263256E-14

  Self-consistency convergence accuracy:
  | Change of charge density      :  0.1309E+00
  | Change of sum of eigenvalues  : -0.2958E+02 eV
  | Change of total energy        :  0.1685E-01 eV


------------------------------------------------------------
  End self-consistency iteration #     3       :  max(cpu_time)    wall_clock(cpu1)
  | Time for this iteration                     :        0.082 s           0.080 s
  | Charge density update                       :        0.027 s           0.027 s
  | Density mixing                              :        0.004 s           0.001 s
  | Hartree multipole update                    :        0.001 s           0.002 s
  | Hartree multipole summation                 :        0.017 s           0.017 s
  | Integration                                 :        0.029 s           0.029 s
  | Solution of K.-S. eqns.                     :        0.004 s           0.004 s
  | Total energy evaluation                     :        0.000 s           0.000 s

  Partial memory accounting:
  | Current value for overall tracked memory usage:
  |   Minimum:        0.274 MB (on task 23)
  |   Maximum:        0.293 MB (on task  0)
  |   Average:        0.288 MB
  | Peak value for overall tracked memory usage:
  |   Minimum:        1.326 MB (on task  0 after allocating wave)
  |   Maximum:        1.418 MB (on task  2 after allocating wave)
  |   Average:        1.365 MB
  | Largest tracked array allocation so far:
  |   Minimum:        0.716 MB (gradient_basis_wave on task  0)
  |   Maximum:        0.775 MB (gradient_basis_wave on task  2)
  |   Average:        0.744 MB
  Note:  These values currently only include a subset of arrays which are explicitly tracked.
  The "true" memory usage will be greater.
------------------------------------------------------------

------------------------------------------------------------
          Begin self-consistency iteration #    4

  Date     :  20220517, Time     :  115011.847
------------------------------------------------------------
  Pulay mixing of updated and previous charge densities.
  Renormalizing the density to the exact electron count on the 3D integration grid.
  | Formal number of electrons (from input files) :     120.0000000000
  | Integrated number of electrons on 3D grid     :     120.0000000000
  | Charge integration error                      :      -0.0000000000
  | Normalization factor for density and gradient :       1.0000000000

  Evaluating partitioned Hartree potential by multipole expansion.
  | Original multipole sum: apparent total charge =  -0.121218E-12
  | Sum of charges compensated after spline to logarithmic grids =   0.131747E-03
  | Analytical far-field extrapolation by fixed multipoles:
  | Hartree multipole sum: apparent total charge =  -0.121710E-12
  Summing up the Hartree potential.
  Time summed over all CPUs for potential: real work        0.380 s, elapsed        0.401 s
  | RMS charge density error from multipole expansion :   0.192564E-01

  Integrating Hamiltonian matrix: batch-based integration.
  Time summed over all CPUs for integration: real work        0.658 s, elapsed        0.687 s

  Updating Kohn-Sham eigenvalues and eigenvectors using ELSI and the ELPA eigensolver.
  Starting ELPA eigensolver
  Finished transformation to standard eigenproblem
  | Time :     0.000 s
  Finished solving standard eigenproblem
  | Time :     0.003 s
  Finished back-transformation of eigenvectors
  | Time :     0.000 s

  Obtaining occupation numbers and chemical potential using ELSI.
  | Chemical potential (Fermi level):    -8.11212816 eV
  Highest occupied state (VBM) at     -9.29691601 eV
  | Occupation number:      2.00000000

  Lowest unoccupied state (CBM) at    -5.26241995 eV
  | Occupation number:      0.00000000

  Overall HOMO-LUMO gap:      4.03449607 eV.

  Total energy components:
  | Sum of eigenvalues            :        -886.40212292 Ha      -24120.22898840 eV
  | XC energy correction          :        -145.04540283 Ha       -3946.88622638 eV
  | XC potential correction       :         188.86140953 Ha        5139.18043205 eV
  | Free-atom electrostatic energy:        -781.79615123 Ha      -21273.75567164 eV
  | Hartree energy correction     :          -0.66126729 Ha         -17.99399847 eV
  | Entropy correction            :           0.00000000 Ha           0.00000000 eV
  | ---------------------------
  | Total energy                  :       -1625.04353473 Ha      -44219.68445284 eV
  | Total energy, T -> 0          :       -1625.04353473 Ha      -44219.68445284 eV  <-- do not rely on this value for anything but (periodic) metals
  | Electronic free energy        :       -1625.04353473 Ha      -44219.68445284 eV

  Derived energy quantities:
  | Kinetic energy                :        1627.39860429 Ha       44283.76915622 eV
  | Electrostatic energy          :       -3107.39673620 Ha      -84556.56738267 eV
  | Energy correction for multipole
  | error in Hartree potential    :           0.06148451 Ha           1.67307870 eV
  | Sum of eigenvalues per atom                           :       -2010.01908237 eV
  | Total energy (T->0) per atom                          :       -3684.97370440 eV  <-- do not rely on this value for anything but (periodic) metals
  | Electronic free energy per atom                       :       -3684.97370440 eV
  Evaluating new KS density.
  Integration grid: deviation in total charge (<rho> - N_e) =   2.842171E-14

  Self-consistency convergence accuracy:
  | Change of charge density      :  0.9045E-01
  | Change of sum of eigenvalues  : -0.3323E+01 eV
  | Change of total energy        :  0.7370E-01 eV


------------------------------------------------------------
  End self-consistency iteration #     4       :  max(cpu_time)    wall_clock(cpu1)
  | Time for this iteration                     :        0.083 s           0.081 s
  | Charge density update                       :        0.027 s           0.027 s
  | Density mixing                              :        0.004 s           0.002 s
  | Hartree multipole update                    :        0.001 s           0.002 s
  | Hartree multipole summation                 :        0.017 s           0.017 s
  | Integration                                 :        0.029 s           0.029 s
  | Solution of K.-S. eqns.                     :        0.004 s           0.004 s
  | Total energy evaluation                     :        0.000 s           0.000 s

  Partial memory accounting:
  | Current value for overall tracked memory usage:
  |   Minimum:        0.274 MB (on task 23)
  |   Maximum:        0.293 MB (on task  0)
  |   Average:        0.288 MB
  | Peak value for overall tracked memory usage:
  |   Minimum:        1.326 MB (on task  0 after allocating wave)
  |   Maximum:        1.418 MB (on task  2 after allocating wave)
  |   Average:        1.365 MB
  | Largest tracked array allocation so far:
  |   Minimum:        0.716 MB (gradient_basis_wave on task  0)
  |   Maximum:        0.775 MB (gradient_basis_wave on task  2)
  |   Average:        0.744 MB
  Note:  These values currently only include a subset of arrays which are explicitly tracked.
  The "true" memory usage will be greater.
------------------------------------------------------------

------------------------------------------------------------
          Begin self-consistency iteration #    5

  Date     :  20220517, Time     :  115011.934
------------------------------------------------------------
  Pulay mixing of updated and previous charge densities.
  Renormalizing the density to the exact electron count on the 3D integration grid.
  | Formal number of electrons (from input files) :     120.0000000000
  | Integrated number of electrons on 3D grid     :     120.0000000000
  | Charge integration error                      :       0.0000000000
  | Normalization factor for density and gradient :       1.0000000000

  Evaluating partitioned Hartree potential by multipole expansion.
  | Original multipole sum: apparent total charge =  -0.317803E-13
  | Sum of charges compensated after spline to logarithmic grids =   0.131777E-03
  | Analytical far-field extrapolation by fixed multipoles:
  | Hartree multipole sum: apparent total charge =  -0.346336E-13
  Summing up the Hartree potential.
  Time summed over all CPUs for potential: real work        0.381 s, elapsed        0.401 s
  | RMS charge density error from multipole expansion :   0.190495E-01

  Integrating Hamiltonian matrix: batch-based integration.
  Time summed over all CPUs for integration: real work        0.659 s, elapsed        0.687 s

  Updating Kohn-Sham eigenvalues and eigenvectors using ELSI and the ELPA eigensolver.
  Starting ELPA eigensolver
  Finished transformation to standard eigenproblem
  | Time :     0.000 s
  Finished solving standard eigenproblem
  | Time :     0.003 s
  Finished back-transformation of eigenvectors
  | Time :     0.000 s

  Obtaining occupation numbers and chemical potential using ELSI.
  | Chemical potential (Fermi level):    -8.08493094 eV
  Highest occupied state (VBM) at     -9.36021483 eV
  | Occupation number:      2.00000000

  Lowest unoccupied state (CBM) at    -5.18401349 eV
  | Occupation number:      0.00000000

  Overall HOMO-LUMO gap:      4.17620134 eV.

  Total energy components:
  | Sum of eigenvalues            :        -886.20953892 Ha      -24114.98851108 eV
  | XC energy correction          :        -145.04065273 Ha       -3946.75696954 eV
  | XC potential correction       :         188.85534562 Ha        5139.01542463 eV
  | Free-atom electrostatic energy:        -781.79615123 Ha      -21273.75567164 eV
  | Hartree energy correction     :          -0.85235305 Ha         -23.19370664 eV
  | Entropy correction            :           0.00000000 Ha           0.00000000 eV
[...]
   Total forces(   7)            :  0.234238E+01  0.515244E+00  0.501130E+00
  atom #    8
   Hellmann-Feynman              :  0.863578E+00  0.202388E+00  0.832717E+00
   Ionic forces                  :  0.000000E+00  0.000000E+00  0.000000E+00
   Multipole                     :  0.189724E+00  0.485600E-01  0.403088E+00
   Hartree pot. SCF incomplete   :  0.212246E-05  0.502632E-06  0.183225E-05
   Pulay + GGA                   : -0.338032E+01 -0.769485E+00 -0.204825E+01
   ----------------------------------------------------------------
   Total forces(   8)            : -0.232702E+01 -0.518537E+00 -0.812444E+00
  atom #    9
   Hellmann-Feynman              :  0.291493E+00  0.268379E+01  0.811254E+00
   Ionic forces                  :  0.000000E+00  0.000000E+00  0.000000E+00
   Multipole                     :  0.142059E+00  0.702144E+00  0.137331E+00
   Hartree pot. SCF incomplete   :  0.181923E-06  0.373318E-05  0.100326E-05
   Pulay + GGA                   : -0.966690E+00 -0.653570E+01 -0.208673E+01
   ----------------------------------------------------------------
   Total forces(   9)            : -0.533138E+00 -0.314976E+01 -0.113814E+01
  atom #   10
   Hellmann-Feynman              :  0.136769E+01 -0.229431E+01  0.905841E+00
   Ionic forces                  :  0.000000E+00  0.000000E+00  0.000000E+00
   Multipole                     :  0.418170E+00 -0.575219E+00  0.161700E+00
   Hartree pot. SCF incomplete   :  0.169777E-05 -0.328542E-05  0.114331E-05
   Pulay + GGA                   : -0.356180E+01  0.547292E+01 -0.231556E+01
   ----------------------------------------------------------------
   Total forces(  10)            : -0.177593E+01  0.260338E+01 -0.124802E+01
  atom #   11
   Hellmann-Feynman              : -0.243657E+01 -0.473465E+00  0.275123E+01
   Ionic forces                  :  0.000000E+00  0.000000E+00  0.000000E+00
   Multipole                     : -0.372934E+00 -0.703781E-01  0.547850E+00
   Hartree pot. SCF incomplete   : -0.439259E-05 -0.936871E-06  0.783341E-06
   Pulay + GGA                   :  0.460939E+01  0.890514E+00 -0.552643E+01
   ----------------------------------------------------------------
   Total forces(  11)            :  0.179989E+01  0.346669E+00 -0.222735E+01
  atom #   12
   Hellmann-Feynman              :  0.170600E+01  0.324180E+00 -0.236593E+01
   Ionic forces                  :  0.000000E+00  0.000000E+00  0.000000E+00
   Multipole                     :  0.508160E+00  0.981919E-01 -0.600860E+00
   Hartree pot. SCF incomplete   :  0.338590E-06  0.440725E-07 -0.167053E-05
   Pulay + GGA                   : -0.474223E+01 -0.914594E+00  0.580633E+01
   ----------------------------------------------------------------
   Total forces(  12)            : -0.252808E+01 -0.492222E+00  0.283953E+01


  Self-consistency convergence accuracy:
  | Change of charge density      :  0.1796E-06
  | Change of sum of eigenvalues  : -0.1970E-05 eV
  | Change of total energy        :  0.2617E-08 eV
  | Change of forces              :  0.4921E-06 eV/A

  Writing Kohn-Sham eigenvalues.

  State    Occupation    Eigenvalue [Ha]    Eigenvalue [eV]
      1       2.00000         -55.682718        -1515.20384
      2       2.00000         -55.615438        -1513.37306
      3       2.00000         -55.614860        -1513.35734
      4       2.00000         -24.322596         -661.85151
      5       2.00000         -24.322593         -661.85144
      6       2.00000         -24.308174         -661.45907
      7       2.00000         -24.260640         -660.16560
      8       2.00000         -24.235078         -659.47004
      9       2.00000         -24.203589         -658.61316
     10       2.00000         -24.203582         -658.61299
     11       2.00000         -24.200094         -658.51805
     12       2.00000         -24.199520         -658.50244
     13       2.00000          -4.132143         -112.44132
     14       2.00000          -4.069170         -110.72775
     15       2.00000          -4.066229         -110.64773
     16       2.00000          -2.725396          -74.16180
     17       2.00000          -2.723971          -74.12301
     18       2.00000          -2.721811          -74.06425
     19       2.00000          -2.662921          -72.46176
     20       2.00000          -2.661421          -72.42095
     21       2.00000          -2.661203          -72.41503
     22       2.00000          -2.657542          -72.31541
     23       2.00000          -2.657083          -72.30291
     24       2.00000          -2.655179          -72.25111
     25       2.00000          -1.191822          -32.43112
     26       2.00000          -1.179935          -32.10768
     27       2.00000          -1.166515          -31.74249
     28       2.00000          -1.113495          -30.29974
     29       2.00000          -1.077517          -29.32073
     30       2.00000          -1.051857          -28.62250
     31       2.00000          -1.049957          -28.57077
     32       2.00000          -1.047323          -28.49910
     33       2.00000          -1.046820          -28.48543
     34       2.00000          -0.571549          -15.55263
     35       2.00000          -0.553223          -15.05396
     36       2.00000          -0.529473          -14.40770
     37       2.00000          -0.528062          -14.36930
     38       2.00000          -0.506558          -13.78415
     39       2.00000          -0.498995          -13.57833
     40       2.00000          -0.492140          -13.39182
     41       2.00000          -0.477412          -12.99103
     42       2.00000          -0.466434          -12.69232
     43       2.00000          -0.463952          -12.62478
     44       2.00000          -0.439018          -11.94629
     45       2.00000          -0.423801          -11.53220
     46       2.00000          -0.422100          -11.48592
     47       2.00000          -0.416966          -11.34623
     48       2.00000          -0.414869          -11.28917
     49       2.00000          -0.395324          -10.75731
     50       2.00000          -0.394500          -10.73489
     51       2.00000          -0.384331          -10.45818
     52       2.00000          -0.382230          -10.40100
     53       2.00000          -0.361607           -9.83982
     54       2.00000          -0.360527           -9.81043
     55       2.00000          -0.358791           -9.76319
     56       2.00000          -0.357616           -9.73122
     57       2.00000          -0.352608           -9.59494
     58       2.00000          -0.352424           -9.58993
     59       2.00000          -0.348769           -9.49050
     60       2.00000          -0.343115           -9.33664
     61       0.00000          -0.190462           -5.18272
     62       0.00000          -0.118253           -3.21783
     63       0.00000          -0.094478           -2.57087
     64       0.00000          -0.074685           -2.03228
     65       0.00000          -0.058338           -1.58747
     66       0.00000          -0.034716           -0.94466
     67       0.00000          -0.003414           -0.09290
     68       0.00000           0.002205            0.05999
     69       0.00000           0.020567            0.55966
     70       0.00000           0.031514            0.85753
     71       0.00000           0.047489            1.29223
     72       0.00000           0.083686            2.27722
     73       0.00000           0.124270            3.38155
     74       0.00000           0.137432            3.73972
     75       0.00000           0.144306            3.92677
     76       0.00000           0.157139            4.27597
     77       0.00000           0.173952            4.73348
     78       0.00000           0.182075            4.95450
     79       0.00000           0.182858            4.97581
     80       0.00000           0.196904            5.35803
     81       0.00000           0.199875            5.43888
     82       0.00000           0.203981            5.55060
     83       0.00000           0.207999            5.65994
     84       0.00000           0.216430            5.88936
     85       0.00000           0.221019            6.01425
     86       0.00000           0.227813            6.19911
     87       0.00000           0.235438            6.40659
     88       0.00000           0.252689            6.87601
     89       0.00000           0.261523            7.11639
     90       0.00000           0.278049            7.56610
     91       0.00000           0.296618            8.07140
     92       0.00000           0.308563            8.39641
     93       0.00000           0.320579            8.72341
     94       0.00000           0.336753            9.16351
     95       0.00000           0.355811            9.68211
     96       0.00000           0.359775            9.78997

  Highest occupied state (VBM) at     -9.33664320 eV
  | Occupation number:      2.00000000

  Lowest unoccupied state (CBM) at    -5.18272485 eV
  | Occupation number:      0.00000000

  Overall HOMO-LUMO gap:      4.15391835 eV.
  | Chemical Potential                          :    -8.08104874 eV

  Self-consistency cycle converged.


------------------------------------------------------------
  End self-consistency iteration #    14       :  max(cpu_time)    wall_clock(cpu1)
  | Time for this iteration                     :        0.266 s           0.265 s
  | Charge density & force component update     :        0.144 s           0.144 s
  | Density mixing                              :        0.005 s           0.003 s
  | Hartree multipole update                    :        0.001 s           0.001 s
  | Hartree multipole summation                 :        0.050 s           0.050 s
  | Hartree pot. SCF incomplete forces          :        0.032 s           0.032 s
  | Integration                                 :        0.029 s           0.029 s
  | Solution of K.-S. eqns.                     :        0.004 s           0.004 s
  | Total energy evaluation                     :        0.000 s           0.000 s

  Partial memory accounting:
  | Current value for overall tracked memory usage:
  |   Minimum:        0.274 MB (on task 23)
  |   Maximum:        0.293 MB (on task  0)
  |   Average:        0.289 MB
  | Peak value for overall tracked memory usage:
  |   Minimum:        2.952 MB (on task  0 after allocating hessian_basis_wave)
  |   Maximum:        3.148 MB (on task  2 after allocating hessian_basis_wave)
  |   Average:        3.040 MB
  | Largest tracked array allocation so far:
  |   Minimum:        1.432 MB (hessian_basis_wave on task  0)
  |   Maximum:        1.550 MB (hessian_basis_wave on task  2)
  |   Average:        1.488 MB
  Note:  These values currently only include a subset of arrays which are explicitly tracked.
  The "true" memory usage will be greater.
------------------------------------------------------------
  Removing unitary transformations (pure translations, rotations) from forces on atoms.
  Atomic forces before filtering:
  | Net force on center of mass :   0.157924E-01  0.220404E-02 -0.277738E-02 eV/A
  | Net torque on center of mass:   0.136603E-01 -0.355224E-02 -0.432552E-02 eV
  Atomic forces after filtering:
  | Net force on center of mass :   0.356812E-15  0.892031E-16  0.000000E+00 eV/A
  | Net torque on center of mass:  -0.264344E-14  0.151054E-14  0.226580E-14 eV

  Energy and forces in a compact form:
  | Total energy uncorrected      :         -0.442196791169184E+05 eV
  | Total energy corrected        :         -0.442196791169184E+05 eV  <-- do not rely on this value for anything but (periodic) metals
  | Electronic free energy        :         -0.442196791169184E+05 eV
  Total atomic forces (unitary forces cleaned) [eV/Ang]:
  |    1          0.235628141350873E+01          0.481624076889471E+00         -0.148908745287470E+01
  |    2          0.130821158900716E+01          0.301772663767953E+00          0.103754082181165E+01
  |    3         -0.354195966669171E+01         -0.770776585687469E+00         -0.311444123741319E+00
  |    4          0.101902499945713E+01          0.272918604975877E+00          0.276961455130868E+01
  |    5          0.417965742540682E+00          0.264026034940235E+01         -0.733382875517210E-02
  |    6          0.147012875331612E+01         -0.223085553489343E+01          0.849091629692464E-01
  |    7          0.234111238607729E+01          0.515346525329414E+00          0.501422308483194E+00
  |    8         -0.232833694498970E+01         -0.518533295092458E+00         -0.812389542798059E+00
  |    9         -0.534430804801086E+00         -0.314919984291272E+01         -0.113843639890072E+01
  |   10         -0.177710995286225E+01          0.260398771213629E+01         -0.124752850369537E+01
  |   11          0.179860037346127E+01          0.346426122111211E+00         -0.222685971688611E+01
  |   12         -0.252948788802363E+01         -0.492970796026487E+00          0.283959272307868E+01

  ------------------------------------ 
  Start decomposition of the XC Energy 
  ------------------------------------ 
  X and C from original XC functional choice 
  Hartree-Fock Energy :          0.000000000 Ha              0.000000000 eV
  X Energy            :       -140.110062375 Ha          -3812.588779593 eV
  C Energy            :         -4.935008879 Ha           -134.288424117 eV
  Total XC Energy     :       -145.045071254 Ha          -3946.877203710 eV
  ------------------------------------ 
  LDA X and C from self-consistent density 
  X Energy LDA        :       -132.678431966 Ha          -3610.363827088 eV
  C Energy LDA        :         -8.818888625 Ha           -239.974169238 eV
  ------------------------------------ 
  End decomposition of the XC Energy 
  ------------------------------------ 

------------------------------------------------------------

------------------------------------------------------------------------------
  Final output of selected total energy values:

  The following output summarizes some interesting total energy values
  at the end of a run (AFTER all relaxation, molecular dynamics, etc.).

  | Total energy of the DFT / Hartree-Fock s.c.f. calculation      :         -44219.679116918 eV
  | Final zero-broadening corrected energy (caution - metals only) :         -44219.679116918 eV
  | For reference only, the value of 1 Hartree used in FHI-aims is :             27.211384500 eV

  Before relying on these values, please be sure to understand exactly which
  total energy value is referred to by a given number. Different objects may
  all carry the same name 'total energy'. Definitions:

  Total energy of the DFT / Hartree-Fock s.c.f. calculation:
  | Note that this energy does not include ANY quantities calculated after the
  | s.c.f. cycle, in particular not ANY RPA, MP2, etc. many-body perturbation terms.

  Final zero-broadening corrected energy:
  | For metallic systems only, a broadening of the occupation numbers at the Fermi
  | level can be extrapolated back to zero broadening by an electron-gas inspired
  | formula. For all systems that are not real metals, this value can be
  | meaningless and should be avoided.

------------------------------------------------------------------------------
  Methods described in the following list of references were used in this FHI-aims run.
  If you publish the results, please make sure to cite these reference if they apply.
  FHI-aims is an academic code, and for our developers (often, Ph.D. students
  and postdocs), scientific credit in the community is essential.
  Thank you for helping us!

  For any use of FHI-aims, please cite:

    Volker Blum, Ralf Gehrke, Felix Hanke, Paula Havu, Ville Havu,
    Xinguo Ren, Karsten Reuter, and Matthias Scheffler
    'Ab initio molecular simulations with numeric atom-centered orbitals'
    Computer Physics Communications 180, 2175-2196 (2009)
    http://dx.doi.org/10.1016/j.cpc.2009.06.022


  The ELSI infrastructure was used in your run to solve the Kohn-Sham electronic structure.
  Please check out http://elsi-interchange.org to learn more.
  If scalability is important for your project, please acknowledge ELSI by citing:

    V. W-z. Yu, F. Corsetti, A. Garcia, W. P. Huhn, M. Jacquelin, W. Jia,
    B. Lange, L. Lin, J. Lu, W. Mi, A. Seifitokaldani, A. Vazquez-Mayagoitia,
    C. Yang, H. Yang, and V. Blum
    'ELSI: A unified software interface for Kohn-Sham electronic structure solvers'
    Computer Physics Communications 222, 267-285 (2018).
    http://dx.doi.org/10.1016/j.cpc.2017.09.007


  For the real-space grid partitioning and parallelization used in this calculation, please cite:

    Ville Havu, Volker Blum, Paula Havu, and Matthias Scheffler,
    'Efficient O(N) integration for all-electron electronic structure calculation'
    'using numerically tabulated basis functions'
    Journal of Computational Physics 228, 8367-8379 (2009).
    http://dx.doi.org/10.1016/j.jcp.2009.08.008

  Of course, there are many other important community references, e.g., those cited in the
  above references. Our list is limited to references that describe implementations in the
  FHI-aims code. The reason is purely practical (length of this list) - please credit others as well.

------------------------------------------------------------
          Leaving FHI-aims.
          Date     :  20220517, Time     :  115013.181

          Computational steps:
          | Number of self-consistency cycles          :           14
          | Number of SCF (re)initializations          :            1

          Detailed time accounting                     :  max(cpu_time)    wall_clock(cpu1)
          | Total time                                  :        1.894 s           1.958 s
          | Preparation time                            :        0.184 s           0.185 s
          | Boundary condition initalization            :        0.000 s           0.000 s
          | Grid partitioning                           :        0.034 s           0.035 s
          | Preloading free-atom quantities on grid     :        0.015 s           0.015 s
          | Free-atom superposition energy              :        0.005 s           0.005 s
          | Total time for integrations                 :        0.449 s           0.449 s
          | Total time for solution of K.-S. equations  :        0.067 s           0.067 s
          | Total time for density & force components   :        0.640 s           0.641 s
          | Total time for mixing                       :        0.060 s           0.030 s
          | Total time for Hartree multipole update     :        0.018 s           0.018 s
          | Total time for Hartree multipole sum        :        0.304 s           0.304 s
          | Total time for total energy evaluation      :        0.002 s           0.002 s
          | Total time NSC force correction             :        0.064 s           0.064 s
          | Total time for scaled ZORA corrections      :        0.000 s           0.000 s

          Partial memory accounting:
          | Residual value for overall tracked memory usage across tasks:     0.000000 MB (should be 0.000000 MB)
          | Peak values for overall tracked memory usage:
          |   Minimum:        2.952 MB (on task  0 after allocating hessian_basis_wave)
          |   Maximum:        3.148 MB (on task  2 after allocating hessian_basis_wave)
          |   Average:        3.040 MB
          | Largest tracked array allocation:
          |   Minimum:        1.432 MB (hessian_basis_wave on task  0)
          |   Maximum:        1.550 MB (hessian_basis_wave on task  2)
          |   Average:        1.488 MB
          Note:  These values currently only include a subset of arrays which are explicitly tracked.
          The "true" memory usage will be greater.

          Have a nice day.
------------------------------------------------------------
