------------------------------------------------------------
          Invoking FHI-aims ...

          When using FHI-aims, please cite the following reference:

            Volker Blum, Ralf Gehrke, Felix Hanke, Paula Havu,
            Ville Havu, Xinguo Ren, Karsten Reuter, and Matthias Scheffler,
            'Ab Initio Molecular Simulations with Numeric Atom-Centered Orbitals',
            Computer Physics Communications 180, 2175-2196 (2009)

          In addition, many other developments in FHI-aims are likely important for
          your particular application. A partial list of references is given at the end of
          this file. Thank you for giving credit to the authors of these developments.

          For any questions about FHI-aims, please visit our slack channel at

            https://fhi-aims.slack.com

          and our main development and support site at

            https://aims-git.rz-berlin.mpg.de .

          The latter site, in particular, has a wiki to collect information, as well
          as an issue tracker to log discussions, suggest improvements, and report issues
          or bugs. https://aims-git.rz-berlin.mpg.de is also the main development site
          of the project and all new and updated code versions can be obtained there.
          Please send an email to aims-coordinators@fhi-berlin.mpg.de and we will add
          you to these sites. They are for you and everyone is welcome there.

------------------------------------------------------------



  Date     :  20220517, Time     :  115700.104
  Time zero on CPU 1             :   0.401580000000000E-01  s.
  Internal wall clock time zero  :           422020620.104  s.

  FHI-aims created a unique identifier for this run for later identification
  aims_uuid : 89BF9643-2F17-438E-A5E3-C9EEE584D072

  Build configuration of the current instance of FHI-aims
  -------------------------------------------------------
  FHI-aims version      : 210914
  Commit number         : GITDIR-NOTFOUND
  CMake host system     : Linux-3.10.0-693.17.1.el7.x86_64
  CMake version         : 3.21.1
  Fortran compiler      : /shared/ucl/apps/intel/2018.Update3/impi/2018.3.222/intel64/bin/mpiifort (Intel) version 18.0.3.20180410
  Fortran compiler flags: -O3 -ip -fp-model precise
  C compiler            : /shared/ucl/apps/intel/2018.Update3/compilers_and_libraries_2018.3.222/linux/bin/intel64/icc (Intel) version 18.0.3.20180410
  C compiler flags      : -O3 -ip -fp-model precise -std=gnu99
  ELPA2 kernel          : AVX2
  Using MPI
  Using ScaLAPACK
  Using LibXC
  Using i-PI
  Using RLSY
  Linking against: /shared/ucl/apps/intel/2019.Update5/compilers_and_libraries_2019.5.281/linux/mkl/lib/intel64/libmkl_intel_lp64.so
                   /shared/ucl/apps/intel/2019.Update5/compilers_and_libraries_2019.5.281/linux/mkl/lib/intel64/libmkl_sequential.so
                   /shared/ucl/apps/intel/2019.Update5/compilers_and_libraries_2019.5.281/linux/mkl/lib/intel64/libmkl_core.so
                   /shared/ucl/apps/intel/2019.Update5/compilers_and_libraries_2019.5.281/linux/mkl/lib/intel64/libmkl_blacs_intelmpi_lp64.so
                   /shared/ucl/apps/intel/2019.Update5/compilers_and_libraries_2019.5.281/linux/mkl/lib/intel64/libmkl_scalapack_lp64.so

  Using       24 parallel tasks.
  Task        0 on host node-k98a-018 reporting.
  Task        1 on host node-k98a-018 reporting.
  Task        2 on host node-k98a-018 reporting.
  Task        3 on host node-k98a-018 reporting.
  Task        4 on host node-k98a-018 reporting.
  Task        5 on host node-k98a-018 reporting.
  Task        6 on host node-k98a-018 reporting.
  Task        7 on host node-k98a-018 reporting.
  Task        8 on host node-k98a-018 reporting.
  Task        9 on host node-k98a-018 reporting.
  Task       10 on host node-k98a-018 reporting.
  Task       11 on host node-k98a-018 reporting.
  Task       12 on host node-k98a-018 reporting.
  Task       13 on host node-k98a-018 reporting.
  Task       14 on host node-k98a-018 reporting.
  Task       15 on host node-k98a-018 reporting.
  Task       16 on host node-k98a-018 reporting.
  Task       17 on host node-k98a-018 reporting.
  Task       18 on host node-k98a-018 reporting.
  Task       19 on host node-k98a-018 reporting.
  Task       20 on host node-k98a-018 reporting.
  Task       21 on host node-k98a-018 reporting.
  Task       22 on host node-k98a-018 reporting.
  Task       23 on host node-k98a-018 reporting.

  Performing system and environment tests:
  | Environment variable OMP_NUM_THREADS correctly set to 1.
  | Checking for ScaLAPACK...
  | Testing pdtran()...
  | All pdtran() tests passed.

  Obtaining array dimensions for all initial allocations:
  
  -----------------------------------------------------------------------
  Parsing control.in (first pass over file, find array dimensions only).
  The contents of control.in will be repeated verbatim below
  unless switched off by setting 'verbatim_writeout .false.' .
  in the first line of control.in .
  -----------------------------------------------------------------------
  
  #########################################################################################  Physical model
  #########################################################################################
  xc                 pbesol
  spin               none
  relativistic       atomic_zora scalar
  charge             0.0
  #  SCF convergence
  occupation_type    gaussian 0.01
  mixer              pulay
  n_max_pulay        10
  charge_mix_param   0.5
  sc_accuracy_rho    1E-5
  sc_accuracy_eev    1E-3
  sc_accuracy_etot   1E-6
  sc_accuracy_forces 1E-4
  sc_iter_limit      1500
  #  Relaxation
  #relax_geometry   bfgs 1.e-3
  
  ################################################################################
  #
  #  FHI-aims code project
  #  VB, Fritz-Haber Institut, 2009
  #
  #  Suggested "light" defaults for Al atom (to be pasted into control.in file)
  #  Be sure to double-check any results obtained with these settings for post-processing,
  #  e.g., with the "tight" defaults and larger basis sets.
  #
  ################################################################################
    species        Al
  #     global species definitions
      nucleus             13
      mass                26.9815386
  #
      l_hartree           4
  #
      cut_pot             3.5          1.5  1.0
      basis_dep_cutoff    1e-4
  #
      radial_base         41 5.0
      radial_multiplier   1
      angular_grids       specified
        division   0.6594  110
        division   0.8170  194
        division   0.9059  302
  #      division   1.0363  434
  #      division   1.1443  590
  #      division   1.2621  770
  #      division   2.8177  974
  #      outer_grid   974
        outer_grid   302
  ################################################################################
  #
  #  Definition of "minimal" basis
  #
  ################################################################################
  #     valence basis states
      valence      3  s   2.
      valence      3  p   1.
  #     ion occupancy
      ion_occ      3  s   1.
      ion_occ      2  p   6.
  ################################################################################
  #
  #  Suggested additional basis functions. For production calculations,
  #  uncomment them one after another (the most important basis functions are
  #  listed first).
  #
  #  Constructed for dimers: 2.0 A, 2.5 A, 3.0 A, 3.75 A, 4.5 A
  #
  ################################################################################
  #  "First tier" - improvements: -199.47 meV to -10.63 meV
       ionic 3 d auto
       ionic 3 p auto
  #     hydro 4 f 4.7
       ionic 3 s auto
  #  "Second tier" - improvements: -5.35 meV to -1.57 meV
  #     hydro 5 g 7
  #     hydro 3 d 6
  #     hydro 2 s 11.6
  #     hydro 2 p 0.9
  #  "Third tier" - improvements: -0.63 meV to -0.20 meV
  #     hydro 5 f 7.6
  #     hydro 4 p 7.2
  #     hydro 4 s 3.7
  #     hydro 4 d 7.6
  #  "Fourth tier" - improvements: -0.17 meV to -0.08 meV
  #     hydro 4 d 13.6
  #     hydro 5 g 11.2
  #     hydro 4 d 0.9
  #     hydro 1 s 0.4
  #     hydro 4 p 0.1
  #     hydro 5 f 9.8
  #  Further basis functions that fell out of the optimization - noise level...
  #     hydro 4 p 5
  
  ################################################################################
  #
  #  FHI-aims code project
  #  VB, Fritz-Haber Institut, 2009
  #
  #  Suggested "light" defaults for F atom (to be pasted into control.in file)
  #  Be sure to double-check any results obtained with these settings for post-processing,
  #  e.g., with the "tight" defaults and larger basis sets.
  #
  ################################################################################
    species        F
  #     global species definitions
      nucleus             9
      mass                18.9984032
  #
      l_hartree           4
  #
      cut_pot             3.5  1.5  1.0
      basis_dep_cutoff    1e-4
  #
      radial_base         37 5.0
      radial_multiplier   1
      angular_grids specified
        division   0.4014  110
        division   0.5291  194
        division   0.6019  302
  #      division   0.6814  434
  #      division   0.7989  590
  #      division   0.8965  770
  #      division   1.3427  974
  #      outer_grid   974
        outer_grid   302
  ################################################################################
  #
  #  Definition of "minimal" basis
  #
  ################################################################################
  #     valence basis states
      valence      2  s   2.
      valence      2  p   5.
  #     ion occupancy
      ion_occ      2  s   1.
      ion_occ      2  p   4.
  ################################################################################
  #
  #  Suggested additional basis functions. For production calculations,
  #  uncomment them one after another (the most important basis functions are
  #  listed first).
  #
  #  Constructed for dimers: 1.2 A, 1.418 A, 1.75 A, 2.25 A, 3.25 A
  #
  ################################################################################
  #  "First tier" - improvements: -149.44 meV to -45.88 meV
       hydro 2 p 1.7
       hydro 3 d 7.4
       hydro 3 s 6.8
  #  "Second tier" - improvements: -12.96 meV to -1.56 meV
  #     hydro 4 f 11.2
  #     ionic 2 p auto
  #     hydro 1 s 0.75
  #     hydro 4 d 8.8
  #     hydro 5 g 16.8
  #  "Third tier" - improvements: -0.58 meV to -0.05 meV
  #     hydro 3 p 6.2
  #     hydro 3 s 3.2
  #     hydro 4 f 9.6
  #     hydro 3 s 19.6
  #     hydro 4 d 8.6
  #     hydro 5 g 14.4
  # Further basis functions: -0.05 meV and below
  #     hydro 3 p 4.2
  
  -----------------------------------------------------------------------
  Completed first pass over input file control.in .
  -----------------------------------------------------------------------
  
  
  -----------------------------------------------------------------------
  Parsing geometry.in (first pass over file, find array dimensions only).
  The contents of geometry.in will be repeated verbatim below
  unless switched off by setting 'verbatim_writeout .false.' .
  in the first line of geometry.in .
  -----------------------------------------------------------------------
  
  atom -0.291008038 1.049956160 -1.773157336 Al
  atom -0.436854781 1.076822491 1.288199601 Al
  atom -2.925125703 0.479819078 -1.817990609 Al
  atom -3.559930855 0.306970936 -3.687430561 F
  atom -1.416486958 -0.574019504 -1.844919938 F
  atom -1.985899293 2.060701389 -1.895170761 F
  atom -2.048767777 0.712453855 0.449004109 F
  atom 0.567453416 1.262521897 -0.355593775 F
  atom -0.302945381 2.731915204 1.988705371 F
  atom 0.362823808 -0.348665071 2.047457158 F
  atom -4.320941367 0.202549126 -0.539100913 F
  atom 0.734868019 1.244033103 -3.222053844 F
  
  -----------------------------------------------------------------------
  Completed first pass over input file geometry.in .
  -----------------------------------------------------------------------
  

  Basic array size parameters:
  | Number of species                 :        2
  | Number of atoms                   :       12
  | Max. basis fn. angular momentum   :        2
  | Max. atomic/ionic basis occupied n:        3
  | Max. number of basis fn. types    :        3
  | Max. radial fns per species/type  :        5
  | Max. logarithmic grid size        :     1340
  | Max. radial integration grid size :       41
  | Max. angular integration grid size:      302
  | Max. angular grid division number :        8
  | Radial grid for Hartree potential :     1340
  | Number of spin channels           :        1

------------------------------------------------------------
          Reading file control.in.
------------------------------------------------------------
  XC: Using PBEsol gradient-corrected functionals.
  Spin treatment: No spin polarisation.
  Scalar relativistic treatment of kinetic energy: on-site free-atom approximation to ZORA.
  Charge =   0.000000E+00: Neutral system requested explicitly.
  Occupation type: Gaussian broadening, width =   0.100000E-01 eV.
  Using pulay charge density mixing.
  Pulay mixing - number of memorized iterations:   10
  Charge density mixing - mixing parameter:     0.5000
  Convergence accuracy of self-consistent charge density:  0.1000E-04
  Convergence accuracy of sum of eigenvalues:  0.1000E-02
  Convergence accuracy of total energy:  0.1000E-05
  Convergence accuracy of forces:  0.1000E-03
  Maximum number of s.-c. iterations  :  1500
 
  Reading configuration options for species Al                  .
  | Found nuclear charge :  13.0000
  | Found atomic mass :    26.9815386000000      amu
  | Found l_max for Hartree potential  :   4
  | Found cutoff potl. onset [A], width [A], scale factor :    3.50000    1.50000    1.00000
  | Threshold for basis-dependent cutoff potential is   0.100000E-03
  | Found data for basic radial integration grid :    41 points, outermost radius =    5.000 A
  | Found multiplier for basic radial grid :   1
  | Found angular grid specification: user-specified.
  | Specified grid contains     4 separate shells.
  | Check grid settings after all constraints further below.
  | Found free-atom valence shell :  3 s   2.000
  | Found free-atom valence shell :  3 p   1.000
  | Found free-ion valence shell :  3 s   1.000
  | Found free-ion valence shell :  2 p   6.000
  | Found ionic basis function :  3 d , default cutoff radius.
  | Found ionic basis function :  3 p , default cutoff radius.
  | Found ionic basis function :  3 s , default cutoff radius.
  Species Al                  : Missing cutoff potential type.
  Defaulting to exp(1/x)/(1-x)^2 type cutoff potential.
  Species Al: No 'logarithmic' tag. Using default grid for free atom:
  | Default logarithmic grid data [bohr] : 0.1000E-03 0.1000E+03 0.1012E+01
  | Will include ionic basis functions of  2.0-fold positive Al                   ion.
  Species Al: On-site basis accuracy parameter (for Gram-Schmidt orthonormalisation) not specified.
  Using default value basis_acc =  0.1000000E-03.
  Species Al                  : Using default innermost maximum threshold i_radial=  2 for radial functions.
  Species Al                  : Default cutoff onset for free atom density etc. : 0.35000000E+01 AA.
  Species Al                  : Basic radial grid will be enhanced according to radial_multiplier =   1, to contain    41 grid points.
 
  Reading configuration options for species F                   .
  | Found nuclear charge :   9.0000
  | Found atomic mass :    18.9984032000000      amu
  | Found l_max for Hartree potential  :   4
  | Found cutoff potl. onset [A], width [A], scale factor :    3.50000    1.50000    1.00000
  | Threshold for basis-dependent cutoff potential is   0.100000E-03
  | Found data for basic radial integration grid :    37 points, outermost radius =    5.000 A
  | Found multiplier for basic radial grid :   1
  | Found angular grid specification: user-specified.
  | Specified grid contains     4 separate shells.
  | Check grid settings after all constraints further below.
  | Found free-atom valence shell :  2 s   2.000
  | Found free-atom valence shell :  2 p   5.000
  | Found free-ion valence shell :  2 s   1.000
  | Found free-ion valence shell :  2 p   4.000
  | Found hydrogenic basis function :  2 p   1.700
  | Found hydrogenic basis function :  3 d   7.400
  | Found hydrogenic basis function :  3 s   6.800
  Species F                   : Missing cutoff potential type.
  Defaulting to exp(1/x)/(1-x)^2 type cutoff potential.
  Species F : No 'logarithmic' tag. Using default grid for free atom:
  | Default logarithmic grid data [bohr] : 0.1000E-03 0.1000E+03 0.1012E+01
  Species F : On-site basis accuracy parameter (for Gram-Schmidt orthonormalisation) not specified.
  Using default value basis_acc =  0.1000000E-03.
  Species F                   : Using default innermost maximum threshold i_radial=  2 for radial functions.
  Species F                   : Default cutoff onset for free atom density etc. : 0.35000000E+01 AA.
  Species F                   : Basic radial grid will be enhanced according to radial_multiplier =   1, to contain    37 grid points.
 
  Finished reading input file 'control.in'.
 
------------------------------------------------------------


------------------------------------------------------------
          Reading geometry description geometry.in.
------------------------------------------------------------
  | The smallest distance between any two atoms is         1.67081618 AA.
  | The first atom of this pair is atom number                      1 .
  | The second atom of this pair is atom number                     8 .
  Input structure read successfully.
  The structure contains       12 atoms,  and a total of        120.000 electrons.

  Input geometry:
  | No unit cell requested.
  | Atomic structure:
  |       Atom                x [A]            y [A]            z [A]
  |    1: Species Al           -0.29100804        1.04995616       -1.77315734
  |    2: Species Al           -0.43685478        1.07682249        1.28819960
  |    3: Species Al           -2.92512570        0.47981908       -1.81799061
  |    4: Species F            -3.55993086        0.30697094       -3.68743056
  |    5: Species F            -1.41648696       -0.57401950       -1.84491994
  |    6: Species F            -1.98589929        2.06070139       -1.89517076
  |    7: Species F            -2.04876778        0.71245386        0.44900411
  |    8: Species F             0.56745342        1.26252190       -0.35559378
  |    9: Species F            -0.30294538        2.73191520        1.98870537
  |   10: Species F             0.36282381       -0.34866507        2.04745716
  |   11: Species F            -4.32094137        0.20254913       -0.53910091
  |   12: Species F             0.73486802        1.24403310       -3.22205384

 
  Finished reading input file 'control.in'.
 

------------------------------------------------------------
          Reading geometry description geometry.in.
------------------------------------------------------------
 
  Consistency checks for stacksize environment parameter are next.
 
  | Maximum stacksize for task 0: unlimited
  | Maximum stacksize for task 1: unlimited
  | Maximum stacksize for task 2: unlimited
  | Maximum stacksize for task 3: unlimited
  | Maximum stacksize for task 4: unlimited
  | Maximum stacksize for task 5: unlimited
  | Maximum stacksize for task 6: unlimited
  | Maximum stacksize for task 7: unlimited
  | Maximum stacksize for task 8: unlimited
  | Maximum stacksize for task 9: unlimited
  | Maximum stacksize for task 10: unlimited
  | Maximum stacksize for task 11: unlimited
  | Maximum stacksize for task 12: unlimited
  | Maximum stacksize for task 13: unlimited
  | Maximum stacksize for task 14: unlimited
  | Maximum stacksize for task 15: unlimited
  | Maximum stacksize for task 16: unlimited
  | Maximum stacksize for task 17: unlimited
  | Maximum stacksize for task 18: unlimited
  | Maximum stacksize for task 19: unlimited
  | Maximum stacksize for task 20: unlimited
  | Maximum stacksize for task 21: unlimited
  | Maximum stacksize for task 22: unlimited
  | Maximum stacksize for task 23: unlimited
  | Current stacksize for task 0: unlimited
  | Current stacksize for task 1: unlimited
  | Current stacksize for task 2: unlimited
  | Current stacksize for task 3: unlimited
  | Current stacksize for task 4: unlimited
  | Current stacksize for task 5: unlimited
  | Current stacksize for task 6: unlimited
  | Current stacksize for task 7: unlimited
  | Current stacksize for task 8: unlimited
  | Current stacksize for task 9: unlimited
  | Current stacksize for task 10: unlimited
  | Current stacksize for task 11: unlimited
  | Current stacksize for task 12: unlimited
  | Current stacksize for task 13: unlimited
  | Current stacksize for task 14: unlimited
  | Current stacksize for task 15: unlimited
  | Current stacksize for task 16: unlimited
  | Current stacksize for task 17: unlimited
  | Current stacksize for task 18: unlimited
  | Current stacksize for task 19: unlimited
  | Current stacksize for task 20: unlimited
  | Current stacksize for task 21: unlimited
  | Current stacksize for task 22: unlimited
  | Current stacksize for task 23: unlimited
 
  Consistency checks for the contents of control.in are next.
 
  MPI_IN_PLACE appears to work with this MPI implementation.
  | Keeping use_mpi_in_place .true. (see manual).
  Target number of points in a grid batch is not set. Defaulting to  100
  Method for grid partitioning is not set. Defaulting to parallel hash+maxmin partitioning.
  Batch size limit is not set. Defaulting to    200
  By default, will store active basis functions for each batch.
  If in need of memory, prune_basis_once .false. can be used to disable this option.
  communication_type for Hartree potential was not specified.
  Defaulting to calc_hartree .
  Pulay mixer: Number of initial linear mixing iterations not set.
  Defaulting to    0 iterations.
  Work space size for distributed Hartree potential not set.
  Defaulting to   0.200000E+03 MB.
  Algorithm-dependent basis array size parameters:
  | n_max_pulay                         :       10
  Presetting      1001 iterations before the initial mixing cycle
  is restarted anyway using the sc_init_iter criterion / keyword.
  Presetting a factor      1.000 between actual scf density residual
  and density convergence criterion sc_accuracy_rho below which sc_init_iter
  takes no effect.
  Geometry relaxation not requested: no relaxation will be performed.
  Forces evaluation will include force correction term due to incomplete self-consistency (default).
  Handling of forces: Unphysical translation and rotation will be removed from forces.
  No accuracy limit for integral partition fn. given. Defaulting to  0.1000E-14.
  No threshold value for u(r) in integrations given. Defaulting to  0.1000E-05.
  No accuracy for occupation numbers given. Defaulting to  0.1000E-12.
  No threshold value for occupation numbers given. Defaulting to  0.0000E+00.
  No accuracy for fermi level given. Defaulting to  0.1000E-19.
  Maximum # of iterations to find E_F not set. Defaulting to  200.
  Preferred method for the eigenvalue solver ('KS_method') not specified in 'control.in'.
  Calling BLACS routine to test compilation state
  Since ScaLAPACK support is enabled, defaulting to ELPA (via ELSI).
  Will not use alltoall communication since running on < 1024 CPUs.
  Threshold for basis singularities not set.
  Default threshold for basis singularities:  0.1000E-04
  partition_type (choice of integration weights) for integrals was not specified.
  | Using a version of the partition function of Stratmann and coworkers ('stratmann_sparse').
  | At each grid point, the set of atoms used to build the partition table is smoothly restricted to
  | only those atoms whose free-atom density would be non-zero at that grid point.
  Partitioning for Hartree potential was not defined. Using partition_type for integrals.
  | Adjusted default value of keyword multip_moments_threshold to:       0.10000000E-11
  | This value may affect high angular momentum components of the Hartree potential in periodic systems.
  No q(lm)/r^(l+1) cutoff set for long-range Hartree potential.
  | Using default value of  0.100000E-09 .
  | Verify using the multipole_threshold keyword.
  Defaulting to new monopole extrapolation.
  Density update method: automatic selection selected.
  Charge integration errors on the 3D integration grid will be compensated
  by explicit normalization and distribution of residual charges.
  Use the "compensate_multipole_errors" flag to change this behaviour.
  Set 'collect_eigenvectors' to be '.true.' for use_density_matrix .false.
 
  Consistency checks for the contents of geometry.in are next.
 
  Number of empty states per atom not set in control.in - providing a guess from actual geometry.
  | Total number of empty states used during s.c.f. cycle:       36
  If you use a very high smearing, use empty_states (per atom!) in control.in to increase this value.

  Structure-dependent array size parameters: 
  | Maximum number of distinct radial functions  :       14
  | Maximum number of basis functions            :      180
  | Number of Kohn-Sham states (occupied + empty):       96
------------------------------------------------------------

------------------------------------------------------------
          Preparing all fixed parts of the calculation.
------------------------------------------------------------
  Determining machine precision:
    2.225073858507201E-308
  Setting up grids for atomic and cluster calculations.

  Creating wave function, potential, and density for free atoms.

  Species: Al

  List of occupied orbitals and eigenvalues:
    n    l              occ      energy [Ha]    energy [eV]
    1    0           2.0000       -55.621123     -1513.5278
    2    0           2.0000        -3.957030      -107.6763
    3    0           2.0000        -0.272233        -7.4078
    2    1           6.0000        -2.540949       -69.1427
    3    1           1.0000        -0.083300        -2.2667


  Species: F

  List of occupied orbitals and eigenvalues:
    n    l              occ      energy [Ha]    energy [eV]
    1    0           2.0000       -24.399611      -663.9472
    2    0           2.0000        -1.098702       -29.8972
    2    1           5.0000        -0.408210       -11.1080


  Adding cutoff potential to free-atom effective potential.
  Creating fixed part of basis set: Ionic, confined, hydrogenic.
 
  Al                   ion:

  List of free ionic orbitals and eigenvalues:
    n    l      energy [Ha]    energy [eV]
    1    0       -56.418846     -1535.2349
    2    0        -4.732717      -128.7838
    3    0        -0.872690       -23.7471
    2    1        -3.317230       -90.2664


  List of ionic basis orbitals and eigenvalues:
    n    l      energy [Ha]    energy [eV]    outer radius [A]
    3    2        -0.346815        -9.4373       4.594041
    3    1        -0.631870       -17.1940       4.538221
    3    0        -0.872657       -23.7462       4.538221

 
  F                    hydrogenic:
 
  List of hydrogenic basis orbitals: 
    n    l      effective z      eigenvalue [eV]  inner max. [A]     outer max. [A]     outer radius [A]   
    2    1         1.700000        -9.7616           1.243167           1.243167           4.598524
    3    2         7.400000       -82.7828           0.642437           0.642437           3.305741
    3    0         6.800000       -69.9026           0.057798           1.022307           3.781556
 
  Creating atomic-like basis functions for current effective potential.

  Species Al                  :

  List of atomic basis orbitals and eigenvalues:
    n    l      energy [Ha]    energy [eV]    outer radius [A]
    1    0       -55.621123     -1513.5278       0.850197
    2    0        -3.957030      -107.6763       3.144911
    3    0        -0.272233        -7.4078       4.594041
    2    1        -2.540949       -69.1427       3.731966
    3    1        -0.083300        -2.2667       4.594041


  Species F                   :

  List of atomic basis orbitals and eigenvalues:
    n    l      energy [Ha]    energy [eV]    outer radius [A]
    1    0       -24.399611      -663.9472       1.258458
    2    0        -1.098702       -29.8972       4.325857
    2    1        -0.408210       -11.1080       4.487453

  Assembling full basis from fixed parts.
  | Species Al :   atomic orbital   1 s accepted.
  | Species Al :   atomic orbital   2 s accepted.
  | Species Al :    ionic orbital   3 s accepted.
  | Species Al :   atomic orbital   3 s accepted.
  | Species Al :   atomic orbital   2 p accepted.
  | Species Al :    ionic orbital   3 p accepted.
  | Species Al :   atomic orbital   3 p accepted.
  | Species Al :    ionic orbital   3 d accepted.
  | Species F :   atomic orbital   1 s accepted.
  | Species F :    hydro orbital   3 s accepted.
  | Species F :   atomic orbital   2 s accepted.
  | Species F :   atomic orbital   2 p accepted.
  | Species F :    hydro orbital   2 p accepted.
  | Species F :    hydro orbital   3 d accepted.
 
  Basis size parameters after reduction:
  | Total number of radial functions:       14
  | Total number of basis functions :      180
 
  Per-task memory consumption for arrays in subroutine allocate_ext:
  |           4.807768MB.
  Testing on-site integration grid accuracy.
  |  Species  Function  <phi|h_atom|phi> (log., in eV)  <phi|h_atom|phi> (rad., in eV)
           1        1              -1513.5277717935              -1513.5271881332
           1        2               -107.6762691836               -107.6762662489
           1        3                 -6.9467474784                 -6.9471269649
           1        4                  5.5771951849                  5.4862107220 ***
           1        5                -69.1427313144                -69.1427312731
           1        6                 -1.5197375330                 -1.5230432022
           1        7                  6.8210948310                  6.5529872240 ***
           1        8                  4.3216540965                  4.2851170187 ***
           2        9               -663.9471986398               -663.9470363334
           2       10                 16.8514011578                 16.8512525338
           2       11                -28.4490593856                -28.4490661472
           2       12                -11.1080115307                -11.1080620173
           2       13                  7.1940182175                  7.1685154137
           2       14                 44.8544281765                 44.8543763625
 * Note: Onsite integrals marked "***" above are less accurate than
 * onsite_accuracy_threshold =    0.03000 eV. Usually, this is harmless.
 * When in doubt, tighten the "radial" and/or "radial_multiplier" flags to check.

  Preparing densities etc. for the partition functions (integrals / Hartree potential).

  Preparations completed.
  max(cpu_time)          :      0.184 s.
  Wall clock time (cpu1) :      0.184 s.
------------------------------------------------------------

------------------------------------------------------------
          Begin self-consistency loop: Initialization.

          Date     :  20220517, Time     :  115700.332
------------------------------------------------------------

  Initializing index lists of integration centers etc. from given atomic structure:
  | Number of centers in hartree potential         :        12
  | Number of centers in hartree multipole         :        12
  | Number of centers in electron density summation:        12
  | Number of centers in basis integrals           :        12
  | Number of centers in integrals                 :        12
  | Number of centers in hamiltonian               :        12
  * Using 24 tasks for Scalapack Eigenvalue solver.
  Detailed listing of tasks and assigned k-points:
  (for non-periodic systems, the "k-point" denotes an internal label only)
   Task     0 k-point     1 on node-k98a-018
   Task     1 k-point     1 on node-k98a-018
   Task     2 k-point     1 on node-k98a-018
   Task     3 k-point     1 on node-k98a-018
   Task     4 k-point     1 on node-k98a-018
   Task     5 k-point     1 on node-k98a-018
   Task     6 k-point     1 on node-k98a-018
   Task     7 k-point     1 on node-k98a-018
   Task     8 k-point     1 on node-k98a-018
   Task     9 k-point     1 on node-k98a-018
   Task    10 k-point     1 on node-k98a-018
   Task    11 k-point     1 on node-k98a-018
   Task    12 k-point     1 on node-k98a-018
   Task    13 k-point     1 on node-k98a-018
   Task    14 k-point     1 on node-k98a-018
   Task    15 k-point     1 on node-k98a-018
   Task    16 k-point     1 on node-k98a-018
   Task    17 k-point     1 on node-k98a-018
   Task    18 k-point     1 on node-k98a-018
   Task    19 k-point     1 on node-k98a-018
   Task    20 k-point     1 on node-k98a-018
   Task    21 k-point     1 on node-k98a-018
   Task    22 k-point     1 on node-k98a-018
   Task    23 k-point     1 on node-k98a-018
  Tasks:    24 split into      6 X      4 BLACS grid
  Calculating block size based on n_basis =          180  max_nprow =            6  max_npcol =            4
  ScaLAPACK block size set to:           16
  Allocating        0.012 MB for ovlp
  Allocating        0.012 MB for ham
  Allocating        0.012 MB for eigenvec
  Required Scalapack workspace - INTEGER:            1  REAL:             1
  Partitioning the integration grid into batches with parallel hashing+maxmin method.
  | Number of batches:     1072
  | Maximal batch size:     190
  | Minimal batch size:      22
  | Average batch size:      85.746
  | Standard deviation of batch sizes:      26.660

  Integration load balanced across    24 MPI tasks.
  Work distribution over tasks is as follows:
  Task     0 has       3901 integration points.
  Task     1 has       3789 integration points.
  Task     2 has       3751 integration points.
  Task     3 has       3777 integration points.
  Task     4 has       3754 integration points.
  Task     5 has       3837 integration points.
  Task     6 has       3854 integration points.
  Task     7 has       3894 integration points.
  Task     8 has       3897 integration points.
  Task     9 has       3748 integration points.
  Task    10 has       3847 integration points.
  Task    11 has       3907 integration points.
  Task    12 has       3903 integration points.
  Task    13 has       3757 integration points.
  Task    14 has       3877 integration points.
  Task    15 has       3909 integration points.
  Task    16 has       3761 integration points.
  Task    17 has       3761 integration points.
  Task    18 has       3793 integration points.
  Task    19 has       3823 integration points.
  Task    20 has       3819 integration points.
  Task    21 has       3842 integration points.
  Task    22 has       3913 integration points.
  Task    23 has       3806 integration points.
  Initializing partition tables, free-atom densities, potentials, etc. across the integration grid (initialize_grid_storage).
  | initialize_grid_storage: Actual outermost partition radius vs. multipole_radius_free
  | (-- VB: in principle, multipole_radius_free should be larger, hence this output)
  | Species        1: Confinement radius =              4.999999999999999 AA, multipole_radius_free =              5.004487022111096 AA.
  | Species        1: outer_partition_radius set to              5.004487022111096 AA .
  | Species        2: Confinement radius =              4.999999999999999 AA, multipole_radius_free =              5.009370088163274 AA.
  | Species        2: outer_partition_radius set to              5.009370088163274 AA .
  | The sparse table of interatomic distances needs          1.64 kbyte instead of         1.15 kbyte of memory.
  | Using the partition_type stratmann_smoother will reduce your memory usage.
  | Net number of integration points:    91920
  | of which are non-zero points    :    85681
  Renormalizing the initial density to the exact electron count on the 3D integration grid.
  | Initial density: Formal number of electrons (from input files) :     120.0000000000
  | Integrated number of electrons on 3D grid     :     119.9999835358
  | Charge integration error                      :      -0.0000164642
  | Normalization factor for density and gradient :       1.0000001372
  Renormalizing the free-atom superposition density to the exact electron count on the 3D integration grid.
  | Formal number of electrons (from input files) :     120.0000000000
  | Integrated number of electrons on 3D grid     :     119.9999835358
  | Charge integration error                      :      -0.0000164642
  | Normalization factor for density and gradient :       1.0000001372
  Obtaining max. number of non-zero basis functions in each batch (get_n_compute_maxes).
  | Maximal number of non-zero basis functions:      166 in task     0
  | Maximal number of non-zero basis functions:      171 in task     1
  | Maximal number of non-zero basis functions:      164 in task     2
  | Maximal number of non-zero basis functions:      164 in task     3
  | Maximal number of non-zero basis functions:      165 in task     4
  | Maximal number of non-zero basis functions:      172 in task     5
  | Maximal number of non-zero basis functions:      165 in task     6
  | Maximal number of non-zero basis functions:      165 in task     7
  | Maximal number of non-zero basis functions:      163 in task     8
  | Maximal number of non-zero basis functions:      160 in task     9
  | Maximal number of non-zero basis functions:      170 in task    10
  | Maximal number of non-zero basis functions:      166 in task    11
  | Maximal number of non-zero basis functions:      170 in task    12
  | Maximal number of non-zero basis functions:      158 in task    13
  | Maximal number of non-zero basis functions:      166 in task    14
  | Maximal number of non-zero basis functions:      162 in task    15
  | Maximal number of non-zero basis functions:      163 in task    16
  | Maximal number of non-zero basis functions:      163 in task    17
  | Maximal number of non-zero basis functions:      166 in task    18
  | Maximal number of non-zero basis functions:      165 in task    19
  | Maximal number of non-zero basis functions:      158 in task    20
  | Maximal number of non-zero basis functions:      163 in task    21
  | Maximal number of non-zero basis functions:      165 in task    22
  | Maximal number of non-zero basis functions:      165 in task    23
  Selecting the method for density update.
  Loop over occupied states selected for charge density update.
  Allocating        0.132 MB for KS_eigenvector
  Integrating Hamiltonian matrix: batch-based integration.
  Time summed over all CPUs for integration: real work        0.706 s, elapsed        0.742 s
  Integrating overlap matrix.
  Time summed over all CPUs for integration: real work        0.275 s, elapsed        0.304 s
  Deallocating overlap matrix.

  Updating Kohn-Sham eigenvalues and eigenvectors using ELSI and the ELPA eigensolver.
  Overlap matrix is not singular
  | Lowest and highest eigenvalues :  0.3405E-02,  0.5227E+01
  Finished singularity check of overlap matrix
  | Time :     0.004 s
  Starting ELPA eigensolver
  Finished Cholesky decomposition
  | Time :     0.001 s
  Finished transformation to standard eigenproblem
  | Time :     0.001 s
  Finished solving standard eigenproblem
  | Time :     0.004 s
  Finished back-transformation of eigenvectors
  | Time :     0.000 s

  Obtaining occupation numbers and chemical potential using ELSI.
  | Chemical potential (Fermi level):    -7.70676471 eV
  Writing Kohn-Sham eigenvalues.

  State    Occupation    Eigenvalue [Ha]    Eigenvalue [eV]
      1       2.00000         -55.486005        -1509.85103
      2       2.00000         -55.484032        -1509.79733
      3       2.00000         -55.483150        -1509.77332
      4       2.00000         -24.388896         -663.65564
      5       2.00000         -24.361781         -662.91778
      6       2.00000         -24.361781         -662.91778
      7       2.00000         -24.344252         -662.44081
      8       2.00000         -24.343142         -662.41059
      9       2.00000         -24.342216         -662.38539
     10       2.00000         -24.342216         -662.38539
     11       2.00000         -24.330701         -662.07206
     12       2.00000         -24.325179         -661.92180
     13       2.00000          -3.952083         -107.54166
     14       2.00000          -3.948919         -107.45556
     15       2.00000          -3.948132         -107.43413
     16       2.00000          -2.545946          -69.27871
     17       2.00000          -2.544329          -69.23471
     18       2.00000          -2.541956          -69.17014
     19       2.00000          -2.541838          -69.16694
     20       2.00000          -2.540705          -69.13609
     21       2.00000          -2.540376          -69.12716
     22       2.00000          -2.540216          -69.12279
     23       2.00000          -2.539923          -69.11483
     24       2.00000          -2.539106          -69.09259
     25       2.00000          -1.217409          -33.12739
     26       2.00000          -1.188656          -32.34499
     27       2.00000          -1.178069          -32.05688
     28       2.00000          -1.156297          -31.46444
     29       2.00000          -1.154093          -31.40448
     30       2.00000          -1.151623          -31.33724
     31       2.00000          -1.149984          -31.29266
     32       2.00000          -1.134366          -30.86766
     33       2.00000          -1.126659          -30.65796
     34       2.00000          -0.578671          -15.74643
     35       2.00000          -0.551012          -14.99381
     36       2.00000          -0.546879          -14.88133
     37       2.00000          -0.523191          -14.23676
     38       2.00000          -0.520388          -14.16048
     39       2.00000          -0.515111          -14.01689
     40       2.00000          -0.509018          -13.85110
     41       2.00000          -0.499063          -13.58019
     42       2.00000          -0.495322          -13.47840
     43       2.00000          -0.486601          -13.24109
     44       2.00000          -0.486547          -13.23961
     45       2.00000          -0.486176          -13.22951
     46       2.00000          -0.480005          -13.06159
     47       2.00000          -0.477376          -12.99006
     48       2.00000          -0.461487          -12.55771
     49       2.00000          -0.457619          -12.45245
     50       2.00000          -0.457435          -12.44743
     51       2.00000          -0.456098          -12.41106
     52       2.00000          -0.455173          -12.38589
     53       2.00000          -0.454696          -12.37290
     54       2.00000          -0.450886          -12.26923
     55       2.00000          -0.450723          -12.26480
     56       2.00000          -0.446377          -12.14653
     57       2.00000          -0.439856          -11.96910
     58       2.00000          -0.436967          -11.89047
     59       2.00000          -0.433025          -11.78320
     60       2.00000          -0.430541          -11.71560
     61       0.00000          -0.144649           -3.93609
     62       0.00000          -0.098623           -2.68366
     63       0.00000          -0.080478           -2.18991
     64       0.00000          -0.032620           -0.88763
     65       0.00000          -0.012017           -0.32700
     66       0.00000          -0.004397           -0.11965
     67       0.00000           0.010582            0.28795
     68       0.00000           0.022064            0.60038
     69       0.00000           0.034998            0.95233
     70       0.00000           0.050884            1.38463
     71       0.00000           0.074381            2.02401
     72       0.00000           0.103673            2.82109
     73       0.00000           0.141875            3.86061
     74       0.00000           0.163611            4.45208
     75       0.00000           0.167665            4.56238
     76       0.00000           0.169846            4.62175
     77       0.00000           0.177158            4.82070
     78       0.00000           0.184052            5.00832
     79       0.00000           0.190446            5.18229
     80       0.00000           0.200886            5.46638
     81       0.00000           0.206593            5.62169
     82       0.00000           0.217392            5.91554
     83       0.00000           0.230241            6.26519
     84       0.00000           0.237602            6.46548
     85       0.00000           0.238476            6.48927
     86       0.00000           0.240906            6.55539
     87       0.00000           0.278880            7.58870
     88       0.00000           0.282269            7.68093
     89       0.00000           0.287757            7.83028
     90       0.00000           0.293753            7.99341
     91       0.00000           0.309053            8.40976
     92       0.00000           0.315198            8.57697
     93       0.00000           0.342663            9.32432
     94       0.00000           0.346356            9.42484
     95       0.00000           0.366013            9.95973
     96       0.00000           0.371360           10.10522

  Highest occupied state (VBM) at    -11.71560386 eV
  | Occupation number:      2.00000000

  Lowest unoccupied state (CBM) at    -3.93608673 eV
  | Occupation number:      0.00000000

  Overall HOMO-LUMO gap:      7.77951714 eV.
  Calculating total energy contributions from superposition of free atom densities.

  Total energy components:
  | Sum of eigenvalues            :        -887.52055698 Ha      -24150.66312776 eV
  | XC energy correction          :        -144.31821887 Ha       -3927.09854410 eV
  | XC potential correction       :         187.90975810 Ha        5113.28467900 eV
  | Free-atom electrostatic energy:        -781.40697046 Ha      -21263.16552405 eV
  | Hartree energy correction     :           0.00000000 Ha           0.00000000 eV
  | Entropy correction            :           0.00000000 Ha           0.00000000 eV
  | ---------------------------
  | Total energy                  :       -1625.33598821 Ha      -44227.64251690 eV
  | Total energy, T -> 0          :       -1625.33598821 Ha      -44227.64251690 eV  <-- do not rely on this value for anything but (periodic) metals
  | Electronic free energy        :       -1625.33598821 Ha      -44227.64251690 eV

  Derived energy quantities:
  | Kinetic energy                :        1627.59267315 Ha       44289.05003835 eV
  | Electrostatic energy          :       -3108.61044248 Ha      -84589.59401115 eV
  | Energy correction for multipole
  | error in Hartree potential    :           0.00000000 Ha           0.00000000 eV
  | Sum of eigenvalues per atom                           :       -2012.55526065 eV
  | Total energy (T->0) per atom                          :       -3685.63687641 eV  <-- do not rely on this value for anything but (periodic) metals
  | Electronic free energy per atom                       :       -3685.63687641 eV
  Initialize hartree_potential_storage
  Max. number of atoms included in rho_multipole:           12

  End scf initialization - timings             :  max(cpu_time)    wall_clock(cpu1)
  | Time for scf. initialization                :        0.113 s           0.114 s
  | Boundary condition initialization           :        0.000 s           0.000 s
  | Integration                                 :        0.045 s           0.045 s
  | Solution of K.-S. eqns.                     :        0.011 s           0.011 s
  | Grid partitioning                           :        0.034 s           0.034 s
  | Preloading free-atom quantities on grid     :        0.015 s           0.016 s
  | Free-atom superposition energy              :        0.005 s           0.005 s
  | Total energy evaluation                     :        0.000 s           0.000 s

  Partial memory accounting:
  | Current value for overall tracked memory usage:
  |   Minimum:        0.273 MB (on task 23)
  |   Maximum:        0.292 MB (on task  0)
  |   Average:        0.287 MB
  | Peak value for overall tracked memory usage:
  |   Minimum:        1.284 MB (on task 20 after allocating wave)
  |   Maximum:        1.394 MB (on task  5 after allocating wave)
  |   Average:        1.339 MB
  | Largest tracked array allocation so far:
  |   Minimum:        0.229 MB (H_times_psi on task 13)
  |   Maximum:        0.454 MB (all_coords on task 10)
  |   Average:        0.264 MB
  Note:  These values currently only include a subset of arrays which are explicitly tracked.
  The "true" memory usage will be greater.
------------------------------------------------------------
  Evaluating new KS density.
  Integration grid: deviation in total charge (<rho> - N_e) =   4.263256E-14

  Time for density update prior                :  max(cpu_time)    wall_clock(cpu1)
  | self-consistency iterative process          :        0.028 s           0.029 s

------------------------------------------------------------
          Begin self-consistency iteration #    1

  Date     :  20220517, Time     :  115700.475
------------------------------------------------------------
  Pulay mixing of updated and previous charge densities.
  Renormalizing the density to the exact electron count on the 3D integration grid.
  | Formal number of electrons (from input files) :     120.0000000000
  | Integrated number of electrons on 3D grid     :     120.0000000000
  | Charge integration error                      :       0.0000000000
  | Normalization factor for density and gradient :       1.0000000000

  Evaluating partitioned Hartree potential by multipole expansion.
  | Original multipole sum: apparent total charge =   0.713334E-14
  | Sum of charges compensated after spline to logarithmic grids =   0.115290E-03
  | Analytical far-field extrapolation by fixed multipoles:
  | Hartree multipole sum: apparent total charge =   0.851082E-14
  Summing up the Hartree potential.
  Time summed over all CPUs for potential: real work        0.381 s, elapsed        0.390 s
  | RMS charge density error from multipole expansion :   0.106496E-01

  Integrating Hamiltonian matrix: batch-based integration.
  Time summed over all CPUs for integration: real work        0.666 s, elapsed        0.696 s

  Updating Kohn-Sham eigenvalues and eigenvectors using ELSI and the ELPA eigensolver.
  Starting ELPA eigensolver
  Finished transformation to standard eigenproblem
  | Time :     0.000 s
  Finished solving standard eigenproblem
  | Time :     0.004 s
  Finished back-transformation of eigenvectors
  | Time :     0.000 s

  Obtaining occupation numbers and chemical potential using ELSI.
  | Chemical potential (Fermi level):    -4.75549944 eV
  Writing Kohn-Sham eigenvalues.

  State    Occupation    Eigenvalue [Ha]    Eigenvalue [eV]
      1       2.00000         -55.685313        -1515.27445
      2       2.00000         -55.646236        -1514.21113
      3       2.00000         -55.637203        -1513.96532
      4       2.00000         -24.289303         -660.94555
      5       2.00000         -24.251243         -659.90990
      6       2.00000         -24.251239         -659.90980
      7       2.00000         -24.159084         -657.40214
      8       2.00000         -24.095330         -655.66730
      9       2.00000         -24.075539         -655.12874
     10       2.00000         -24.075536         -655.12866
     11       2.00000         -24.032877         -653.96785
     12       2.00000         -24.020509         -653.63132
     13       2.00000          -4.126012         -112.27451
     14       2.00000          -4.083469         -111.11685
     15       2.00000          -4.076979         -110.94023
     16       2.00000          -2.719742          -74.00796
     17       2.00000          -2.718495          -73.97402
     18       2.00000          -2.717786          -73.95473
     19       2.00000          -2.677250          -72.85169
     20       2.00000          -2.676780          -72.83889
     21       2.00000          -2.674424          -72.77479
     22       2.00000          -2.671147          -72.68561
     23       2.00000          -2.669315          -72.63575
     24       2.00000          -2.668370          -72.61005
     25       2.00000          -1.219474          -33.18357
     26       2.00000          -1.175702          -31.99249
     27       2.00000          -1.161375          -31.60263
     28       2.00000          -1.086379          -29.56189
     29       2.00000          -1.043355          -28.39114
     30       2.00000          -1.025259          -27.89871
     31       2.00000          -1.020857          -27.77893
     32       2.00000          -0.977612          -26.60218
     33       2.00000          -0.964501          -26.24540
     34       2.00000          -0.591301          -16.09013
     35       2.00000          -0.556760          -15.15022
     36       2.00000          -0.543899          -14.80025
     37       2.00000          -0.520681          -14.16845
     38       2.00000          -0.519490          -14.13603
     39       2.00000          -0.501696          -13.65185
     40       2.00000          -0.483959          -13.16921
     41       2.00000          -0.467291          -12.71564
     42       2.00000          -0.457211          -12.44136
     43       2.00000          -0.452755          -12.32009
     44       2.00000          -0.407533          -11.08953
     45       2.00000          -0.398925          -10.85529
     46       2.00000          -0.394079          -10.72344
     47       2.00000          -0.392859          -10.69025
     48       2.00000          -0.367583          -10.00245
     49       2.00000          -0.359916           -9.79381
     50       2.00000          -0.352000           -9.57840
     51       2.00000          -0.350623           -9.54094
     52       2.00000          -0.339167           -9.22921
     53       2.00000          -0.336406           -9.15406
     54       2.00000          -0.327946           -8.92387
     55       2.00000          -0.323045           -8.79049
     56       2.00000          -0.322080           -8.76425
     57       2.00000          -0.294423           -8.01166
     58       2.00000          -0.289604           -7.88052
     59       2.00000          -0.279431           -7.60372
     60       2.00000          -0.274809           -7.47794
     61       0.00000          -0.168022           -4.57210
     62       0.00000          -0.095177           -2.58990
     63       0.00000          -0.084565           -2.30114
     64       0.00000          -0.070372           -1.91492
     65       0.00000          -0.034488           -0.93847
     66       0.00000          -0.031555           -0.85866
     67       0.00000           0.002741            0.07460
     68       0.00000           0.006575            0.17890
     69       0.00000           0.019922            0.54211
     70       0.00000           0.036070            0.98153
     71       0.00000           0.051244            1.39441
     72       0.00000           0.085199            2.31838
     73       0.00000           0.123451            3.35928
     74       0.00000           0.155007            4.21795
     75       0.00000           0.155424            4.22929
     76       0.00000           0.158498            4.31295
     77       0.00000           0.180980            4.92472
     78       0.00000           0.182978            4.97908
     79       0.00000           0.183264            4.98686
     80       0.00000           0.189006            5.14313
     81       0.00000           0.199295            5.42309
     82       0.00000           0.211075            5.74363
     83       0.00000           0.217463            5.91747
     84       0.00000           0.220311            5.99496
     85       0.00000           0.228952            6.23009
     86       0.00000           0.233388            6.35081
     87       0.00000           0.237261            6.45619
     88       0.00000           0.265857            7.23433
     89       0.00000           0.274607            7.47243
     90       0.00000           0.288711            7.85623
     91       0.00000           0.307131            8.35745
     92       0.00000           0.312274            8.49741
     93       0.00000           0.331339            9.01619
     94       0.00000           0.344252            9.36757
     95       0.00000           0.369478           10.05400
     96       0.00000           0.372680           10.14114

  Highest occupied state (VBM) at     -7.47793606 eV
  | Occupation number:      2.00000000

  Lowest unoccupied state (CBM) at    -4.57209776 eV
  | Occupation number:      0.00000000

  Overall HOMO-LUMO gap:      2.90583829 eV.

  Total energy components:
  | Sum of eigenvalues            :        -882.55834390 Ha      -24015.63443955 eV
  | XC energy correction          :        -145.67013487 Ha       -3963.88605024 eV
  | XC potential correction       :         189.68687595 Ha        5161.64251605 eV
  | Free-atom electrostatic energy:        -781.40697046 Ha      -21263.16552405 eV
  | Hartree energy correction     :          -5.15776096 Ha        -140.34981655 eV
  | Entropy correction            :          -0.00000000 Ha          -0.00000000 eV
  | ---------------------------
  | Total energy                  :       -1625.10633424 Ha      -44221.39331435 eV
  | Total energy, T -> 0          :       -1625.10633424 Ha      -44221.39331435 eV  <-- do not rely on this value for anything but (periodic) metals
  | Electronic free energy        :       -1625.10633424 Ha      -44221.39331435 eV

  Derived energy quantities:
  | Kinetic energy                :        1634.07562603 Ha       44465.46016191 eV
  | Electrostatic energy          :       -3113.51182539 Ha      -84722.96742602 eV
  | Energy correction for multipole
  | error in Hartree potential    :           0.03983975 Ha           1.08409471 eV
  | Sum of eigenvalues per atom                           :       -2001.30286996 eV
  | Total energy (T->0) per atom                          :       -3685.11610953 eV  <-- do not rely on this value for anything but (periodic) metals
  | Electronic free energy per atom                       :       -3685.11610953 eV
  Evaluating new KS density.
  Integration grid: deviation in total charge (<rho> - N_e) =  -1.421085E-14

  Self-consistency convergence accuracy:
  | Change of charge density      :  0.6087E+00
  | Change of sum of eigenvalues  :  0.1350E+03 eV
  | Change of total energy        :  0.6249E+01 eV


------------------------------------------------------------
  End self-consistency iteration #     1       :  max(cpu_time)    wall_clock(cpu1)
  | Time for this iteration                     :        0.080 s           0.080 s
  | Charge density update                       :        0.027 s           0.027 s
  | Density mixing                              :        0.001 s           0.000 s
  | Hartree multipole update                    :        0.001 s           0.002 s
  | Hartree multipole summation                 :        0.017 s           0.016 s
  | Integration                                 :        0.029 s           0.030 s
  | Solution of K.-S. eqns.                     :        0.005 s           0.004 s
  | Total energy evaluation                     :        0.000 s           0.000 s

  Partial memory accounting:
  | Current value for overall tracked memory usage:
  |   Minimum:        0.273 MB (on task 23)
  |   Maximum:        0.292 MB (on task  0)
  |   Average:        0.287 MB
  | Peak value for overall tracked memory usage:
  |   Minimum:        1.284 MB (on task 20 after allocating wave)
  |   Maximum:        1.394 MB (on task  5 after allocating wave)
  |   Average:        1.339 MB
  | Largest tracked array allocation so far:
  |   Minimum:        0.687 MB (gradient_basis_wave on task 13)
  |   Maximum:        0.748 MB (gradient_basis_wave on task  5)
  |   Average:        0.717 MB
  Note:  These values currently only include a subset of arrays which are explicitly tracked.
  The "true" memory usage will be greater.
------------------------------------------------------------

------------------------------------------------------------
          Begin self-consistency iteration #    2

  Date     :  20220517, Time     :  115700.560
------------------------------------------------------------
  Pulay mixing of updated and previous charge densities.
  Renormalizing the density to the exact electron count on the 3D integration grid.
  | Formal number of electrons (from input files) :     120.0000000000
  | Integrated number of electrons on 3D grid     :     120.0000000000
  | Charge integration error                      :      -0.0000000000
  | Normalization factor for density and gradient :       1.0000000000

  Evaluating partitioned Hartree potential by multipole expansion.
  | Original multipole sum: apparent total charge =  -0.757610E-14
  | Sum of charges compensated after spline to logarithmic grids =   0.742369E-04
  | Analytical far-field extrapolation by fixed multipoles:
  | Hartree multipole sum: apparent total charge =  -0.789587E-14
  Summing up the Hartree potential.
  Time summed over all CPUs for potential: real work        0.380 s, elapsed        0.389 s
  | RMS charge density error from multipole expansion :   0.124705E-01

  Integrating Hamiltonian matrix: batch-based integration.
  Time summed over all CPUs for integration: real work        0.665 s, elapsed        0.692 s

  Updating Kohn-Sham eigenvalues and eigenvectors using ELSI and the ELPA eigensolver.
  Starting ELPA eigensolver
  Finished transformation to standard eigenproblem
  | Time :     0.000 s
  Finished solving standard eigenproblem
  | Time :     0.004 s
  Finished back-transformation of eigenvectors
  | Time :     0.000 s

  Obtaining occupation numbers and chemical potential using ELSI.
  | Chemical potential (Fermi level):    -7.95793176 eV
  Highest occupied state (VBM) at     -8.86642198 eV
  | Occupation number:      2.00000000

  Lowest unoccupied state (CBM) at    -4.78095445 eV
  | Occupation number:      0.00000000

  Overall HOMO-LUMO gap:      4.08546753 eV.

  Checking to see if s.c.f. parameters should be adjusted.

  Total energy components:
  | Sum of eigenvalues            :        -885.75714121 Ha      -24102.67814314 eV
  | XC energy correction          :        -145.16149793 Ha       -3950.04533487 eV
  | XC potential correction       :         189.01769320 Ha        5143.43312701 eV
  | Free-atom electrostatic energy:        -781.40697046 Ha      -21263.16552405 eV
  | Hartree energy correction     :          -1.72701193 Ha         -46.99438573 eV
  | Entropy correction            :           0.00000000 Ha           0.00000000 eV
  | ---------------------------
  | Total energy                  :       -1625.03492833 Ha      -44219.45026077 eV
  | Total energy, T -> 0          :       -1625.03492833 Ha      -44219.45026077 eV  <-- do not rely on this value for anything but (periodic) metals
  | Electronic free energy        :       -1625.03492833 Ha      -44219.45026077 eV

  Derived energy quantities:
  | Kinetic energy                :        1630.13844107 Ha       44358.32390813 eV
  | Electrostatic energy          :       -3110.01187147 Ha      -84627.72883403 eV
  | Energy correction for multipole
  | error in Hartree potential    :           0.04340011 Ha           1.18097700 eV
  | Sum of eigenvalues per atom                           :       -2008.55651193 eV
  | Total energy (T->0) per atom                          :       -3684.95418840 eV  <-- do not rely on this value for anything but (periodic) metals
  | Electronic free energy per atom                       :       -3684.95418840 eV
  Evaluating new KS density.
  Integration grid: deviation in total charge (<rho> - N_e) =   7.105427E-14

  Self-consistency convergence accuracy:
  | Change of charge density      :  0.5033E+00
  | Change of sum of eigenvalues  : -0.8704E+02 eV
  | Change of total energy        :  0.1943E+01 eV


------------------------------------------------------------
  End self-consistency iteration #     2       :  max(cpu_time)    wall_clock(cpu1)
  | Time for this iteration                     :        0.083 s           0.080 s
  | Charge density update                       :        0.027 s           0.027 s
  | Density mixing                              :        0.004 s           0.002 s
  | Hartree multipole update                    :        0.001 s           0.001 s
  | Hartree multipole summation                 :        0.016 s           0.017 s
  | Integration                                 :        0.029 s           0.029 s
  | Solution of K.-S. eqns.                     :        0.004 s           0.004 s
  | Total energy evaluation                     :        0.000 s           0.000 s

  Partial memory accounting:
  | Current value for overall tracked memory usage:
  |   Minimum:        0.274 MB (on task 23)
  |   Maximum:        0.293 MB (on task  0)
  |   Average:        0.288 MB
  | Peak value for overall tracked memory usage:
  |   Minimum:        1.284 MB (on task 20 after allocating wave)
  |   Maximum:        1.394 MB (on task  5 after allocating wave)
  |   Average:        1.339 MB
  | Largest tracked array allocation so far:
  |   Minimum:        0.687 MB (gradient_basis_wave on task 13)
  |   Maximum:        0.748 MB (gradient_basis_wave on task  5)
  |   Average:        0.717 MB
  Note:  These values currently only include a subset of arrays which are explicitly tracked.
  The "true" memory usage will be greater.
------------------------------------------------------------

------------------------------------------------------------
          Begin self-consistency iteration #    3

  Date     :  20220517, Time     :  115700.646
------------------------------------------------------------
  Pulay mixing of updated and previous charge densities.
  Renormalizing the density to the exact electron count on the 3D integration grid.
  | Formal number of electrons (from input files) :     120.0000000000
  | Integrated number of electrons on 3D grid     :     120.0000000000
  | Charge integration error                      :       0.0000000000
  | Normalization factor for density and gradient :       1.0000000000

  Evaluating partitioned Hartree potential by multipole expansion.
  | Original multipole sum: apparent total charge =  -0.323706E-13
  | Sum of charges compensated after spline to logarithmic grids =   0.954326E-04
  | Analytical far-field extrapolation by fixed multipoles:
  | Hartree multipole sum: apparent total charge =  -0.340187E-13
  Summing up the Hartree potential.
  Time summed over all CPUs for potential: real work        0.380 s, elapsed        0.389 s
  | RMS charge density error from multipole expansion :   0.169273E-01

  Integrating Hamiltonian matrix: batch-based integration.
  Time summed over all CPUs for integration: real work        0.665 s, elapsed        0.692 s

  Updating Kohn-Sham eigenvalues and eigenvectors using ELSI and the ELPA eigensolver.
  Starting ELPA eigensolver
  Finished transformation to standard eigenproblem
  | Time :     0.000 s
  Finished solving standard eigenproblem
  | Time :     0.003 s
  Finished back-transformation of eigenvectors
  | Time :     0.001 s

  Obtaining occupation numbers and chemical potential using ELSI.
  | Chemical potential (Fermi level):    -8.02695467 eV
  Highest occupied state (VBM) at     -8.29394858 eV
  | Occupation number:      2.00000000

  Lowest unoccupied state (CBM) at    -5.09339889 eV
  | Occupation number:      0.00000000

  Overall HOMO-LUMO gap:      3.20054969 eV.

  Total energy components:
  | Sum of eigenvalues            :        -886.86712227 Ha      -24132.88226444 eV
  | XC energy correction          :        -145.12601370 Ha       -3949.07975970 eV
  | XC potential correction       :         188.96985626 Ha        5142.13141766 eV
  | Free-atom electrostatic energy:        -781.40697046 Ha      -21263.16552405 eV
  | Hartree energy correction     :          -0.60337473 Ha         -16.41866190 eV
  | Entropy correction            :          -0.00000000 Ha          -0.00000000 eV
  | ---------------------------
  | Total energy                  :       -1625.03362489 Ha      -44219.41479243 eV
  | Total energy, T -> 0          :       -1625.03362489 Ha      -44219.41479243 eV  <-- do not rely on this value for anything but (periodic) metals
  | Electronic free energy        :       -1625.03362489 Ha      -44219.41479243 eV

  Derived energy quantities:
  | Kinetic energy                :        1628.49880651 Ha       44313.70718165 eV
  | Electrostatic energy          :       -3108.40641770 Ha      -84584.04221438 eV
  | Energy correction for multipole
  | error in Hartree potential    :           0.05720616 Ha           1.55665870 eV
  | Sum of eigenvalues per atom                           :       -2011.07352204 eV
  | Total energy (T->0) per atom                          :       -3684.95123270 eV  <-- do not rely on this value for anything but (periodic) metals
  | Electronic free energy per atom                       :       -3684.95123270 eV
  Evaluating new KS density.
  Integration grid: deviation in total charge (<rho> - N_e) =   2.842171E-14

  Self-consistency convergence accuracy:
  | Change of charge density      :  0.1304E+00
  | Change of sum of eigenvalues  : -0.3020E+02 eV
  | Change of total energy        :  0.3547E-01 eV


------------------------------------------------------------
  End self-consistency iteration #     3       :  max(cpu_time)    wall_clock(cpu1)
  | Time for this iteration                     :        0.082 s           0.080 s
  | Charge density update                       :        0.027 s           0.027 s
  | Density mixing                              :        0.004 s           0.002 s
  | Hartree multipole update                    :        0.001 s           0.001 s
  | Hartree multipole summation                 :        0.016 s           0.016 s
  | Integration                                 :        0.029 s           0.029 s
  | Solution of K.-S. eqns.                     :        0.004 s           0.004 s
  | Total energy evaluation                     :        0.000 s           0.000 s

  Partial memory accounting:
  | Current value for overall tracked memory usage:
  |   Minimum:        0.274 MB (on task 23)
  |   Maximum:        0.293 MB (on task  0)
  |   Average:        0.288 MB
  | Peak value for overall tracked memory usage:
  |   Minimum:        1.284 MB (on task 20 after allocating wave)
  |   Maximum:        1.394 MB (on task  5 after allocating wave)
  |   Average:        1.339 MB
  | Largest tracked array allocation so far:
  |   Minimum:        0.687 MB (gradient_basis_wave on task 13)
  |   Maximum:        0.748 MB (gradient_basis_wave on task  5)
  |   Average:        0.717 MB
  Note:  These values currently only include a subset of arrays which are explicitly tracked.
  The "true" memory usage will be greater.
------------------------------------------------------------

------------------------------------------------------------
          Begin self-consistency iteration #    4

  Date     :  20220517, Time     :  115700.733
------------------------------------------------------------
  Pulay mixing of updated and previous charge densities.
  Renormalizing the density to the exact electron count on the 3D integration grid.
  | Formal number of electrons (from input files) :     120.0000000000
  | Integrated number of electrons on 3D grid     :     120.0000000000
  | Charge integration error                      :       0.0000000000
  | Normalization factor for density and gradient :       1.0000000000

  Evaluating partitioned Hartree potential by multipole expansion.
  | Original multipole sum: apparent total charge =   0.243026E-13
  | Sum of charges compensated after spline to logarithmic grids =   0.105435E-03
  | Analytical far-field extrapolation by fixed multipoles:
  | Hartree multipole sum: apparent total charge =   0.260982E-13
  Summing up the Hartree potential.
  Time summed over all CPUs for potential: real work        0.380 s, elapsed        0.390 s
  | RMS charge density error from multipole expansion :   0.192718E-01

  Integrating Hamiltonian matrix: batch-based integration.
  Time summed over all CPUs for integration: real work        0.665 s, elapsed        0.691 s

  Updating Kohn-Sham eigenvalues and eigenvectors using ELSI and the ELPA eigensolver.
  Starting ELPA eigensolver
  Finished transformation to standard eigenproblem
  | Time :     0.001 s
  Finished solving standard eigenproblem
  | Time :     0.003 s
  Finished back-transformation of eigenvectors
  | Time :     0.000 s

  Obtaining occupation numbers and chemical potential using ELSI.
  | Chemical potential (Fermi level):    -8.03033413 eV
  Highest occupied state (VBM) at     -8.49816827 eV
  | Occupation number:      2.00000000

  Lowest unoccupied state (CBM) at    -5.07344410 eV
  | Occupation number:      0.00000000

  Overall HOMO-LUMO gap:      3.42472418 eV.

  Total energy components:
  | Sum of eigenvalues            :        -887.08243813 Ha      -24138.74130705 eV
  | XC energy correction          :        -145.10563535 Ha       -3948.52523651 eV
  | XC potential correction       :         188.94228809 Ha        5141.38124947 eV
  | Free-atom electrostatic energy:        -781.40697046 Ha      -21263.16552405 eV
  | Hartree energy correction     :          -0.37825537 Ha         -10.29285244 eV
  | Entropy correction            :           0.00000000 Ha           0.00000000 eV
  | ---------------------------
  | Total energy                  :       -1625.03101121 Ha      -44219.34367057 eV
  | Total energy, T -> 0          :       -1625.03101121 Ha      -44219.34367057 eV  <-- do not rely on this value for anything but (periodic) metals
  | Electronic free energy        :       -1625.03101121 Ha      -44219.34367057 eV

  Derived energy quantities:
  | Kinetic energy                :        1627.71596278 Ha       44292.40492009 eV
  | Electrostatic energy          :       -3107.64133865 Ha      -84563.22335415 eV
  | Energy correction for multipole
  | error in Hartree potential    :           0.06402257 Ha           1.74214269 eV
  | Sum of eigenvalues per atom                           :       -2011.56177559 eV
  | Total energy (T->0) per atom                          :       -3684.94530588 eV  <-- do not rely on this value for anything but (periodic) metals
  | Electronic free energy per atom                       :       -3684.94530588 eV
  Evaluating new KS density.
  Integration grid: deviation in total charge (<rho> - N_e) =   0.000000E+00

  Self-consistency convergence accuracy:
  | Change of charge density      :  0.9494E-01
  | Change of sum of eigenvalues  : -0.5859E+01 eV
  | Change of total energy        :  0.7112E-01 eV


------------------------------------------------------------
  End self-consistency iteration #     4       :  max(cpu_time)    wall_clock(cpu1)
  | Time for this iteration                     :        0.083 s           0.080 s
  | Charge density update                       :        0.027 s           0.027 s
  | Density mixing                              :        0.004 s           0.001 s
  | Hartree multipole update                    :        0.001 s           0.001 s
  | Hartree multipole summation                 :        0.017 s           0.017 s
  | Integration                                 :        0.029 s           0.029 s
  | Solution of K.-S. eqns.                     :        0.004 s           0.004 s
  | Total energy evaluation                     :        0.000 s           0.001 s

  Partial memory accounting:
  | Current value for overall tracked memory usage:
  |   Minimum:        0.274 MB (on task 23)
  |   Maximum:        0.293 MB (on task  0)
  |   Average:        0.288 MB
  | Peak value for overall tracked memory usage:
  |   Minimum:        1.284 MB (on task 20 after allocating wave)
  |   Maximum:        1.394 MB (on task  5 after allocating wave)
  |   Average:        1.339 MB
  | Largest tracked array allocation so far:
  |   Minimum:        0.687 MB (gradient_basis_wave on task 13)
  |   Maximum:        0.748 MB (gradient_basis_wave on task  5)
  |   Average:        0.717 MB
  Note:  These values currently only include a subset of arrays which are explicitly tracked.
  The "true" memory usage will be greater.
------------------------------------------------------------

------------------------------------------------------------
          Begin self-consistency iteration #    5

  Date     :  20220517, Time     :  115700.819
------------------------------------------------------------
  Pulay mixing of updated and previous charge densities.
  Renormalizing the density to the exact electron count on the 3D integration grid.
  | Formal number of electrons (from input files) :     120.0000000000
  | Integrated number of electrons on 3D grid     :     120.0000000000
  | Charge integration error                      :       0.0000000000
  | Normalization factor for density and gradient :       1.0000000000

  Evaluating partitioned Hartree potential by multipole expansion.
  | Original multipole sum: apparent total charge =   0.764498E-13
  | Sum of charges compensated after spline to logarithmic grids =   0.105951E-03
  | Analytical far-field extrapolation by fixed multipoles:
  | Hartree multipole sum: apparent total charge =   0.768433E-13
  Summing up the Hartree potential.
  Time summed over all CPUs for potential: real work        0.380 s, elapsed        0.389 s
  | RMS charge density error from multipole expansion :   0.191210E-01

  Integrating Hamiltonian matrix: batch-based integration.
  Time summed over all CPUs for integration: real work        0.665 s, elapsed        0.691 s

  Updating Kohn-Sham eigenvalues and eigenvectors using ELSI and the ELPA eigensolver.
  Starting ELPA eigensolver
  Finished transformation to standard eigenproblem
  | Time :     0.000 s
  Finished solving standard eigenproblem
  | Time :     0.003 s
  Finished back-transformation of eigenvectors
  | Time :     0.000 s

  Obtaining occupation numbers and chemical potential using ELSI.
  | Chemical potential (Fermi level):    -8.01725359 eV
  Highest occupied state (VBM) at     -8.53280407 eV
  | Occupation number:      2.00000000

  Lowest unoccupied state (CBM) at    -5.00757561 eV
  | Occupation number:      0.00000000

  Overall HOMO-LUMO gap:      3.52522847 eV.

  Total energy components:
  | Sum of eigenvalues            :        -886.90847607 Ha      -24134.00755853 eV
  | XC energy correction          :        -145.10127489 Ha       -3948.40658251 eV
  | XC potential correction       :         188.93670540 Ha        5141.22933686 eV
  | Free-atom electrostatic energy:        -781.40697046 Ha      -21263.16552405 eV
  | Hartree energy correction     :          -0.55079811 Ha         -14.98797922 eV
  | Entropy correction            :           0.00000000 Ha           0.00000000 eV
[...]
   Total forces(   7)            :  0.248192E+01  0.541358E+00  0.237932E+00
  atom #    8
   Hellmann-Feynman              :  0.118813E+01  0.309679E+00  0.270416E+01
   Ionic forces                  :  0.000000E+00  0.000000E+00  0.000000E+00
   Multipole                     :  0.512395E+00  0.123112E+00  0.662710E+00
   Hartree pot. SCF incomplete   : -0.178751E-05 -0.404770E-06 -0.680021E-06
   Pulay + GGA                   : -0.162055E+01 -0.389846E+00 -0.203823E+01
   ----------------------------------------------------------------
   Total forces(   8)            :  0.799728E-01  0.429448E-01  0.132864E+01
  atom #    9
   Hellmann-Feynman              :  0.264369E+00  0.301761E+01  0.980643E+00
   Ionic forces                  :  0.000000E+00  0.000000E+00  0.000000E+00
   Multipole                     :  0.881569E-01  0.724268E+00  0.212497E+00
   Hartree pot. SCF incomplete   : -0.165018E-05  0.133925E-05  0.165981E-05
   Pulay + GGA                   : -0.591938E+00 -0.645805E+01 -0.246547E+01
   ----------------------------------------------------------------
   Total forces(   9)            : -0.239414E+00 -0.271618E+01 -0.127233E+01
  atom #   10
   Hellmann-Feynman              :  0.147901E+01 -0.260076E+01  0.108867E+01
   Ionic forces                  :  0.000000E+00  0.000000E+00  0.000000E+00
   Multipole                     :  0.377435E+00 -0.614692E+00  0.237815E+00
   Hartree pot. SCF incomplete   : -0.969180E-06 -0.184646E-05  0.172288E-05
   Pulay + GGA                   : -0.318681E+01  0.554293E+01 -0.269477E+01
   ----------------------------------------------------------------
   Total forces(  10)            : -0.133037E+01  0.232748E+01 -0.136828E+01
  atom #   11
   Hellmann-Feynman              : -0.183080E+01 -0.358546E+00  0.196342E+01
   Ionic forces                  :  0.000000E+00  0.000000E+00  0.000000E+00
   Multipole                     : -0.302907E+00 -0.575323E-01  0.422789E+00
   Hartree pot. SCF incomplete   : -0.463117E-05 -0.982208E-06  0.119143E-05
   Pulay + GGA                   :  0.480373E+01  0.939304E+00 -0.518625E+01
   ----------------------------------------------------------------
   Total forces(  11)            :  0.267002E+01  0.523225E+00 -0.280004E+01
  atom #   12
   Hellmann-Feynman              :  0.190998E+01  0.355847E+00 -0.299696E+01
   Ionic forces                  :  0.000000E+00  0.000000E+00  0.000000E+00
   Multipole                     :  0.462998E+00  0.866309E-01 -0.711539E+00
   Hartree pot. SCF incomplete   : -0.213030E-05 -0.485285E-06 -0.151110E-05
   Pulay + GGA                   : -0.424533E+01 -0.797753E+00  0.631723E+01
   ----------------------------------------------------------------
   Total forces(  12)            : -0.187235E+01 -0.355276E+00  0.260873E+01


  Self-consistency convergence accuracy:
  | Change of charge density      :  0.4925E-06
  | Change of sum of eigenvalues  : -0.3767E-04 eV
  | Change of total energy        : -0.6911E-08 eV
  | Change of forces              :  0.2976E-05 eV/A

  Writing Kohn-Sham eigenvalues.

  State    Occupation    Eigenvalue [Ha]    Eigenvalue [eV]
      1       2.00000         -55.677118        -1515.05146
      2       2.00000         -55.626268        -1513.66776
      3       2.00000         -55.615890        -1513.38536
      4       2.00000         -24.355333         -662.74232
      5       2.00000         -24.324619         -661.90656
      6       2.00000         -24.324616         -661.90648
      7       2.00000         -24.261234         -660.18177
      8       2.00000         -24.246065         -659.76898
      9       2.00000         -24.212460         -658.85456
     10       2.00000         -24.212456         -658.85445
     11       2.00000         -24.183083         -658.05517
     12       2.00000         -24.175167         -657.83976
     13       2.00000          -4.132608         -112.45398
     14       2.00000          -4.076579         -110.92935
     15       2.00000          -4.069684         -110.74173
     16       2.00000          -2.725617          -74.16781
     17       2.00000          -2.724794          -74.14542
     18       2.00000          -2.721806          -74.06411
     19       2.00000          -2.670421          -72.66584
     20       2.00000          -2.668647          -72.61757
     21       2.00000          -2.665388          -72.52890
     22       2.00000          -2.664675          -72.50950
     23       2.00000          -2.660462          -72.39486
     24       2.00000          -2.658501          -72.34149
     25       2.00000          -1.244249          -33.85773
     26       2.00000          -1.199242          -32.63304
     27       2.00000          -1.185925          -32.27066
     28       2.00000          -1.113595          -30.30245
     29       2.00000          -1.096139          -29.82747
     30       2.00000          -1.063946          -28.95144
     31       2.00000          -1.060147          -28.84807
     32       2.00000          -1.020382          -27.76601
     33       2.00000          -1.006757          -27.39526
     34       2.00000          -0.615201          -16.74048
     35       2.00000          -0.578270          -15.73553
     36       2.00000          -0.565051          -15.37582
     37       2.00000          -0.544375          -14.81319
     38       2.00000          -0.544133          -14.80661
     39       2.00000          -0.526759          -14.33383
     40       2.00000          -0.504667          -13.73269
     41       2.00000          -0.493953          -13.44116
     42       2.00000          -0.479537          -13.04885
     43       2.00000          -0.477403          -12.99078
     44       2.00000          -0.454452          -12.36627
     45       2.00000          -0.431570          -11.74362
     46       2.00000          -0.421593          -11.47213
     47       2.00000          -0.420774          -11.44985
     48       2.00000          -0.403648          -10.98381
     49       2.00000          -0.400773          -10.90558
     50       2.00000          -0.399332          -10.86638
     51       2.00000          -0.392856          -10.69015
     52       2.00000          -0.373849          -10.17295
     53       2.00000          -0.371489          -10.10873
     54       2.00000          -0.365267           -9.93942
     55       2.00000          -0.362250           -9.85733
     56       2.00000          -0.360255           -9.80305
     57       2.00000          -0.331950           -9.03283
     58       2.00000          -0.326284           -8.87864
     59       2.00000          -0.317442           -8.63804
     60       2.00000          -0.313805           -8.53907
     61       0.00000          -0.183558           -4.99487
     62       0.00000          -0.106441           -2.89640
     63       0.00000          -0.097588           -2.65551
     64       0.00000          -0.079491           -2.16307
     65       0.00000          -0.043242           -1.17669
     66       0.00000          -0.038706           -1.05325
     67       0.00000           0.000626            0.01703
     68       0.00000           0.000961            0.02614
     69       0.00000           0.013891            0.37798
     70       0.00000           0.030919            0.84134
     71       0.00000           0.047129            1.28243
     72       0.00000           0.079060            2.15134
     73       0.00000           0.115522            3.14351
     74       0.00000           0.144885            3.94252
     75       0.00000           0.146316            3.98146
     76       0.00000           0.150832            4.10436
     77       0.00000           0.173923            4.73268
     78       0.00000           0.177719            4.83598
     79       0.00000           0.179680            4.88933
     80       0.00000           0.181206            4.93087
     81       0.00000           0.192768            5.24549
     82       0.00000           0.207451            5.64503
     83       0.00000           0.212693            5.78766
     84       0.00000           0.213040            5.79711
     85       0.00000           0.223746            6.08844
     86       0.00000           0.225320            6.13127
     87       0.00000           0.229058            6.23297
     88       0.00000           0.262432            7.14114
     89       0.00000           0.271160            7.37864
     90       0.00000           0.283886            7.72494
     91       0.00000           0.300264            8.17061
     92       0.00000           0.305413            8.31072
     93       0.00000           0.323106            8.79216
     94       0.00000           0.336918            9.16802
     95       0.00000           0.359785            9.79025
     96       0.00000           0.362249            9.85731

  Highest occupied state (VBM) at     -8.53906916 eV
  | Occupation number:      2.00000000

  Lowest unoccupied state (CBM) at    -4.99487100 eV
  | Occupation number:      0.00000000

  Overall HOMO-LUMO gap:      3.54419816 eV.
  | Chemical Potential                          :    -8.01271709 eV

  Self-consistency cycle converged.


------------------------------------------------------------
  End self-consistency iteration #    14       :  max(cpu_time)    wall_clock(cpu1)
  | Time for this iteration                     :        0.265 s           0.263 s
  | Charge density & force component update     :        0.144 s           0.143 s
  | Density mixing                              :        0.005 s           0.003 s
  | Hartree multipole update                    :        0.001 s           0.001 s
  | Hartree multipole summation                 :        0.049 s           0.049 s
  | Hartree pot. SCF incomplete forces          :        0.032 s           0.032 s
  | Integration                                 :        0.029 s           0.029 s
  | Solution of K.-S. eqns.                     :        0.004 s           0.004 s
  | Total energy evaluation                     :        0.000 s           0.000 s

  Partial memory accounting:
  | Current value for overall tracked memory usage:
  |   Minimum:        0.274 MB (on task 23)
  |   Maximum:        0.293 MB (on task  0)
  |   Average:        0.289 MB
  | Peak value for overall tracked memory usage:
  |   Minimum:        2.831 MB (on task 20 after allocating hessian_basis_wave)
  |   Maximum:        3.047 MB (on task  5 after allocating hessian_basis_wave)
  |   Average:        2.938 MB
  | Largest tracked array allocation so far:
  |   Minimum:        1.374 MB (hessian_basis_wave on task 13)
  |   Maximum:        1.496 MB (hessian_basis_wave on task  5)
  |   Average:        1.433 MB
  Note:  These values currently only include a subset of arrays which are explicitly tracked.
  The "true" memory usage will be greater.
------------------------------------------------------------
  Removing unitary transformations (pure translations, rotations) from forces on atoms.
  Atomic forces before filtering:
  | Net force on center of mass :   0.636563E-02  0.344273E-02  0.131070E-01 eV/A
  | Net torque on center of mass:   0.106054E-02 -0.273723E-01 -0.495425E-02 eV
  Atomic forces after filtering:
  | Net force on center of mass :  -0.356812E-15  0.535218E-15  0.356812E-15 eV/A
  | Net torque on center of mass:  -0.245462E-14  0.226580E-14  0.179376E-14 eV

  Energy and forces in a compact form:
  | Total energy uncorrected      :         -0.442193379784564E+05 eV
  | Total energy corrected        :         -0.442193379784564E+05 eV  <-- do not rely on this value for anything but (periodic) metals
  | Electronic free energy        :         -0.442193379784564E+05 eV
  Total atomic forces (unitary forces cleaned) [eV/Ang]:
  |    1         -0.284605591599327E+00         -0.145218331376957E+00         -0.434083824591641E+01
  |    2         -0.154515484258848E+00          0.777156268177097E-02          0.215618685105379E+01
  |    3         -0.532274768138475E+01         -0.116315193500958E+01         -0.736338136260538E+00
  |    4          0.146931104575432E+01          0.390663187507538E+00          0.384250394638940E+01
  |    5          0.833121920900488E+00          0.220880034201673E+01          0.138765840935943E+00
  |    6          0.167096639679814E+01         -0.166087709077669E+01          0.212685242583297E+00
  |    7          0.248190078815041E+01          0.540875565601689E+00          0.237126206005499E+00
  |    8          0.795403825758926E-01          0.429467646099248E-01          0.132683775530662E+01
  |    9         -0.239170013352305E+00         -0.271645348939179E+01         -0.127370764991300E+01
  |   10         -0.132958979438022E+01          0.232730642317114E+01         -0.137009529547464E+01
  |   11          0.266969777002795E+01          0.522418964394819E+00         -0.279998306827427E+01
  |   12         -0.187390973923175E+01         -0.355081963428594E+00          0.260685655356432E+01

  ------------------------------------ 
  Start decomposition of the XC Energy 
  ------------------------------------ 
  X and C from original XC functional choice 
  Hartree-Fock Energy :          0.000000000 Ha              0.000000000 eV
  X Energy            :       -140.165656035 Ha          -3814.101560058 eV
  C Energy            :         -4.939622978 Ha           -134.413980149 eV
  Total XC Energy     :       -145.105279013 Ha          -3948.515540208 eV
  ------------------------------------ 
  LDA X and C from self-consistent density 
  X Energy LDA        :       -132.738050313 Ha          -3611.986124858 eV
  C Energy LDA        :         -8.822092486 Ha           -240.061350734 eV
  ------------------------------------ 
  End decomposition of the XC Energy 
  ------------------------------------ 

------------------------------------------------------------

------------------------------------------------------------------------------
  Final output of selected total energy values:

  The following output summarizes some interesting total energy values
  at the end of a run (AFTER all relaxation, molecular dynamics, etc.).

  | Total energy of the DFT / Hartree-Fock s.c.f. calculation      :         -44219.337978456 eV
  | Final zero-broadening corrected energy (caution - metals only) :         -44219.337978456 eV
  | For reference only, the value of 1 Hartree used in FHI-aims is :             27.211384500 eV

  Before relying on these values, please be sure to understand exactly which
  total energy value is referred to by a given number. Different objects may
  all carry the same name 'total energy'. Definitions:

  Total energy of the DFT / Hartree-Fock s.c.f. calculation:
  | Note that this energy does not include ANY quantities calculated after the
  | s.c.f. cycle, in particular not ANY RPA, MP2, etc. many-body perturbation terms.

  Final zero-broadening corrected energy:
  | For metallic systems only, a broadening of the occupation numbers at the Fermi
  | level can be extrapolated back to zero broadening by an electron-gas inspired
  | formula. For all systems that are not real metals, this value can be
  | meaningless and should be avoided.

------------------------------------------------------------------------------
  Methods described in the following list of references were used in this FHI-aims run.
  If you publish the results, please make sure to cite these reference if they apply.
  FHI-aims is an academic code, and for our developers (often, Ph.D. students
  and postdocs), scientific credit in the community is essential.
  Thank you for helping us!

  For any use of FHI-aims, please cite:

    Volker Blum, Ralf Gehrke, Felix Hanke, Paula Havu, Ville Havu,
    Xinguo Ren, Karsten Reuter, and Matthias Scheffler
    'Ab initio molecular simulations with numeric atom-centered orbitals'
    Computer Physics Communications 180, 2175-2196 (2009)
    http://dx.doi.org/10.1016/j.cpc.2009.06.022


  The ELSI infrastructure was used in your run to solve the Kohn-Sham electronic structure.
  Please check out http://elsi-interchange.org to learn more.
  If scalability is important for your project, please acknowledge ELSI by citing:

    V. W-z. Yu, F. Corsetti, A. Garcia, W. P. Huhn, M. Jacquelin, W. Jia,
    B. Lange, L. Lin, J. Lu, W. Mi, A. Seifitokaldani, A. Vazquez-Mayagoitia,
    C. Yang, H. Yang, and V. Blum
    'ELSI: A unified software interface for Kohn-Sham electronic structure solvers'
    Computer Physics Communications 222, 267-285 (2018).
    http://dx.doi.org/10.1016/j.cpc.2017.09.007


  For the real-space grid partitioning and parallelization used in this calculation, please cite:

    Ville Havu, Volker Blum, Paula Havu, and Matthias Scheffler,
    'Efficient O(N) integration for all-electron electronic structure calculation'
    'using numerically tabulated basis functions'
    Journal of Computational Physics 228, 8367-8379 (2009).
    http://dx.doi.org/10.1016/j.jcp.2009.08.008

  Of course, there are many other important community references, e.g., those cited in the
  above references. Our list is limited to references that describe implementations in the
  FHI-aims code. The reason is purely practical (length of this list) - please credit others as well.

------------------------------------------------------------
          Leaving FHI-aims.
          Date     :  20220517, Time     :  115702.067

          Computational steps:
          | Number of self-consistency cycles          :           14
          | Number of SCF (re)initializations          :            1

          Detailed time accounting                     :  max(cpu_time)    wall_clock(cpu1)
          | Total time                                  :        1.898 s           1.963 s
          | Preparation time                            :        0.184 s           0.184 s
          | Boundary condition initalization            :        0.000 s           0.000 s
          | Grid partitioning                           :        0.034 s           0.034 s
          | Preloading free-atom quantities on grid     :        0.015 s           0.016 s
          | Free-atom superposition energy              :        0.005 s           0.005 s
          | Total time for integrations                 :        0.454 s           0.455 s
          | Total time for solution of K.-S. equations  :        0.069 s           0.068 s
          | Total time for density & force components   :        0.640 s           0.641 s
          | Total time for mixing                       :        0.060 s           0.028 s
          | Total time for Hartree multipole update     :        0.019 s           0.017 s
          | Total time for Hartree multipole sum        :        0.296 s           0.296 s
          | Total time for total energy evaluation      :        0.002 s           0.003 s
          | Total time NSC force correction             :        0.065 s           0.064 s
          | Total time for scaled ZORA corrections      :        0.000 s           0.000 s

          Partial memory accounting:
          | Residual value for overall tracked memory usage across tasks:     0.000000 MB (should be 0.000000 MB)
          | Peak values for overall tracked memory usage:
          |   Minimum:        2.831 MB (on task 20 after allocating hessian_basis_wave)
          |   Maximum:        3.047 MB (on task  5 after allocating hessian_basis_wave)
          |   Average:        2.938 MB
          | Largest tracked array allocation:
          |   Minimum:        1.374 MB (hessian_basis_wave on task 13)
          |   Maximum:        1.496 MB (hessian_basis_wave on task  5)
          |   Average:        1.433 MB
          Note:  These values currently only include a subset of arrays which are explicitly tracked.
          The "true" memory usage will be greater.

          Have a nice day.
------------------------------------------------------------
