********************************************************************************
*                       GENERAL UTILITY LATTICE PROGRAM                        *
*                                 Julian Gale                                  *
*                       Curtin Institute for Computation                       *
*                           Department of Chemistry                            *
*                    Curtin University, Western Australia                      *
********************************************************************************
* Version = 5.1.1 * Last modified =  11th January 2019                         *
********************************************************************************
*  single       - perform a single point run                                   *
*  phonon       - calculate phonons for final geometry                         *
*  eigenvectors - output phonon eigenvectors                                   *
********************************************************************************

  Job Started  at 10:32.12 17th May        2022                               

  Number of CPUs =     1

  Host name      = login04                                 


  Total number of configurations input =      1

********************************************************************************
*  Input for Configuration =   1                                               *
********************************************************************************

  Formula = Al3F9                                                       

  Number of irreducible atoms/shells =      21


  Total number atoms/shells =      21

  Dimensionality = 0               :  Cluster


  Charge on cluster =  -0.000000


  Initial cluster dipoles : x =      1.010861 e.Angs
                            y =      0.221332 e.Angs
                            z =      0.150258 e.Angs

  Temperature of configuration =  0.000     K 

  Symmetry number =      1

  Cartesian coordinates of cluster :

--------------------------------------------------------------------------------
   No.  Atomic       x           y          z         Charge      Occupancy
        Label      (Angs)      (Angs)     (Angs)        (e)         (Frac)  
--------------------------------------------------------------------------------
      1 Al    c     -0.2910      1.0500     -1.7732     3.00000    1.000000    
      2 Al    c     -0.4369      1.0768      1.2882     3.00000    1.000000    
      3 Al    c     -2.9251      0.4798     -1.8180     3.00000    1.000000    
      4 F     c     -3.5599      0.3070     -3.6874     0.59000    1.000000    
      5 F     c     -1.4165     -0.5740     -1.8449     0.59000    1.000000    
      6 F     c     -1.9859      2.0607     -1.8952     0.59000    1.000000    
      7 F     c     -2.0488      0.7125      0.4490     0.59000    1.000000    
      8 F     c      0.5675      1.2625     -0.3556     0.59000    1.000000    
      9 F     c     -0.3029      2.7319      1.9887     0.59000    1.000000    
     10 F     c      0.3628     -0.3487      2.0475     0.59000    1.000000    
     11 F     c     -4.3209      0.2025     -0.5391     0.59000    1.000000    
     12 F     c      0.7349      1.2440     -3.2221     0.59000    1.000000    
     13 F     s     -3.5599      0.3070     -3.6874    -1.59000    1.000000    
     14 F     s     -1.4165     -0.5740     -1.8449    -1.59000    1.000000    
     15 F     s     -1.9859      2.0607     -1.8952    -1.59000    1.000000    
     16 F     s     -2.0488      0.7125      0.4490    -1.59000    1.000000    
     17 F     s      0.5675      1.2625     -0.3556    -1.59000    1.000000    
     18 F     s     -0.3029      2.7319      1.9887    -1.59000    1.000000    
     19 F     s      0.3628     -0.3487      2.0475    -1.59000    1.000000    
     20 F     s     -4.3209      0.2025     -0.5391    -1.59000    1.000000    
     21 F     s      0.7349      1.2440     -3.2221    -1.59000    1.000000    
--------------------------------------------------------------------------------


  Brillouin zone sampling points :

--------------------------------------------------------------------------------
  Point number          x          y          z            Weight
--------------------------------------------------------------------------------
        1           0.000000   0.000000   0.000000     1.00000000
--------------------------------------------------------------------------------


********************************************************************************
*  General input information                                                   *
********************************************************************************

  Species output for all configurations : 

--------------------------------------------------------------------------------
  Species    Type    Atomic    Atomic    Charge       Radii (Angs)     Library
                     Number     Mass       (e)     Cova   Ionic  VDW   Symbol
--------------------------------------------------------------------------------
    Al       Core       13      26.98   3.000000   1.350  0.000  2.050          
    F        Core        9      19.00   0.590000   0.710  0.000  1.300          
    F        Shell       9       0.00  -1.590000   0.710  0.000  1.300          
--------------------------------------------------------------------------------


  Accuracy factor for short range sums = 12.000

  Time limit = Infinity

  Maximum range for interatomic potentials =    100000.000000 Angstroms

  General interatomic potentials :

--------------------------------------------------------------------------------
Atom  Types   Potential      Parameter       Value         Units   Cutoffs(Ang)
  1     2                                                            Min /  Max 
--------------------------------------------------------------------------------
Al   c F    s Buckingham    Buckingham A     3760.0008    eV        0.000 10.000
                            Buckingham rho  0.22200000    Ang       
                            Buckingham C     0.0000000    eV*Ang^6  
--------------------------------------------------------------------------------
F    s F    s Buck 4 range  Buck4 A          1127.7000    eV        0.000 12.000
                            Buck4 rho       0.27530000    Ang       
                            Buck4 C          15.830000    eV*Ang^6  
                            Buck4 minimum    2.7900000    Ang       
--------------------------------------------------------------------------------
F    c F    s Spring (c-s)  Spring k 2       20.770000    eV*Ang^-2 0.000  0.800
                            Spring k 4       0.0000000    eV*Ang^-4 
--------------------------------------------------------------------------------

********************************************************************************
*  Output for configuration   1                                                *
********************************************************************************


  Components of energy : 

--------------------------------------------------------------------------------
  Interatomic potentials     =          10.76666177 eV    
  Monopole - monopole (real) =        -178.04044454 eV    
--------------------------------------------------------------------------------
  Total lattice energy       =        -167.27378277 eV    
--------------------------------------------------------------------------------
  Total lattice energy       =          -16139.3630 kJ/mol
--------------------------------------------------------------------------------

  Born effective charge tensors : 

-------------------------------------------------------------------------------
  Atom             x           y             z
-------------------------------------------------------------------------------
    1 Al    x       2.3842      0.0887     -0.3112
            y       0.0904      1.9644     -0.0713
            z      -0.2226     -0.0521      1.7342
-------------------------------------------------------------------------------
    2 Al    x       2.2204      0.0409      0.1944
            y       0.0440      2.0588      0.0460
            z       0.3579      0.0813      2.2571
-------------------------------------------------------------------------------
    3 Al    x       2.4704      0.2208      0.3569
            y       0.2164      1.5294      0.1157
            z       0.1287      0.0664      3.5027
-------------------------------------------------------------------------------
    4 F     x      -0.7996     -0.0707     -0.5287
            y      -0.0697     -0.5368     -0.1376
            z      -0.4743     -0.1258     -1.7418
-------------------------------------------------------------------------------
    5 F     x      -0.7462     -0.1066     -0.0699
            y      -0.1384     -0.8299     -0.0442
            z      -0.0508     -0.0789     -0.4014
-------------------------------------------------------------------------------
    6 F     x      -0.8513      0.0928     -0.0889
            y       0.1249     -0.7208      0.0240
            z      -0.0870      0.0632     -0.4055
-------------------------------------------------------------------------------
    7 F     x      -0.9673     -0.1411     -0.4889
            y      -0.1369     -0.3894     -0.1206
            z      -0.2660     -0.0725     -1.1424
-------------------------------------------------------------------------------
    8 F     x      -0.4724     -0.0354      0.2251
            y      -0.0352     -0.2957      0.0435
            z       0.2326      0.0451     -0.5605
-------------------------------------------------------------------------------
    9 F     x      -0.5202     -0.0723     -0.0506
            y      -0.0532     -0.9368     -0.2209
            z      -0.0566     -0.2882     -0.6981
-------------------------------------------------------------------------------
   10 F     x      -0.6360      0.2005     -0.1442
            y       0.1808     -0.8031      0.1856
            z      -0.1768      0.2445     -0.7160
-------------------------------------------------------------------------------
   11 F     x      -1.3281     -0.1648      0.5917
            y      -0.1692     -0.5476      0.1186
            z       0.3622      0.0690     -0.9977
-------------------------------------------------------------------------------
   12 F     x      -0.7539     -0.0528      0.3143
            y      -0.0539     -0.4925      0.0613
            z       0.2527      0.0480     -0.8306
-------------------------------------------------------------------------------




  Moment of inertia tensor (10^-46 x kgm^2): 

-------------------------------------------------------------------------------
                x           y           z           Principal axis system
-------------------------------------------------------------------------------
       x        167.42      -17.34      -39.77          105.664227
       y        -17.34      240.18      -10.68          192.754755
       z        -39.77      -10.68      134.95          244.135343
-------------------------------------------------------------------------------
  Centre of mass (Ang) =    -1.293897     0.852174    -0.778981
-------------------------------------------------------------------------------


  Vibrational Frequency Calculation : 

--------------------------------------------------------------------------------

  Frequencies (cm-1) and Eigenvectors : 

  Frequency    -349.2010 -323.9862 -223.0641 -103.9006  -53.2484  -26.7610
  IR Intensity    0.6839    0.0427    0.0766    0.0177    0.0000    0.0993
     in X         0.0975    0.0019    0.0330    0.0139    0.0000    0.0915
     in Y         0.0067    0.0408    0.0012    0.0006    0.0000    0.0044
     in Z         0.5796    0.0000    0.0424    0.0032    0.0000    0.0034
  Raman Intsty    0.0518    0.0000    0.6036    1.6540    0.0000    4.9171

     1 x       0.022481 -0.173713  0.075676 -0.408580 -0.038057  0.124760
     1 y       0.002877  0.803784  0.017879 -0.084160  0.176096  0.032557
     1 z      -0.103871 -0.015330  0.079904  0.217176 -0.003358  0.293328
     2 x       0.161892  0.010653 -0.162320  0.510563  0.085998 -0.061117
     2 y       0.033609 -0.049291 -0.031701  0.109313 -0.397922 -0.010349
     2 z      -0.072291  0.000940  0.177173 -0.053981  0.007590  0.149907
     3 x       0.065185  0.105721 -0.037796 -0.229714 -0.062901  0.133368
     3 y       0.029550 -0.489180 -0.010660 -0.050909  0.291049  0.022652
     3 z       0.810690  0.009330 -0.130636 -0.066268 -0.005552 -0.323533
     4 x      -0.208868  0.006240 -0.212966 -0.132057 -0.044825 -0.136743
     4 y      -0.053518 -0.028872 -0.056427 -0.028385  0.207409 -0.037993
     4 z      -0.439247  0.000550 -0.545356  0.008111 -0.003957 -0.442527
     5 x       0.008500 -0.067230 -0.049232 -0.171319 -0.033019 -0.007671
     5 y      -0.007095 -0.146171  0.033721 -0.063555  0.206873 -0.044505
     5 z      -0.023016 -0.017656  0.075494 -0.052319 -0.048986 -0.170726
     6 x       0.004994  0.121434 -0.031514 -0.181859 -0.055711 -0.024014
     6 y       0.009127 -0.104633 -0.048262 -0.014787  0.203688  0.031116
     6 z      -0.023326  0.022440  0.077057 -0.053249  0.041155 -0.172169
     7 x      -0.041854  0.000317  0.023145  0.255602  0.008879  0.141793
     7 y      -0.013043 -0.001467  0.013315  0.053495 -0.041085  0.024061
     7 z      -0.209583  0.000028  0.435835 -0.091518  0.000783 -0.345146
     8 x      -0.032067  0.012330  0.018465  0.040928  0.109608  0.137408
     8 y      -0.007525 -0.057054  0.005454  0.008066 -0.507165  0.033868
     8 z      -0.031185  0.001088  0.076730 -0.040841  0.009673  0.218686
     9 x      -0.002172 -0.003339 -0.010559  0.247223  0.073126 -0.078602
     9 y      -0.017222 -0.010986  0.024567  0.079331 -0.300080 -0.017105
     9 z      -0.018143 -0.013557  0.054584  0.018311 -0.046499  0.089995
    10 x      -0.008945  0.007469  0.000095  0.257771  0.056906 -0.079359
    10 y       0.014116 -0.008126 -0.024728  0.030524 -0.301593 -0.013601
    10 z      -0.018741  0.013922  0.055524  0.019242  0.057975  0.089927
    11 x      -0.048388  0.012061  0.419070  0.086350 -0.057346 -0.217810
    11 y      -0.010122 -0.055808  0.082974  0.016046  0.265344 -0.040162
    11 z       0.017606  0.001064 -0.398182 -0.137131 -0.005060  0.362348
    12 x       0.031418 -0.020955 -0.008217 -0.250429 -0.039791  0.030234
    12 y       0.006590  0.096959 -0.001439 -0.050043  0.184118  0.010863
    12 z      -0.010492 -0.001849  0.017642  0.213892 -0.003511  0.226971


  Frequency      -0.0000   -0.0000    0.0000  107.1138  138.0966  142.7452
  IR Intensity    0.0000    0.0000    0.0000    0.0007    0.0431    0.0000
     in X         0.0000    0.0000    0.0000    0.0000    0.0221    0.0000
     in Y         0.0000    0.0000    0.0000    0.0007    0.0009    0.0000
     in Z         0.0000    0.0000    0.0000    0.0000    0.0201    0.0000
  Raman Intsty    0.0000    0.0000    0.0000    0.0000    2.7683    0.0000

     1 x       0.087657  0.310448 -0.055020 -0.014438  0.096058  0.004402
     1 y       0.047718 -0.069512 -0.316196  0.066807  0.018848 -0.020366
     1 z       0.311654 -0.076675  0.063888 -0.001274 -0.100253  0.000388
     2 x       0.087657  0.310448 -0.055020  0.055130  0.003458  0.000227
     2 y       0.047718 -0.069512 -0.316196 -0.255091  0.000777 -0.001048
     2 z       0.311654 -0.076675  0.063888  0.004865  0.001579  0.000020
     3 x       0.087657  0.310448 -0.055020 -0.007264  0.000374  0.002485
     3 y       0.047718 -0.069512 -0.316196  0.033612 -0.001460 -0.011499
     3 z       0.311654 -0.076675  0.063888 -0.000641 -0.080805  0.000219
     4 x       0.073560  0.260522 -0.046171 -0.010297 -0.227335 -0.027008
     4 y       0.040044 -0.058333 -0.265346  0.047645 -0.051747  0.124971
     4 z       0.261534 -0.064344  0.053614 -0.000909 -0.137135 -0.002384
     5 x       0.073560  0.260522 -0.046171  0.000608 -0.067000 -0.111339
     5 y       0.040044 -0.058333 -0.265346  0.026915  0.009257 -0.153425
     5 z       0.261534 -0.064344  0.053614 -0.059116  0.138190 -0.228083
     6 x       0.073560  0.260522 -0.046171 -0.012130 -0.058289  0.162945
     6 y       0.040044 -0.058333 -0.265346  0.026397 -0.031048 -0.085360
     6 z       0.261534 -0.064344  0.053614  0.058099  0.138959  0.232637
     7 x       0.073560  0.260522 -0.046171  0.036627 -0.045448  0.100119
     7 y       0.040044 -0.058333 -0.265346 -0.169478 -0.003914 -0.463262
     7 z       0.261534 -0.064344  0.053614  0.003232  0.309782  0.008836
     8 x       0.073560  0.260522 -0.046171 -0.155487  0.096785 -0.010356
     8 y       0.040044 -0.058333 -0.265346  0.719452  0.019006  0.047919
     8 z       0.261534 -0.064344  0.053614 -0.013721 -0.100198 -0.000914
     9 x       0.073560  0.260522 -0.046171  0.049087  0.267609 -0.239285
     9 y       0.040044 -0.058333 -0.265346 -0.318118  0.065303  0.102709
     9 z       0.261534 -0.064344  0.053614  0.242826 -0.189408 -0.218595
    10 x       0.073560  0.260522 -0.046171  0.088525  0.272182  0.173818
    10 y       0.040044 -0.058333 -0.265346 -0.318625  0.044138  0.200216
    10 z       0.261534 -0.064344  0.053614 -0.230681 -0.189004  0.212818
    11 x       0.073560  0.260522 -0.046171 -0.026350 -0.092013 -0.112100
    11 y       0.040044 -0.058333 -0.265346  0.121922 -0.009047  0.518696
    11 z       0.261534 -0.064344  0.053614 -0.002326  0.568248 -0.009893
    12 x       0.073560  0.260522 -0.046171 -0.010418 -0.265523  0.054731
    12 y       0.040044 -0.058333 -0.265346  0.048203 -0.063594 -0.253243
    12 z       0.261534 -0.064344  0.053614 -0.000919 -0.325561  0.004830


  Frequency     150.6174  153.0926  157.1749  161.5892  162.4399  167.4490
  IR Intensity    0.0029    0.0035    0.0012    0.0018    0.0286    0.0034
     in X         0.0003    0.0002    0.0001    0.0001    0.0000    0.0030
     in Y         0.0000    0.0033    0.0012    0.0018    0.0000    0.0001
     in Z         0.0025    0.0000    0.0000    0.0000    0.0286    0.0003
  Raman Intsty    0.1715    0.0000    0.0000    0.0000    0.8599    0.0573

     1 x      -0.015111  0.009387  0.003836 -0.009748  0.051187 -0.068812
     1 y      -0.000104 -0.043433 -0.017748  0.045106  0.007562 -0.014537
     1 z       0.165771  0.000828  0.000338 -0.000861 -0.183554  0.017520
     2 x       0.000996  0.006521  0.010510 -0.003231 -0.016945  0.019995
     2 y      -0.001686 -0.030172 -0.048633  0.014948 -0.003463  0.004296
     2 z      -0.099682  0.000576  0.000928 -0.000285  0.010409 -0.001332
     3 x      -0.045636  0.001833  0.003100 -0.007902 -0.113173 -0.007115
     3 y      -0.009603 -0.008480 -0.014343  0.036561 -0.025782 -0.002711
     3 z       0.013638  0.000162  0.000273 -0.000697 -0.069363 -0.061548
     4 x      -0.087474  0.028949  0.023379 -0.140779 -0.334442  0.586814
     4 y      -0.018280 -0.133950 -0.108179  0.651392 -0.070738  0.119537
     4 z       0.032765  0.002555  0.002063 -0.012423  0.080865 -0.381962
     5 x      -0.032431  0.135610  0.067495 -0.060839 -0.069997 -0.043665
     5 y      -0.002440  0.141550  0.058172  0.028841  0.039263 -0.031808
     5 z       0.156888 -0.246791 -0.168447 -0.277443 -0.187775  0.202941
     6 x      -0.031780 -0.183887 -0.086814  0.041321 -0.046066 -0.054497
     6 y      -0.005452  0.081833  0.031216  0.061470 -0.071470  0.018316
     6 z       0.156946  0.242530  0.166742  0.275720 -0.185664  0.201984
     7 x      -0.059682  0.055944  0.042508 -0.002482 -0.163214 -0.214336
     7 y      -0.011702 -0.258858 -0.196689  0.011486 -0.032097 -0.045505
     7 z       0.062745  0.004937  0.003752 -0.000219  0.166505  0.042818
     8 x       0.097286  0.002281 -0.041315  0.001101 -0.200926 -0.159161
     8 y       0.022447 -0.010552  0.191165 -0.005095 -0.044036 -0.033314
     8 z       0.074549  0.000201 -0.003646  0.000097 -0.032063  0.056811
     9 x      -0.100697 -0.381700  0.466634  0.051978  0.306236  0.210254
     9 y       0.174895  0.000312  0.090542  0.001247 -0.070156 -0.020383
     9 z      -0.499511 -0.024232 -0.402399  0.030094  0.143412  0.007790
    10 x      -0.015582  0.347327 -0.465546 -0.047618  0.248828  0.183022
    10 y      -0.218935  0.158734 -0.095568 -0.021418  0.195489  0.105629
    10 z      -0.492001  0.021199  0.402495 -0.029709  0.138344  0.005387
    11 x      -0.039692  0.082716  0.019606  0.105621 -0.204439 -0.429336
    11 y      -0.008600 -0.382735 -0.090722 -0.488720 -0.044344 -0.095973
    11 z      -0.001122  0.007300  0.001730  0.009321 -0.008514 -0.167001
    12 x       0.341253 -0.108380 -0.046736  0.076579  0.558076 -0.012446
    12 y       0.081642  0.501481  0.216257 -0.354334  0.123927 -0.001063
    12 z       0.413735 -0.009565 -0.004124  0.006758  0.173870  0.085285


  Frequency     170.6153  182.6982  197.0798  216.1400  218.9541  235.1244
  IR Intensity    0.0008    0.0042    0.0339    0.0419    0.0028    0.0211
     in X         0.0000    0.0002    0.0270    0.0032    0.0001    0.0190
     in Y         0.0008    0.0040    0.0014    0.0003    0.0026    0.0009
     in Z         0.0000    0.0000    0.0055    0.0385    0.0000    0.0012
  Raman Intsty    0.0000    0.0000    0.0006    0.3545    0.0000    1.0986

     1 x      -0.014043 -0.042472  0.155173  0.045867  0.033730 -0.020882
     1 y       0.064980  0.196523  0.035930  0.013700 -0.156070 -0.005037
     1 z      -0.001239 -0.003748  0.125525  0.198568  0.002977 -0.027502
     2 x       0.059515  0.009369 -0.011138 -0.071580  0.030226 -0.261795
     2 y      -0.275382 -0.043352 -0.002328 -0.011824 -0.139862 -0.057543
     2 z       0.005252  0.000827  0.004154  0.191132  0.002667 -0.050579
     3 x      -0.012904 -0.008362  0.088137  0.111602  0.001025  0.064982
     3 y       0.059707  0.038691  0.017595  0.026611 -0.004743  0.012721
     3 z      -0.001139 -0.000738 -0.076188  0.130622  0.000090 -0.069364
     4 x      -0.030545  0.104187 -0.438404  0.033200  0.015845 -0.103582
     4 y       0.141328 -0.482084 -0.091990  0.009222 -0.073316 -0.021886
     4 z      -0.002695  0.009194  0.144568  0.107298  0.001398  0.026220
     5 x       0.025728  0.126920  0.184533  0.163829 -0.166902  0.030237
     5 y       0.051769  0.333306  0.053874  0.096872 -0.248405 -0.084530
     5 z       0.362902 -0.225425  0.229361 -0.367797 -0.300868  0.239665
     6 x      -0.041946 -0.254963  0.188503  0.192098  0.252186 -0.009243
     6 y       0.023273  0.259158  0.035502 -0.033931 -0.146212  0.098143
     6 z      -0.364334  0.214125  0.229711 -0.365302  0.308395  0.236181
     7 x      -0.023986 -0.040981 -0.078896 -0.137677 -0.144110  0.113680
     7 y       0.110987  0.189622 -0.020820 -0.027113  0.666811  0.015972
     7 z      -0.002117 -0.003616 -0.197599  0.138502 -0.012718 -0.450714
     8 x      -0.051905 -0.005391  0.256903 -0.300965 -0.017858 -0.512622
     8 y       0.240168  0.024945  0.056785 -0.058147  0.082628 -0.107044
     8 z      -0.004581 -0.000476  0.066265  0.361654 -0.001575  0.196301
     9 x      -0.236563 -0.052984  0.097937  0.129323 -0.079734  0.212754
     9 y      -0.083732 -0.023860 -0.054010  0.153145 -0.110478 -0.066760
     9 z      -0.424127 -0.034266  0.012410 -0.187003 -0.143296 -0.067993
    10 x       0.246685  0.057837  0.066806  0.182477  0.117099  0.166750
    10 y       0.036901  0.001406  0.090035 -0.092803 -0.062411  0.146107
    10 z       0.425019  0.034694  0.009662 -0.182313  0.146593 -0.072053
    11 x       0.042684 -0.002635 -0.383253 -0.056398 -0.016797  0.352793
    11 y      -0.197501  0.012192 -0.091394 -0.014423  0.077718  0.077442
    11 z       0.003767 -0.000233 -0.449125 -0.117121 -0.001483  0.062732
    12 x       0.031039  0.117421 -0.170794 -0.308238 -0.037164  0.008646
    12 y      -0.143620 -0.543316 -0.038991 -0.066768  0.171960  0.001971
    12 z       0.002739  0.010362 -0.108993 -0.007953 -0.003280  0.005362


  Frequency     255.7921  278.7813  285.5941  352.7998  377.0488  403.2509
  IR Intensity    0.1045    0.0537    0.0649    0.2110    0.0141    0.0708
     in X         0.0415    0.0024    0.0269    0.1795    0.0135    0.0651
     in Y         0.0015    0.0513    0.0015    0.0079    0.0006    0.0029
     in Z         0.0615    0.0000    0.0365    0.0236    0.0000    0.0028
  Raman Intsty    0.0153    0.0000    3.2259    0.1126    1.1768    0.0237

     1 x       0.053109  0.023242 -0.272817 -0.101072 -0.153336 -0.222165
     1 y       0.014540 -0.107544 -0.057532 -0.021855 -0.034839 -0.050821
     1 z       0.160549  0.002051  0.074946 -0.000595 -0.089136 -0.147170
     2 x      -0.419558  0.001226  0.012090 -0.246588 -0.115434 -0.325556
     2 y      -0.090598 -0.005672 -0.003855 -0.049198 -0.022427 -0.065640
     2 z       0.004010  0.000108 -0.339147  0.214674  0.132108  0.247396
     3 x      -0.056287  0.079686 -0.003329 -0.289049  0.044650  0.120760
     3 y      -0.008584 -0.368714 -0.002253 -0.061071  0.008724  0.027659
     3 z       0.187754  0.007032 -0.080400  0.073275 -0.048516  0.081805
     4 x       0.148166 -0.068365 -0.038856  0.098649 -0.035748 -0.025192
     4 y       0.033979  0.316330 -0.010481  0.020737 -0.008222 -0.005797
     4 z       0.102649 -0.006033 -0.109271 -0.030572 -0.026031 -0.018490
     5 x      -0.192574  0.554855  0.311650 -0.071181  0.137549  0.215307
     5 y      -0.129819  0.012414  0.288351  0.526931 -0.154942 -0.139879
     5 z      -0.134312 -0.040887  0.004550  0.030142  0.012413 -0.024447
     6 x      -0.227926 -0.510801  0.402843  0.152453  0.061219  0.138548
     6 y       0.033759 -0.216260 -0.133609 -0.507840  0.198245  0.215292
     6 z      -0.137432  0.044774  0.012598  0.049877  0.005677 -0.031221
     7 x      -0.169194 -0.041309 -0.298447  0.213379 -0.450480  0.485239
     7 y      -0.038691  0.191143 -0.063079  0.041565 -0.101207  0.107969
     7 z      -0.111404 -0.003646  0.074469 -0.238541 -0.201862  0.162524
     8 x       0.477943  0.001933  0.017850  0.104698  0.128405 -0.055958
     8 y       0.102682 -0.008943  0.001664  0.021157  0.022860 -0.020042
     8 z      -0.032007  0.000171 -0.115018 -0.077076 -0.256419 -0.416761
     9 x       0.240071 -0.012568  0.005848  0.067445  0.056641  0.041299
     9 y      -0.228494 -0.016454 -0.251344  0.167968  0.455887 -0.046231
     9 z      -0.077202 -0.017286  0.027094  0.007701  0.156918 -0.063920
    10 x       0.124938  0.018103 -0.098643  0.130705  0.238545  0.019033
    10 y       0.304241 -0.009157  0.232147 -0.124744 -0.385801  0.056795
    10 z      -0.087362  0.017774  0.017873  0.013283  0.172970 -0.065885
    11 x       0.182340 -0.060024  0.158611 -0.030518  0.148343 -0.213445
    11 y       0.038373  0.277734  0.037824 -0.006383  0.032847 -0.046717
    11 z      -0.054191 -0.005297  0.185871  0.011143  0.041309 -0.030817
    12 x      -0.080016 -0.005939 -0.146196  0.093097 -0.017402 -0.096050
    12 y      -0.015168  0.027480 -0.025636  0.018053 -0.001823 -0.015568
    12 z       0.111431 -0.000524  0.312474 -0.108379  0.101631  0.272104


  Frequency     458.4676  460.5072  500.9310  507.4360  573.8915  708.6828
  IR Intensity    0.1163    0.3377    0.3192    0.3546    0.0057    0.0615
     in X         0.0052    0.1346    0.2142    0.0158    0.0000    0.0019
     in Y         0.1111    0.0050    0.0112    0.3387    0.0000    0.0002
     in Z         0.0000    0.1981    0.0938    0.0001    0.0057    0.0593
  Raman Intsty    0.0000    0.4590    0.1177    0.0000    1.9324    0.0143

     1 x       0.060773 -0.371144  0.047230 -0.020209  0.444522 -0.350717
     1 y      -0.281187 -0.075885  0.008250  0.093508  0.090477 -0.087945
     1 z       0.005361  0.226971 -0.102480 -0.001785 -0.293216 -0.636991
     2 x      -0.031424  0.097225  0.279075 -0.153572  0.134052  0.005762
     2 y       0.145396  0.028043  0.071625  0.710621  0.032771  0.003447
     2 z      -0.002777  0.368655  0.593923 -0.013540  0.199231  0.115417
     3 x       0.130600 -0.278689  0.336809 -0.030319 -0.651788  0.134978
     3 y      -0.604286 -0.060346  0.071085  0.140324 -0.141257  0.028382
     3 z       0.011525 -0.005758 -0.089212 -0.002678 -0.020609 -0.041370
     4 x      -0.020521  0.015253 -0.025165  0.004780  0.049015 -0.016821
     4 y       0.094953  0.001962 -0.004425 -0.022119  0.010191 -0.003683
     4 z      -0.001810 -0.070004  0.053128  0.000423 -0.021054 -0.002500
     5 x      -0.308222  0.243944 -0.174218  0.067014  0.165682 -0.004967
     5 y       0.365193 -0.147804  0.134904 -0.079368 -0.076899  0.011718
     5 z       0.027884 -0.010237  0.030005 -0.002444  0.005493  0.016330
     6 x       0.130187  0.161249 -0.103221 -0.028294  0.119114  0.000185
     6 y       0.458575  0.234852 -0.193595 -0.099814  0.138579 -0.012120
     6 z      -0.043595 -0.017536  0.036270  0.005863  0.001383  0.016784
     7 x      -0.004771 -0.101795 -0.257135  0.010212 -0.027267  0.021614
     7 y       0.022082 -0.022756 -0.058282 -0.047275 -0.007621  0.004791
     7 z      -0.000421 -0.039659 -0.142185  0.000899 -0.090590  0.006255
     8 x      -0.000464  0.068381 -0.101098  0.005900 -0.007993  0.288498
     8 y       0.002147  0.015936 -0.027350 -0.027312 -0.001206  0.073257
     8 z      -0.000041  0.060681 -0.288455  0.000515  0.027337  0.571900
     9 x      -0.008893 -0.011376 -0.040429 -0.010159 -0.017817  0.000528
     9 y      -0.114049 -0.161668 -0.186756 -0.429882 -0.055967 -0.019726
     9 z      -0.052272 -0.112844 -0.129647 -0.151130 -0.041542 -0.019380
    10 x       0.054770 -0.076209 -0.112903  0.185516 -0.039003 -0.007510
    10 y      -0.098222  0.138326  0.148569 -0.381525  0.042066  0.017465
    10 z       0.056322 -0.118565 -0.136049  0.166598 -0.043412 -0.020089
    11 x      -0.020757  0.037685  0.096690  0.004679  0.046016  0.001856
    11 y       0.096042  0.009129  0.020347 -0.021643  0.010629  0.000492
    11 z      -0.001832  0.051578 -0.028860  0.000412  0.035884  0.004770
    12 x      -0.011929  0.321376 -0.072714  0.003566 -0.200503 -0.033168
    12 y       0.055183  0.060943 -0.013302 -0.016505 -0.038315 -0.005323
    12 z      -0.001049 -0.446324  0.126479  0.000316  0.263056  0.096755




--------------------------------------------------------------------------------
  Vibrational properties (for cluster):  Temperature  =       0.000 K
--------------------------------------------------------------------------------
  Zero point energy            =        0.478837 eV
--------------------------------------------------------------------------------

  Phonon density of states : 

--------------------------------------------------------------------------------
 Frequency (cm-1) Density of States                                             
--------------------------------------------------------------------------------
    0.00000 |********************                                          0.036
   11.07317 |                                                              0.000
   22.14634 |                                                              0.000
   33.21951 |                                                              0.000
   44.29268 |                                                              0.000
   55.36585 |                                                              0.000
   66.43901 |                                                              0.000
   77.51218 |                                                              0.000
   88.58535 |                                                              0.000
   99.65852 |********************                                          0.036
  110.73169 |                                                              0.000
  121.80486 |                                                              0.000
  132.87803 |****************************************                      0.071
  143.95120 |****************************************                      0.071
  155.02437 |************************************************************  0.107
  166.09754 |****************************************                      0.071
  177.17071 |********************                                          0.036
  188.24388 |********************                                          0.036
  199.31704 |                                                              0.000
  210.39021 |****************************************                      0.071
  221.46338 |                                                              0.000
  232.53655 |********************                                          0.036
  243.60972 |                                                              0.000
  254.68289 |********************                                          0.036
  265.75606 |                                                              0.000
  276.82923 |****************************************                      0.071
  287.90240 |                                                              0.000
  298.97557 |                                                              0.000
  310.04874 |                                                              0.000
  321.12191 |                                                              0.000
  332.19507 |                                                              0.000
  343.26824 |********************                                          0.036
  354.34141 |                                                              0.000
  365.41458 |                                                              0.000
  376.48775 |********************                                          0.036
  387.56092 |                                                              0.000
  398.63409 |********************                                          0.036
  409.70726 |                                                              0.000
  420.78043 |                                                              0.000
  431.85360 |                                                              0.000
  442.92677 |                                                              0.000
  453.99994 |****************************************                      0.071
  465.07310 |                                                              0.000
  476.14627 |                                                              0.000
  487.21944 |                                                              0.000
  498.29261 |****************************************                      0.071
  509.36578 |                                                              0.000
  520.43895 |                                                              0.000
  531.51212 |                                                              0.000
  542.58529 |                                                              0.000
  553.65846 |                                                              0.000
  564.73163 |********************                                          0.036
  575.80480 |                                                              0.000
  586.87797 |                                                              0.000
  597.95113 |                                                              0.000
  609.02430 |                                                              0.000
  620.09747 |                                                              0.000
  631.17064 |                                                              0.000
  642.24381 |                                                              0.000
  653.31698 |                                                              0.000
  664.39015 |                                                              0.000
  675.46332 |                                                              0.000
  686.53649 |                                                              0.000
  697.60966 |********************                                          0.036
--------------------------------------------------------------------------------



  XYZ File written as 003/5/sp_mod_-20/sp_mod_-20_eig.xyz


  Time to end of properties =       0.0136 seconds


  Peak dynamic memory used =       0.64 MB 


  Timing analysis for GULP :

--------------------------------------------------------------------------------
  Task / Subroutine                                          Time (Seconds)
--------------------------------------------------------------------------------
  Calculation of phonons                                          0.0039
--------------------------------------------------------------------------------
  Total CPU time                                                  0.0137
--------------------------------------------------------------------------------


  Job Finished at 10:32.12 17th May        2022                               

