------------------------------------------------------------
          Invoking FHI-aims ...

          When using FHI-aims, please cite the following reference:

            Volker Blum, Ralf Gehrke, Felix Hanke, Paula Havu,
            Ville Havu, Xinguo Ren, Karsten Reuter, and Matthias Scheffler,
            'Ab Initio Molecular Simulations with Numeric Atom-Centered Orbitals',
            Computer Physics Communications 180, 2175-2196 (2009)

          In addition, many other developments in FHI-aims are likely important for
          your particular application. A partial list of references is given at the end of
          this file. Thank you for giving credit to the authors of these developments.

          For any questions about FHI-aims, please visit our slack channel at

            https://fhi-aims.slack.com

          and our main development and support site at

            https://aims-git.rz-berlin.mpg.de .

          The latter site, in particular, has a wiki to collect information, as well
          as an issue tracker to log discussions, suggest improvements, and report issues
          or bugs. https://aims-git.rz-berlin.mpg.de is also the main development site
          of the project and all new and updated code versions can be obtained there.
          Please send an email to aims-coordinators@fhi-berlin.mpg.de and we will add
          you to these sites. They are for you and everyone is welcome there.

------------------------------------------------------------



  Date     :  20220517, Time     :  115225.664
  Time zero on CPU 1             :   0.399140000000000E-01  s.
  Internal wall clock time zero  :           422020345.664  s.

  FHI-aims created a unique identifier for this run for later identification
  aims_uuid : B58C4FCA-F8E5-4B91-AC31-E0F5A30ED7F3

  Build configuration of the current instance of FHI-aims
  -------------------------------------------------------
  FHI-aims version      : 210914
  Commit number         : GITDIR-NOTFOUND
  CMake host system     : Linux-3.10.0-693.17.1.el7.x86_64
  CMake version         : 3.21.1
  Fortran compiler      : /shared/ucl/apps/intel/2018.Update3/impi/2018.3.222/intel64/bin/mpiifort (Intel) version 18.0.3.20180410
  Fortran compiler flags: -O3 -ip -fp-model precise
  C compiler            : /shared/ucl/apps/intel/2018.Update3/compilers_and_libraries_2018.3.222/linux/bin/intel64/icc (Intel) version 18.0.3.20180410
  C compiler flags      : -O3 -ip -fp-model precise -std=gnu99
  ELPA2 kernel          : AVX2
  Using MPI
  Using ScaLAPACK
  Using LibXC
  Using i-PI
  Using RLSY
  Linking against: /shared/ucl/apps/intel/2019.Update5/compilers_and_libraries_2019.5.281/linux/mkl/lib/intel64/libmkl_intel_lp64.so
                   /shared/ucl/apps/intel/2019.Update5/compilers_and_libraries_2019.5.281/linux/mkl/lib/intel64/libmkl_sequential.so
                   /shared/ucl/apps/intel/2019.Update5/compilers_and_libraries_2019.5.281/linux/mkl/lib/intel64/libmkl_core.so
                   /shared/ucl/apps/intel/2019.Update5/compilers_and_libraries_2019.5.281/linux/mkl/lib/intel64/libmkl_blacs_intelmpi_lp64.so
                   /shared/ucl/apps/intel/2019.Update5/compilers_and_libraries_2019.5.281/linux/mkl/lib/intel64/libmkl_scalapack_lp64.so

  Using       24 parallel tasks.
  Task        0 on host node-k98a-018 reporting.
  Task        1 on host node-k98a-018 reporting.
  Task        2 on host node-k98a-018 reporting.
  Task        3 on host node-k98a-018 reporting.
  Task        4 on host node-k98a-018 reporting.
  Task        5 on host node-k98a-018 reporting.
  Task        6 on host node-k98a-018 reporting.
  Task        7 on host node-k98a-018 reporting.
  Task        8 on host node-k98a-018 reporting.
  Task        9 on host node-k98a-018 reporting.
  Task       10 on host node-k98a-018 reporting.
  Task       11 on host node-k98a-018 reporting.
  Task       12 on host node-k98a-018 reporting.
  Task       13 on host node-k98a-018 reporting.
  Task       14 on host node-k98a-018 reporting.
  Task       15 on host node-k98a-018 reporting.
  Task       16 on host node-k98a-018 reporting.
  Task       17 on host node-k98a-018 reporting.
  Task       18 on host node-k98a-018 reporting.
  Task       19 on host node-k98a-018 reporting.
  Task       20 on host node-k98a-018 reporting.
  Task       21 on host node-k98a-018 reporting.
  Task       22 on host node-k98a-018 reporting.
  Task       23 on host node-k98a-018 reporting.

  Performing system and environment tests:
  | Environment variable OMP_NUM_THREADS correctly set to 1.
  | Checking for ScaLAPACK...
  | Testing pdtran()...
  | All pdtran() tests passed.

  Obtaining array dimensions for all initial allocations:
  
  -----------------------------------------------------------------------
  Parsing control.in (first pass over file, find array dimensions only).
  The contents of control.in will be repeated verbatim below
  unless switched off by setting 'verbatim_writeout .false.' .
  in the first line of control.in .
  -----------------------------------------------------------------------
  
  #########################################################################################  Physical model
  #########################################################################################
  xc                 pbesol
  spin               none
  relativistic       atomic_zora scalar
  charge             0.0
  #  SCF convergence
  occupation_type    gaussian 0.01
  mixer              pulay
  n_max_pulay        10
  charge_mix_param   0.5
  sc_accuracy_rho    1E-5
  sc_accuracy_eev    1E-3
  sc_accuracy_etot   1E-6
  sc_accuracy_forces 1E-4
  sc_iter_limit      1500
  #  Relaxation
  #relax_geometry   bfgs 1.e-3
  
  ################################################################################
  #
  #  FHI-aims code project
  #  VB, Fritz-Haber Institut, 2009
  #
  #  Suggested "light" defaults for Al atom (to be pasted into control.in file)
  #  Be sure to double-check any results obtained with these settings for post-processing,
  #  e.g., with the "tight" defaults and larger basis sets.
  #
  ################################################################################
    species        Al
  #     global species definitions
      nucleus             13
      mass                26.9815386
  #
      l_hartree           4
  #
      cut_pot             3.5          1.5  1.0
      basis_dep_cutoff    1e-4
  #
      radial_base         41 5.0
      radial_multiplier   1
      angular_grids       specified
        division   0.6594  110
        division   0.8170  194
        division   0.9059  302
  #      division   1.0363  434
  #      division   1.1443  590
  #      division   1.2621  770
  #      division   2.8177  974
  #      outer_grid   974
        outer_grid   302
  ################################################################################
  #
  #  Definition of "minimal" basis
  #
  ################################################################################
  #     valence basis states
      valence      3  s   2.
      valence      3  p   1.
  #     ion occupancy
      ion_occ      3  s   1.
      ion_occ      2  p   6.
  ################################################################################
  #
  #  Suggested additional basis functions. For production calculations,
  #  uncomment them one after another (the most important basis functions are
  #  listed first).
  #
  #  Constructed for dimers: 2.0 A, 2.5 A, 3.0 A, 3.75 A, 4.5 A
  #
  ################################################################################
  #  "First tier" - improvements: -199.47 meV to -10.63 meV
       ionic 3 d auto
       ionic 3 p auto
  #     hydro 4 f 4.7
       ionic 3 s auto
  #  "Second tier" - improvements: -5.35 meV to -1.57 meV
  #     hydro 5 g 7
  #     hydro 3 d 6
  #     hydro 2 s 11.6
  #     hydro 2 p 0.9
  #  "Third tier" - improvements: -0.63 meV to -0.20 meV
  #     hydro 5 f 7.6
  #     hydro 4 p 7.2
  #     hydro 4 s 3.7
  #     hydro 4 d 7.6
  #  "Fourth tier" - improvements: -0.17 meV to -0.08 meV
  #     hydro 4 d 13.6
  #     hydro 5 g 11.2
  #     hydro 4 d 0.9
  #     hydro 1 s 0.4
  #     hydro 4 p 0.1
  #     hydro 5 f 9.8
  #  Further basis functions that fell out of the optimization - noise level...
  #     hydro 4 p 5
  
  ################################################################################
  #
  #  FHI-aims code project
  #  VB, Fritz-Haber Institut, 2009
  #
  #  Suggested "light" defaults for F atom (to be pasted into control.in file)
  #  Be sure to double-check any results obtained with these settings for post-processing,
  #  e.g., with the "tight" defaults and larger basis sets.
  #
  ################################################################################
    species        F
  #     global species definitions
      nucleus             9
      mass                18.9984032
  #
      l_hartree           4
  #
      cut_pot             3.5  1.5  1.0
      basis_dep_cutoff    1e-4
  #
      radial_base         37 5.0
      radial_multiplier   1
      angular_grids specified
        division   0.4014  110
        division   0.5291  194
        division   0.6019  302
  #      division   0.6814  434
  #      division   0.7989  590
  #      division   0.8965  770
  #      division   1.3427  974
  #      outer_grid   974
        outer_grid   302
  ################################################################################
  #
  #  Definition of "minimal" basis
  #
  ################################################################################
  #     valence basis states
      valence      2  s   2.
      valence      2  p   5.
  #     ion occupancy
      ion_occ      2  s   1.
      ion_occ      2  p   4.
  ################################################################################
  #
  #  Suggested additional basis functions. For production calculations,
  #  uncomment them one after another (the most important basis functions are
  #  listed first).
  #
  #  Constructed for dimers: 1.2 A, 1.418 A, 1.75 A, 2.25 A, 3.25 A
  #
  ################################################################################
  #  "First tier" - improvements: -149.44 meV to -45.88 meV
       hydro 2 p 1.7
       hydro 3 d 7.4
       hydro 3 s 6.8
  #  "Second tier" - improvements: -12.96 meV to -1.56 meV
  #     hydro 4 f 11.2
  #     ionic 2 p auto
  #     hydro 1 s 0.75
  #     hydro 4 d 8.8
  #     hydro 5 g 16.8
  #  "Third tier" - improvements: -0.58 meV to -0.05 meV
  #     hydro 3 p 6.2
  #     hydro 3 s 3.2
  #     hydro 4 f 9.6
  #     hydro 3 s 19.6
  #     hydro 4 d 8.6
  #     hydro 5 g 14.4
  # Further basis functions: -0.05 meV and below
  #     hydro 3 p 4.2
  
  -----------------------------------------------------------------------
  Completed first pass over input file control.in .
  -----------------------------------------------------------------------
  
  
  -----------------------------------------------------------------------
  Parsing geometry.in (first pass over file, find array dimensions only).
  The contents of geometry.in will be repeated verbatim below
  unless switched off by setting 'verbatim_writeout .false.' .
  in the first line of geometry.in .
  -----------------------------------------------------------------------
  
  atom -0.355161838 0.992280560 -1.818690936 Al
  atom -0.449400781 1.081366491 1.281530001 Al
  atom -3.023427103 0.474771078 -1.859122409 Al
  atom -3.533705855 0.323992336 -3.599904161 F
  atom -1.399217358 -0.581946304 -1.798940338 F
  atom -1.916661893 2.055683189 -1.935177761 F
  atom -2.049707777 0.787204855 0.454361909 F
  atom 0.617271416 1.173442897 -0.292930775 F
  atom -0.374759781 2.734192204 2.030625571 F
  atom 0.435596408 -0.330511071 2.009706958 F
  atom -4.275007567 0.203271526 -0.580648513 F
  atom 0.734904219 1.302459703 -3.234974444 F
  
  -----------------------------------------------------------------------
  Completed first pass over input file geometry.in .
  -----------------------------------------------------------------------
  

  Basic array size parameters:
  | Number of species                 :        2
  | Number of atoms                   :       12
  | Max. basis fn. angular momentum   :        2
  | Max. atomic/ionic basis occupied n:        3
  | Max. number of basis fn. types    :        3
  | Max. radial fns per species/type  :        5
  | Max. logarithmic grid size        :     1340
  | Max. radial integration grid size :       41
  | Max. angular integration grid size:      302
  | Max. angular grid division number :        8
  | Radial grid for Hartree potential :     1340
  | Number of spin channels           :        1

------------------------------------------------------------
          Reading file control.in.
------------------------------------------------------------
  XC: Using PBEsol gradient-corrected functionals.
  Spin treatment: No spin polarisation.
  Scalar relativistic treatment of kinetic energy: on-site free-atom approximation to ZORA.
  Charge =   0.000000E+00: Neutral system requested explicitly.
  Occupation type: Gaussian broadening, width =   0.100000E-01 eV.
  Using pulay charge density mixing.
  Pulay mixing - number of memorized iterations:   10
  Charge density mixing - mixing parameter:     0.5000
  Convergence accuracy of self-consistent charge density:  0.1000E-04
  Convergence accuracy of sum of eigenvalues:  0.1000E-02
  Convergence accuracy of total energy:  0.1000E-05
  Convergence accuracy of forces:  0.1000E-03
  Maximum number of s.-c. iterations  :  1500
 
  Reading configuration options for species Al                  .
  | Found nuclear charge :  13.0000
  | Found atomic mass :    26.9815386000000      amu
  | Found l_max for Hartree potential  :   4
  | Found cutoff potl. onset [A], width [A], scale factor :    3.50000    1.50000    1.00000
  | Threshold for basis-dependent cutoff potential is   0.100000E-03
  | Found data for basic radial integration grid :    41 points, outermost radius =    5.000 A
  | Found multiplier for basic radial grid :   1
  | Found angular grid specification: user-specified.
  | Specified grid contains     4 separate shells.
  | Check grid settings after all constraints further below.
  | Found free-atom valence shell :  3 s   2.000
  | Found free-atom valence shell :  3 p   1.000
  | Found free-ion valence shell :  3 s   1.000
  | Found free-ion valence shell :  2 p   6.000
  | Found ionic basis function :  3 d , default cutoff radius.
  | Found ionic basis function :  3 p , default cutoff radius.
  | Found ionic basis function :  3 s , default cutoff radius.
  Species Al                  : Missing cutoff potential type.
  Defaulting to exp(1/x)/(1-x)^2 type cutoff potential.
  Species Al: No 'logarithmic' tag. Using default grid for free atom:
  | Default logarithmic grid data [bohr] : 0.1000E-03 0.1000E+03 0.1012E+01
  | Will include ionic basis functions of  2.0-fold positive Al                   ion.
  Species Al: On-site basis accuracy parameter (for Gram-Schmidt orthonormalisation) not specified.
  Using default value basis_acc =  0.1000000E-03.
  Species Al                  : Using default innermost maximum threshold i_radial=  2 for radial functions.
  Species Al                  : Default cutoff onset for free atom density etc. : 0.35000000E+01 AA.
  Species Al                  : Basic radial grid will be enhanced according to radial_multiplier =   1, to contain    41 grid points.
 
  Reading configuration options for species F                   .
  | Found nuclear charge :   9.0000
  | Found atomic mass :    18.9984032000000      amu
  | Found l_max for Hartree potential  :   4
  | Found cutoff potl. onset [A], width [A], scale factor :    3.50000    1.50000    1.00000
  | Threshold for basis-dependent cutoff potential is   0.100000E-03
  | Found data for basic radial integration grid :    37 points, outermost radius =    5.000 A
  | Found multiplier for basic radial grid :   1
  | Found angular grid specification: user-specified.
  | Specified grid contains     4 separate shells.
  | Check grid settings after all constraints further below.
  | Found free-atom valence shell :  2 s   2.000
  | Found free-atom valence shell :  2 p   5.000
  | Found free-ion valence shell :  2 s   1.000
  | Found free-ion valence shell :  2 p   4.000
  | Found hydrogenic basis function :  2 p   1.700
  | Found hydrogenic basis function :  3 d   7.400
  | Found hydrogenic basis function :  3 s   6.800
  Species F                   : Missing cutoff potential type.
  Defaulting to exp(1/x)/(1-x)^2 type cutoff potential.
  Species F : No 'logarithmic' tag. Using default grid for free atom:
  | Default logarithmic grid data [bohr] : 0.1000E-03 0.1000E+03 0.1012E+01
  Species F : On-site basis accuracy parameter (for Gram-Schmidt orthonormalisation) not specified.
  Using default value basis_acc =  0.1000000E-03.
  Species F                   : Using default innermost maximum threshold i_radial=  2 for radial functions.
  Species F                   : Default cutoff onset for free atom density etc. : 0.35000000E+01 AA.
  Species F                   : Basic radial grid will be enhanced according to radial_multiplier =   1, to contain    37 grid points.
 
  Finished reading input file 'control.in'.
 
------------------------------------------------------------


------------------------------------------------------------
          Reading geometry description geometry.in.
------------------------------------------------------------
  | The smallest distance between any two atoms is         1.80960249 AA.
  | The first atom of this pair is atom number                      3 .
  | The second atom of this pair is atom number                    11 .
  Input structure read successfully.
  The structure contains       12 atoms,  and a total of        120.000 electrons.

  Input geometry:
  | No unit cell requested.
  | Atomic structure:
  |       Atom                x [A]            y [A]            z [A]
  |    1: Species Al           -0.35516184        0.99228056       -1.81869094
  |    2: Species Al           -0.44940078        1.08136649        1.28153000
  |    3: Species Al           -3.02342710        0.47477108       -1.85912241
  |    4: Species F            -3.53370586        0.32399234       -3.59990416
  |    5: Species F            -1.39921736       -0.58194630       -1.79894034
  |    6: Species F            -1.91666189        2.05568319       -1.93517776
  |    7: Species F            -2.04970778        0.78720486        0.45436191
  |    8: Species F             0.61727142        1.17344290       -0.29293077
  |    9: Species F            -0.37475978        2.73419220        2.03062557
  |   10: Species F             0.43559641       -0.33051107        2.00970696
  |   11: Species F            -4.27500757        0.20327153       -0.58064851
  |   12: Species F             0.73490422        1.30245970       -3.23497444

 
  Finished reading input file 'control.in'.
 

------------------------------------------------------------
          Reading geometry description geometry.in.
------------------------------------------------------------
 
  Consistency checks for stacksize environment parameter are next.
 
  | Maximum stacksize for task 0: unlimited
  | Maximum stacksize for task 1: unlimited
  | Maximum stacksize for task 2: unlimited
  | Maximum stacksize for task 3: unlimited
  | Maximum stacksize for task 4: unlimited
  | Maximum stacksize for task 5: unlimited
  | Maximum stacksize for task 6: unlimited
  | Maximum stacksize for task 7: unlimited
  | Maximum stacksize for task 8: unlimited
  | Maximum stacksize for task 9: unlimited
  | Maximum stacksize for task 10: unlimited
  | Maximum stacksize for task 11: unlimited
  | Maximum stacksize for task 12: unlimited
  | Maximum stacksize for task 13: unlimited
  | Maximum stacksize for task 14: unlimited
  | Maximum stacksize for task 15: unlimited
  | Maximum stacksize for task 16: unlimited
  | Maximum stacksize for task 17: unlimited
  | Maximum stacksize for task 18: unlimited
  | Maximum stacksize for task 19: unlimited
  | Maximum stacksize for task 20: unlimited
  | Maximum stacksize for task 21: unlimited
  | Maximum stacksize for task 22: unlimited
  | Maximum stacksize for task 23: unlimited
  | Current stacksize for task 0: unlimited
  | Current stacksize for task 1: unlimited
  | Current stacksize for task 2: unlimited
  | Current stacksize for task 3: unlimited
  | Current stacksize for task 4: unlimited
  | Current stacksize for task 5: unlimited
  | Current stacksize for task 6: unlimited
  | Current stacksize for task 7: unlimited
  | Current stacksize for task 8: unlimited
  | Current stacksize for task 9: unlimited
  | Current stacksize for task 10: unlimited
  | Current stacksize for task 11: unlimited
  | Current stacksize for task 12: unlimited
  | Current stacksize for task 13: unlimited
  | Current stacksize for task 14: unlimited
  | Current stacksize for task 15: unlimited
  | Current stacksize for task 16: unlimited
  | Current stacksize for task 17: unlimited
  | Current stacksize for task 18: unlimited
  | Current stacksize for task 19: unlimited
  | Current stacksize for task 20: unlimited
  | Current stacksize for task 21: unlimited
  | Current stacksize for task 22: unlimited
  | Current stacksize for task 23: unlimited
 
  Consistency checks for the contents of control.in are next.
 
  MPI_IN_PLACE appears to work with this MPI implementation.
  | Keeping use_mpi_in_place .true. (see manual).
  Target number of points in a grid batch is not set. Defaulting to  100
  Method for grid partitioning is not set. Defaulting to parallel hash+maxmin partitioning.
  Batch size limit is not set. Defaulting to    200
  By default, will store active basis functions for each batch.
  If in need of memory, prune_basis_once .false. can be used to disable this option.
  communication_type for Hartree potential was not specified.
  Defaulting to calc_hartree .
  Pulay mixer: Number of initial linear mixing iterations not set.
  Defaulting to    0 iterations.
  Work space size for distributed Hartree potential not set.
  Defaulting to   0.200000E+03 MB.
  Algorithm-dependent basis array size parameters:
  | n_max_pulay                         :       10
  Presetting      1001 iterations before the initial mixing cycle
  is restarted anyway using the sc_init_iter criterion / keyword.
  Presetting a factor      1.000 between actual scf density residual
  and density convergence criterion sc_accuracy_rho below which sc_init_iter
  takes no effect.
  Geometry relaxation not requested: no relaxation will be performed.
  Forces evaluation will include force correction term due to incomplete self-consistency (default).
  Handling of forces: Unphysical translation and rotation will be removed from forces.
  No accuracy limit for integral partition fn. given. Defaulting to  0.1000E-14.
  No threshold value for u(r) in integrations given. Defaulting to  0.1000E-05.
  No accuracy for occupation numbers given. Defaulting to  0.1000E-12.
  No threshold value for occupation numbers given. Defaulting to  0.0000E+00.
  No accuracy for fermi level given. Defaulting to  0.1000E-19.
  Maximum # of iterations to find E_F not set. Defaulting to  200.
  Preferred method for the eigenvalue solver ('KS_method') not specified in 'control.in'.
  Calling BLACS routine to test compilation state
  Since ScaLAPACK support is enabled, defaulting to ELPA (via ELSI).
  Will not use alltoall communication since running on < 1024 CPUs.
  Threshold for basis singularities not set.
  Default threshold for basis singularities:  0.1000E-04
  partition_type (choice of integration weights) for integrals was not specified.
  | Using a version of the partition function of Stratmann and coworkers ('stratmann_sparse').
  | At each grid point, the set of atoms used to build the partition table is smoothly restricted to
  | only those atoms whose free-atom density would be non-zero at that grid point.
  Partitioning for Hartree potential was not defined. Using partition_type for integrals.
  | Adjusted default value of keyword multip_moments_threshold to:       0.10000000E-11
  | This value may affect high angular momentum components of the Hartree potential in periodic systems.
  No q(lm)/r^(l+1) cutoff set for long-range Hartree potential.
  | Using default value of  0.100000E-09 .
  | Verify using the multipole_threshold keyword.
  Defaulting to new monopole extrapolation.
  Density update method: automatic selection selected.
  Charge integration errors on the 3D integration grid will be compensated
  by explicit normalization and distribution of residual charges.
  Use the "compensate_multipole_errors" flag to change this behaviour.
  Set 'collect_eigenvectors' to be '.true.' for use_density_matrix .false.
 
  Consistency checks for the contents of geometry.in are next.
 
  Number of empty states per atom not set in control.in - providing a guess from actual geometry.
  | Total number of empty states used during s.c.f. cycle:       36
  If you use a very high smearing, use empty_states (per atom!) in control.in to increase this value.

  Structure-dependent array size parameters: 
  | Maximum number of distinct radial functions  :       14
  | Maximum number of basis functions            :      180
  | Number of Kohn-Sham states (occupied + empty):       96
------------------------------------------------------------

------------------------------------------------------------
          Preparing all fixed parts of the calculation.
------------------------------------------------------------
  Determining machine precision:
    2.225073858507201E-308
  Setting up grids for atomic and cluster calculations.

  Creating wave function, potential, and density for free atoms.

  Species: Al

  List of occupied orbitals and eigenvalues:
    n    l              occ      energy [Ha]    energy [eV]
    1    0           2.0000       -55.621123     -1513.5278
    2    0           2.0000        -3.957030      -107.6763
    3    0           2.0000        -0.272233        -7.4078
    2    1           6.0000        -2.540949       -69.1427
    3    1           1.0000        -0.083300        -2.2667


  Species: F

  List of occupied orbitals and eigenvalues:
    n    l              occ      energy [Ha]    energy [eV]
    1    0           2.0000       -24.399611      -663.9472
    2    0           2.0000        -1.098702       -29.8972
    2    1           5.0000        -0.408210       -11.1080


  Adding cutoff potential to free-atom effective potential.
  Creating fixed part of basis set: Ionic, confined, hydrogenic.
 
  Al                   ion:

  List of free ionic orbitals and eigenvalues:
    n    l      energy [Ha]    energy [eV]
    1    0       -56.418846     -1535.2349
    2    0        -4.732717      -128.7838
    3    0        -0.872690       -23.7471
    2    1        -3.317230       -90.2664


  List of ionic basis orbitals and eigenvalues:
    n    l      energy [Ha]    energy [eV]    outer radius [A]
    3    2        -0.346815        -9.4373       4.594041
    3    1        -0.631870       -17.1940       4.538221
    3    0        -0.872657       -23.7462       4.538221

 
  F                    hydrogenic:
 
  List of hydrogenic basis orbitals: 
    n    l      effective z      eigenvalue [eV]  inner max. [A]     outer max. [A]     outer radius [A]   
    2    1         1.700000        -9.7616           1.243167           1.243167           4.598524
    3    2         7.400000       -82.7828           0.642437           0.642437           3.305741
    3    0         6.800000       -69.9026           0.057798           1.022307           3.781556
 
  Creating atomic-like basis functions for current effective potential.

  Species Al                  :

  List of atomic basis orbitals and eigenvalues:
    n    l      energy [Ha]    energy [eV]    outer radius [A]
    1    0       -55.621123     -1513.5278       0.850197
    2    0        -3.957030      -107.6763       3.144911
    3    0        -0.272233        -7.4078       4.594041
    2    1        -2.540949       -69.1427       3.731966
    3    1        -0.083300        -2.2667       4.594041


  Species F                   :

  List of atomic basis orbitals and eigenvalues:
    n    l      energy [Ha]    energy [eV]    outer radius [A]
    1    0       -24.399611      -663.9472       1.258458
    2    0        -1.098702       -29.8972       4.325857
    2    1        -0.408210       -11.1080       4.487453

  Assembling full basis from fixed parts.
  | Species Al :   atomic orbital   1 s accepted.
  | Species Al :   atomic orbital   2 s accepted.
  | Species Al :    ionic orbital   3 s accepted.
  | Species Al :   atomic orbital   3 s accepted.
  | Species Al :   atomic orbital   2 p accepted.
  | Species Al :    ionic orbital   3 p accepted.
  | Species Al :   atomic orbital   3 p accepted.
  | Species Al :    ionic orbital   3 d accepted.
  | Species F :   atomic orbital   1 s accepted.
  | Species F :    hydro orbital   3 s accepted.
  | Species F :   atomic orbital   2 s accepted.
  | Species F :   atomic orbital   2 p accepted.
  | Species F :    hydro orbital   2 p accepted.
  | Species F :    hydro orbital   3 d accepted.
 
  Basis size parameters after reduction:
  | Total number of radial functions:       14
  | Total number of basis functions :      180
 
  Per-task memory consumption for arrays in subroutine allocate_ext:
  |           4.807768MB.
  Testing on-site integration grid accuracy.
  |  Species  Function  <phi|h_atom|phi> (log., in eV)  <phi|h_atom|phi> (rad., in eV)
           1        1              -1513.5277717935              -1513.5271881332
           1        2               -107.6762691836               -107.6762662489
           1        3                 -6.9467474784                 -6.9471269649
           1        4                  5.5771951849                  5.4862107220 ***
           1        5                -69.1427313144                -69.1427312731
           1        6                 -1.5197375330                 -1.5230432022
           1        7                  6.8210948310                  6.5529872240 ***
           1        8                  4.3216540965                  4.2851170187 ***
           2        9               -663.9471986398               -663.9470363334
           2       10                 16.8514011578                 16.8512525338
           2       11                -28.4490593856                -28.4490661472
           2       12                -11.1080115307                -11.1080620173
           2       13                  7.1940182175                  7.1685154137
           2       14                 44.8544281765                 44.8543763625
 * Note: Onsite integrals marked "***" above are less accurate than
 * onsite_accuracy_threshold =    0.03000 eV. Usually, this is harmless.
 * When in doubt, tighten the "radial" and/or "radial_multiplier" flags to check.

  Preparing densities etc. for the partition functions (integrals / Hartree potential).

  Preparations completed.
  max(cpu_time)          :      0.184 s.
  Wall clock time (cpu1) :      0.184 s.
------------------------------------------------------------

------------------------------------------------------------
          Begin self-consistency loop: Initialization.

          Date     :  20220517, Time     :  115225.892
------------------------------------------------------------

  Initializing index lists of integration centers etc. from given atomic structure:
  | Number of centers in hartree potential         :        12
  | Number of centers in hartree multipole         :        12
  | Number of centers in electron density summation:        12
  | Number of centers in basis integrals           :        12
  | Number of centers in integrals                 :        12
  | Number of centers in hamiltonian               :        12
  * Using 24 tasks for Scalapack Eigenvalue solver.
  Detailed listing of tasks and assigned k-points:
  (for non-periodic systems, the "k-point" denotes an internal label only)
   Task     0 k-point     1 on node-k98a-018
   Task     1 k-point     1 on node-k98a-018
   Task     2 k-point     1 on node-k98a-018
   Task     3 k-point     1 on node-k98a-018
   Task     4 k-point     1 on node-k98a-018
   Task     5 k-point     1 on node-k98a-018
   Task     6 k-point     1 on node-k98a-018
   Task     7 k-point     1 on node-k98a-018
   Task     8 k-point     1 on node-k98a-018
   Task     9 k-point     1 on node-k98a-018
   Task    10 k-point     1 on node-k98a-018
   Task    11 k-point     1 on node-k98a-018
   Task    12 k-point     1 on node-k98a-018
   Task    13 k-point     1 on node-k98a-018
   Task    14 k-point     1 on node-k98a-018
   Task    15 k-point     1 on node-k98a-018
   Task    16 k-point     1 on node-k98a-018
   Task    17 k-point     1 on node-k98a-018
   Task    18 k-point     1 on node-k98a-018
   Task    19 k-point     1 on node-k98a-018
   Task    20 k-point     1 on node-k98a-018
   Task    21 k-point     1 on node-k98a-018
   Task    22 k-point     1 on node-k98a-018
   Task    23 k-point     1 on node-k98a-018
  Tasks:    24 split into      6 X      4 BLACS grid
  Calculating block size based on n_basis =          180  max_nprow =            6  max_npcol =            4
  ScaLAPACK block size set to:           16
  Allocating        0.012 MB for ovlp
  Allocating        0.012 MB for ham
  Allocating        0.012 MB for eigenvec
  Required Scalapack workspace - INTEGER:            1  REAL:             1
  Partitioning the integration grid into batches with parallel hashing+maxmin method.
  | Number of batches:     1057
  | Maximal batch size:     194
  | Minimal batch size:      21
  | Average batch size:      86.963
  | Standard deviation of batch sizes:      28.892

  Integration load balanced across    24 MPI tasks.
  Work distribution over tasks is as follows:
  Task     0 has       3780 integration points.
  Task     1 has       3826 integration points.
  Task     2 has       3832 integration points.
  Task     3 has       3800 integration points.
  Task     4 has       3841 integration points.
  Task     5 has       3804 integration points.
  Task     6 has       3833 integration points.
  Task     7 has       3804 integration points.
  Task     8 has       3878 integration points.
  Task     9 has       3806 integration points.
  Task    10 has       3946 integration points.
  Task    11 has       3867 integration points.
  Task    12 has       3851 integration points.
  Task    13 has       3824 integration points.
  Task    14 has       3804 integration points.
  Task    15 has       3809 integration points.
  Task    16 has       3780 integration points.
  Task    17 has       3809 integration points.
  Task    18 has       3798 integration points.
  Task    19 has       3827 integration points.
  Task    20 has       3830 integration points.
  Task    21 has       3821 integration points.
  Task    22 has       3808 integration points.
  Task    23 has       3942 integration points.
  Initializing partition tables, free-atom densities, potentials, etc. across the integration grid (initialize_grid_storage).
  | initialize_grid_storage: Actual outermost partition radius vs. multipole_radius_free
  | (-- VB: in principle, multipole_radius_free should be larger, hence this output)
  | Species        1: Confinement radius =              4.999999999999999 AA, multipole_radius_free =              5.004487022111096 AA.
  | Species        1: outer_partition_radius set to              5.004487022111096 AA .
  | Species        2: Confinement radius =              4.999999999999999 AA, multipole_radius_free =              5.009370088163274 AA.
  | Species        2: outer_partition_radius set to              5.009370088163274 AA .
  | The sparse table of interatomic distances needs          1.64 kbyte instead of         1.15 kbyte of memory.
  | Using the partition_type stratmann_smoother will reduce your memory usage.
  | Net number of integration points:    91920
  | of which are non-zero points    :    85690
  Renormalizing the initial density to the exact electron count on the 3D integration grid.
  | Initial density: Formal number of electrons (from input files) :     120.0000000000
  | Integrated number of electrons on 3D grid     :     119.9999129016
  | Charge integration error                      :      -0.0000870984
  | Normalization factor for density and gradient :       1.0000007258
  Renormalizing the free-atom superposition density to the exact electron count on the 3D integration grid.
  | Formal number of electrons (from input files) :     120.0000000000
  | Integrated number of electrons on 3D grid     :     119.9999129016
  | Charge integration error                      :      -0.0000870984
  | Normalization factor for density and gradient :       1.0000007258
  Obtaining max. number of non-zero basis functions in each batch (get_n_compute_maxes).
  | Maximal number of non-zero basis functions:      164 in task     0
  | Maximal number of non-zero basis functions:      166 in task     1
  | Maximal number of non-zero basis functions:      158 in task     2
  | Maximal number of non-zero basis functions:      160 in task     3
  | Maximal number of non-zero basis functions:      166 in task     4
  | Maximal number of non-zero basis functions:      163 in task     5
  | Maximal number of non-zero basis functions:      164 in task     6
  | Maximal number of non-zero basis functions:      166 in task     7
  | Maximal number of non-zero basis functions:      170 in task     8
  | Maximal number of non-zero basis functions:      165 in task     9
  | Maximal number of non-zero basis functions:      165 in task    10
  | Maximal number of non-zero basis functions:      170 in task    11
  | Maximal number of non-zero basis functions:      165 in task    12
  | Maximal number of non-zero basis functions:      165 in task    13
  | Maximal number of non-zero basis functions:      165 in task    14
  | Maximal number of non-zero basis functions:      166 in task    15
  | Maximal number of non-zero basis functions:      165 in task    16
  | Maximal number of non-zero basis functions:      161 in task    17
  | Maximal number of non-zero basis functions:      165 in task    18
  | Maximal number of non-zero basis functions:      172 in task    19
  | Maximal number of non-zero basis functions:      171 in task    20
  | Maximal number of non-zero basis functions:      165 in task    21
  | Maximal number of non-zero basis functions:      165 in task    22
  | Maximal number of non-zero basis functions:      165 in task    23
  Selecting the method for density update.
  Loop over occupied states selected for charge density update.
  Allocating        0.132 MB for KS_eigenvector
  Integrating Hamiltonian matrix: batch-based integration.
  Time summed over all CPUs for integration: real work        0.702 s, elapsed        0.763 s
  Integrating overlap matrix.
  Time summed over all CPUs for integration: real work        0.273 s, elapsed        0.291 s
  Deallocating overlap matrix.

  Updating Kohn-Sham eigenvalues and eigenvectors using ELSI and the ELPA eigensolver.
  Overlap matrix is not singular
  | Lowest and highest eigenvalues :  0.3551E-02,  0.5211E+01
  Finished singularity check of overlap matrix
  | Time :     0.004 s
  Starting ELPA eigensolver
  Finished Cholesky decomposition
  | Time :     0.002 s
  Finished transformation to standard eigenproblem
  | Time :     0.001 s
  Finished solving standard eigenproblem
  | Time :     0.003 s
  Finished back-transformation of eigenvectors
  | Time :     0.000 s

  Obtaining occupation numbers and chemical potential using ELSI.
  | Chemical potential (Fermi level):    -7.77238608 eV
  Writing Kohn-Sham eigenvalues.

  State    Occupation    Eigenvalue [Ha]    Eigenvalue [eV]
      1       2.00000         -55.484890        -1509.82068
      2       2.00000         -55.484203        -1509.80197
      3       2.00000         -55.483160        -1509.77360
      4       2.00000         -24.370218         -663.14738
      5       2.00000         -24.360085         -662.87163
      6       2.00000         -24.359829         -662.86469
      7       2.00000         -24.344865         -662.45748
      8       2.00000         -24.341377         -662.36257
      9       2.00000         -24.340813         -662.34721
     10       2.00000         -24.340547         -662.33998
     11       2.00000         -24.340291         -662.33302
     12       2.00000         -24.340086         -662.32744
     13       2.00000          -3.950330         -107.49394
     14       2.00000          -3.949262         -107.46489
     15       2.00000          -3.948168         -107.43512
     16       2.00000          -2.543196          -69.20388
     17       2.00000          -2.542435          -69.18318
     18       2.00000          -2.542114          -69.17445
     19       2.00000          -2.541242          -69.15071
     20       2.00000          -2.541052          -69.14554
     21       2.00000          -2.540561          -69.13219
     22       2.00000          -2.540332          -69.12595
     23       2.00000          -2.539901          -69.11423
     24       2.00000          -2.539262          -69.09684
     25       2.00000          -1.194125          -32.49379
     26       2.00000          -1.185812          -32.26758
     27       2.00000          -1.175498          -31.98694
     28       2.00000          -1.158757          -31.53138
     29       2.00000          -1.150384          -31.30354
     30       2.00000          -1.149317          -31.27451
     31       2.00000          -1.149042          -31.26702
     32       2.00000          -1.147513          -31.22543
     33       2.00000          -1.146961          -31.21039
     34       2.00000          -0.559775          -15.23226
     35       2.00000          -0.547081          -14.88684
     36       2.00000          -0.542764          -14.76935
     37       2.00000          -0.517865          -14.09183
     38       2.00000          -0.515800          -14.03562
     39       2.00000          -0.512472          -13.94507
     40       2.00000          -0.498204          -13.55682
     41       2.00000          -0.497373          -13.53421
     42       2.00000          -0.495350          -13.47915
     43       2.00000          -0.488272          -13.28656
     44       2.00000          -0.484378          -13.18060
     45       2.00000          -0.483770          -13.16406
     46       2.00000          -0.480055          -13.06296
     47       2.00000          -0.478916          -13.03197
     48       2.00000          -0.478127          -13.01049
     49       2.00000          -0.458626          -12.47985
     50       2.00000          -0.456846          -12.43141
     51       2.00000          -0.454773          -12.37499
     52       2.00000          -0.452734          -12.31951
     53       2.00000          -0.452496          -12.31305
     54       2.00000          -0.451646          -12.28992
     55       2.00000          -0.451210          -12.27805
     56       2.00000          -0.448672          -12.20898
     57       2.00000          -0.448399          -12.20154
     58       2.00000          -0.447532          -12.17797
     59       2.00000          -0.444466          -12.09454
     60       2.00000          -0.442112          -12.03047
     61       0.00000          -0.141788           -3.85824
     62       0.00000          -0.096453           -2.62461
     63       0.00000          -0.077992           -2.12226
     64       0.00000          -0.032697           -0.88974
     65       0.00000          -0.012765           -0.34737
     66       0.00000          -0.000650           -0.01767
     67       0.00000           0.007276            0.19798
     68       0.00000           0.025003            0.68036
     69       0.00000           0.038498            1.04759
     70       0.00000           0.051068            1.38962
     71       0.00000           0.076529            2.08246
     72       0.00000           0.102619            2.79239
     73       0.00000           0.145749            3.96604
     74       0.00000           0.162289            4.41612
     75       0.00000           0.167067            4.54614
     76       0.00000           0.171677            4.67156
     77       0.00000           0.179320            4.87955
     78       0.00000           0.184321            5.01564
     79       0.00000           0.192298            5.23270
     80       0.00000           0.200926            5.46747
     81       0.00000           0.206443            5.61759
     82       0.00000           0.216959            5.90375
     83       0.00000           0.227811            6.19905
     84       0.00000           0.239116            6.50668
     85       0.00000           0.241252            6.56479
     86       0.00000           0.242695            6.60406
     87       0.00000           0.274274            7.46336
     88       0.00000           0.275938            7.50865
     89       0.00000           0.289792            7.88565
     90       0.00000           0.297448            8.09398
     91       0.00000           0.309828            8.43085
     92       0.00000           0.317568            8.64147
     93       0.00000           0.340773            9.27291
     94       0.00000           0.345940            9.41350
     95       0.00000           0.364132            9.90852
     96       0.00000           0.368907           10.03846

  Highest occupied state (VBM) at    -12.03047363 eV
  | Occupation number:      2.00000000

  Lowest unoccupied state (CBM) at    -3.85823793 eV
  | Occupation number:      0.00000000

  Overall HOMO-LUMO gap:      8.17223570 eV.
  Calculating total energy contributions from superposition of free atom densities.

  Total energy components:
  | Sum of eigenvalues            :        -887.51068656 Ha      -24150.39453986 eV
  | XC energy correction          :        -144.31913624 Ha       -3927.12350707 eV
  | XC potential correction       :         187.91107491 Ha        5113.32051113 eV
  | Free-atom electrostatic energy:        -781.43990506 Ha      -21264.06172030 eV
  | Hartree energy correction     :           0.00000000 Ha           0.00000000 eV
  | Entropy correction            :           0.00000000 Ha           0.00000000 eV
  | ---------------------------
  | Total energy                  :       -1625.35865296 Ha      -44228.25925609 eV
  | Total energy, T -> 0          :       -1625.35865296 Ha      -44228.25925609 eV  <-- do not rely on this value for anything but (periodic) metals
  | Electronic free energy        :       -1625.35865296 Ha      -44228.25925609 eV

  Derived energy quantities:
  | Kinetic energy                :        1627.56847423 Ha       44288.39155234 eV
  | Electrostatic energy          :       -3108.60799094 Ha      -84589.52730137 eV
  | Energy correction for multipole
  | error in Hartree potential    :           0.00000000 Ha           0.00000000 eV
  | Sum of eigenvalues per atom                           :       -2012.53287832 eV
  | Total energy (T->0) per atom                          :       -3685.68827134 eV  <-- do not rely on this value for anything but (periodic) metals
  | Electronic free energy per atom                       :       -3685.68827134 eV
  Initialize hartree_potential_storage
  Max. number of atoms included in rho_multipole:           12

  End scf initialization - timings             :  max(cpu_time)    wall_clock(cpu1)
  | Time for scf. initialization                :        0.112 s           0.113 s
  | Boundary condition initialization           :        0.000 s           0.000 s
  | Integration                                 :        0.045 s           0.046 s
  | Solution of K.-S. eqns.                     :        0.011 s           0.011 s
  | Grid partitioning                           :        0.034 s           0.033 s
  | Preloading free-atom quantities on grid     :        0.015 s           0.015 s
  | Free-atom superposition energy              :        0.005 s           0.004 s
  | Total energy evaluation                     :        0.000 s           0.001 s

  Partial memory accounting:
  | Current value for overall tracked memory usage:
  |   Minimum:        0.273 MB (on task 23)
  |   Maximum:        0.292 MB (on task  0)
  |   Average:        0.287 MB
  | Peak value for overall tracked memory usage:
  |   Minimum:        1.312 MB (on task  2 after allocating wave)
  |   Maximum:        1.401 MB (on task 19 after allocating wave)
  |   Average:        1.358 MB
  | Largest tracked array allocation so far:
  |   Minimum:        0.234 MB (H_times_psi on task  2)
  |   Maximum:        0.447 MB (all_coords on task 10)
  |   Average:        0.269 MB
  Note:  These values currently only include a subset of arrays which are explicitly tracked.
  The "true" memory usage will be greater.
------------------------------------------------------------
  Evaluating new KS density.
  Integration grid: deviation in total charge (<rho> - N_e) =  -2.842171E-14

  Time for density update prior                :  max(cpu_time)    wall_clock(cpu1)
  | self-consistency iterative process          :        0.028 s           0.028 s

------------------------------------------------------------
          Begin self-consistency iteration #    1

  Date     :  20220517, Time     :  115226.033
------------------------------------------------------------
  Pulay mixing of updated and previous charge densities.
  Renormalizing the density to the exact electron count on the 3D integration grid.
  | Formal number of electrons (from input files) :     120.0000000000
  | Integrated number of electrons on 3D grid     :     120.0000000000
  | Charge integration error                      :      -0.0000000000
  | Normalization factor for density and gradient :       1.0000000000

  Evaluating partitioned Hartree potential by multipole expansion.
  | Original multipole sum: apparent total charge =  -0.471785E-13
  | Sum of charges compensated after spline to logarithmic grids =   0.119852E-03
  | Analytical far-field extrapolation by fixed multipoles:
  | Hartree multipole sum: apparent total charge =  -0.469817E-13
  Summing up the Hartree potential.
  Time summed over all CPUs for potential: real work        0.385 s, elapsed        0.450 s
  | RMS charge density error from multipole expansion :   0.106776E-01

  Integrating Hamiltonian matrix: batch-based integration.
  Time summed over all CPUs for integration: real work        0.664 s, elapsed        0.691 s

  Updating Kohn-Sham eigenvalues and eigenvectors using ELSI and the ELPA eigensolver.
  Starting ELPA eigensolver
  Finished transformation to standard eigenproblem
  | Time :     0.000 s
  Finished solving standard eigenproblem
  | Time :     0.003 s
  Finished back-transformation of eigenvectors
  | Time :     0.001 s

  Obtaining occupation numbers and chemical potential using ELSI.
  | Chemical potential (Fermi level):    -7.81929510 eV
  Writing Kohn-Sham eigenvalues.

  State    Occupation    Eigenvalue [Ha]    Eigenvalue [eV]
      1       2.00000         -55.678465        -1515.08812
      2       2.00000         -55.643847        -1514.14611
      3       2.00000         -55.622162        -1513.55603
      4       2.00000         -24.257728         -660.08637
      5       2.00000         -24.249578         -659.86460
      6       2.00000         -24.246851         -659.79039
      7       2.00000         -24.149868         -657.15133
      8       2.00000         -24.083691         -655.35057
      9       2.00000         -24.066561         -654.88444
     10       2.00000         -24.063222         -654.79359
     11       2.00000         -24.062276         -654.76784
     12       2.00000         -24.061125         -654.73652
     13       2.00000          -4.117383         -112.03968
     14       2.00000          -4.082182         -111.08182
     15       2.00000          -4.062552         -110.54765
     16       2.00000          -2.710755          -73.76340
     17       2.00000          -2.710171          -73.74749
     18       2.00000          -2.709235          -73.72204
     19       2.00000          -2.675799          -72.81219
     20       2.00000          -2.675526          -72.80477
     21       2.00000          -2.673149          -72.74008
     22       2.00000          -2.656619          -72.29027
     23       2.00000          -2.654979          -72.24565
     24       2.00000          -2.653926          -72.21700
     25       2.00000          -1.178708          -32.07428
     26       2.00000          -1.170697          -31.85629
     27       2.00000          -1.157258          -31.49059
     28       2.00000          -1.080377          -29.39855
     29       2.00000          -1.030315          -28.03631
     30       2.00000          -1.014866          -27.61590
     31       2.00000          -1.011616          -27.52747
     32       2.00000          -1.008509          -27.44292
     33       2.00000          -1.007288          -27.40969
     34       2.00000          -0.560267          -15.24565
     35       2.00000          -0.542699          -14.76758
     36       2.00000          -0.531481          -14.46234
     37       2.00000          -0.509358          -13.86033
     38       2.00000          -0.502136          -13.66381
     39       2.00000          -0.478325          -13.01588
     40       2.00000          -0.474231          -12.90448
     41       2.00000          -0.462716          -12.59113
     42       2.00000          -0.452964          -12.32578
     43       2.00000          -0.443535          -12.06919
     44       2.00000          -0.399178          -10.86218
     45       2.00000          -0.391089          -10.64208
     46       2.00000          -0.388716          -10.57749
     47       2.00000          -0.387343          -10.54014
     48       2.00000          -0.380909          -10.36505
     49       2.00000          -0.359436           -9.78076
     50       2.00000          -0.355313           -9.66857
     51       2.00000          -0.340349           -9.26137
     52       2.00000          -0.339087           -9.22702
     53       2.00000          -0.328385           -8.93581
     54       2.00000          -0.327406           -8.90918
     55       2.00000          -0.324844           -8.83946
     56       2.00000          -0.322815           -8.78423
     57       2.00000          -0.317036           -8.62698
     58       2.00000          -0.314685           -8.56301
     59       2.00000          -0.310553           -8.45059
     60       2.00000          -0.306732           -8.34661
     61       0.00000          -0.159760           -4.34728
     62       0.00000          -0.090215           -2.45486
     63       0.00000          -0.082935           -2.25679
     64       0.00000          -0.061250           -1.66670
     65       0.00000          -0.031375           -0.85376
     66       0.00000          -0.020768           -0.56514
     67       0.00000          -0.004187           -0.11394
     68       0.00000           0.017814            0.48475
     69       0.00000           0.033274            0.90545
     70       0.00000           0.043803            1.19193
     71       0.00000           0.052638            1.43235
     72       0.00000           0.087048            2.36869
     73       0.00000           0.133926            3.64430
     74       0.00000           0.157218            4.27811
     75       0.00000           0.158406            4.31045
     76       0.00000           0.167037            4.54532
     77       0.00000           0.183410            4.99084
     78       0.00000           0.186060            5.06295
     79       0.00000           0.189778            5.16412
     80       0.00000           0.201383            5.47991
     81       0.00000           0.204954            5.57708
     82       0.00000           0.212174            5.77355
     83       0.00000           0.218437            5.94397
     84       0.00000           0.224283            6.10305
     85       0.00000           0.229108            6.23435
     86       0.00000           0.232564            6.32838
     87       0.00000           0.251487            6.84331
     88       0.00000           0.264956            7.20982
     89       0.00000           0.272604            7.41794
     90       0.00000           0.292655            7.96355
     91       0.00000           0.302624            8.23483
     92       0.00000           0.321024            8.73551
     93       0.00000           0.334301            9.09680
     94       0.00000           0.349296            9.50482
     95       0.00000           0.364817            9.92716
     96       0.00000           0.369458           10.05346

  Highest occupied state (VBM) at     -8.34661148 eV
  | Occupation number:      2.00000000

  Lowest unoccupied state (CBM) at    -4.34727930 eV
  | Occupation number:      0.00000000

  Overall HOMO-LUMO gap:      3.99933218 eV.

  Total energy components:
  | Sum of eigenvalues            :        -882.15773175 Ha      -24004.73322817 eV
  | XC energy correction          :        -145.66448793 Ha       -3963.73238904 eV
  | XC potential correction       :         189.67961309 Ha        5161.44488366 eV
  | Free-atom electrostatic energy:        -781.43990506 Ha      -21264.06172030 eV
  | Hartree energy correction     :          -5.55433571 Ha        -151.14116459 eV
  | Entropy correction            :           0.00000000 Ha           0.00000000 eV
  | ---------------------------
  | Total energy                  :       -1625.13684735 Ha      -44222.22361844 eV
  | Total energy, T -> 0          :       -1625.13684735 Ha      -44222.22361844 eV  <-- do not rely on this value for anything but (periodic) metals
  | Electronic free energy        :       -1625.13684735 Ha      -44222.22361844 eV

  Derived energy quantities:
  | Kinetic energy                :        1634.00705960 Ha       44463.59437451 eV
  | Electrostatic energy          :       -3113.47941902 Ha      -84722.08560391 eV
  | Energy correction for multipole
  | error in Hartree potential    :           0.03996400 Ha           1.08747589 eV
  | Sum of eigenvalues per atom                           :       -2000.39443568 eV
  | Total energy (T->0) per atom                          :       -3685.18530154 eV  <-- do not rely on this value for anything but (periodic) metals
  | Electronic free energy per atom                       :       -3685.18530154 eV
  Evaluating new KS density.
  Integration grid: deviation in total charge (<rho> - N_e) =   1.421085E-14

  Self-consistency convergence accuracy:
  | Change of charge density      :  0.6040E+00
  | Change of sum of eigenvalues  :  0.1457E+03 eV
  | Change of total energy        :  0.6036E+01 eV


------------------------------------------------------------
  End self-consistency iteration #     1       :  max(cpu_time)    wall_clock(cpu1)
  | Time for this iteration                     :        0.082 s           0.083 s
  | Charge density update                       :        0.027 s           0.026 s
  | Density mixing                              :        0.001 s           0.001 s
  | Hartree multipole update                    :        0.001 s           0.001 s
  | Hartree multipole summation                 :        0.019 s           0.019 s
  | Integration                                 :        0.029 s           0.030 s
  | Solution of K.-S. eqns.                     :        0.004 s           0.004 s
  | Total energy evaluation                     :        0.000 s           0.001 s

  Partial memory accounting:
  | Current value for overall tracked memory usage:
  |   Minimum:        0.273 MB (on task 23)
  |   Maximum:        0.292 MB (on task  0)
  |   Average:        0.287 MB
  | Peak value for overall tracked memory usage:
  |   Minimum:        1.312 MB (on task  2 after allocating wave)
  |   Maximum:        1.401 MB (on task 19 after allocating wave)
  |   Average:        1.358 MB
  | Largest tracked array allocation so far:
  |   Minimum:        0.702 MB (gradient_basis_wave on task  2)
  |   Maximum:        0.764 MB (gradient_basis_wave on task 19)
  |   Average:        0.734 MB
  Note:  These values currently only include a subset of arrays which are explicitly tracked.
  The "true" memory usage will be greater.
------------------------------------------------------------

------------------------------------------------------------
          Begin self-consistency iteration #    2

  Date     :  20220517, Time     :  115226.121
------------------------------------------------------------
  Pulay mixing of updated and previous charge densities.
  Renormalizing the density to the exact electron count on the 3D integration grid.
  | Formal number of electrons (from input files) :     120.0000000000
  | Integrated number of electrons on 3D grid     :     120.0000000000
  | Charge integration error                      :       0.0000000000
  | Normalization factor for density and gradient :       1.0000000000

  Evaluating partitioned Hartree potential by multipole expansion.
  | Original multipole sum: apparent total charge =   0.233924E-13
  | Sum of charges compensated after spline to logarithmic grids =   0.834331E-04
  | Analytical far-field extrapolation by fixed multipoles:
  | Hartree multipole sum: apparent total charge =   0.241304E-13
  Summing up the Hartree potential.
  Time summed over all CPUs for potential: real work        0.381 s, elapsed        0.415 s
  | RMS charge density error from multipole expansion :   0.126186E-01

  Integrating Hamiltonian matrix: batch-based integration.
  Time summed over all CPUs for integration: real work        0.664 s, elapsed        0.691 s

  Updating Kohn-Sham eigenvalues and eigenvectors using ELSI and the ELPA eigensolver.
  Starting ELPA eigensolver
  Finished transformation to standard eigenproblem
  | Time :     0.000 s
  Finished solving standard eigenproblem
  | Time :     0.003 s
  Finished back-transformation of eigenvectors
  | Time :     0.000 s

  Obtaining occupation numbers and chemical potential using ELSI.
  | Chemical potential (Fermi level):    -7.95894990 eV
  Highest occupied state (VBM) at     -9.52600632 eV
  | Occupation number:      2.00000000

  Lowest unoccupied state (CBM) at    -4.57554384 eV
  | Occupation number:      0.00000000

  Overall HOMO-LUMO gap:      4.95046248 eV.

  Checking to see if s.c.f. parameters should be adjusted.

  Total energy components:
  | Sum of eigenvalues            :        -885.34953384 Ha      -24091.58658228 eV
  | XC energy correction          :        -145.16715092 Ha       -3950.19916049 eV
  | XC potential correction       :         189.02531494 Ha        5143.64052518 eV
  | Free-atom electrostatic energy:        -781.43990506 Ha      -21264.06172030 eV
  | Hartree energy correction     :          -2.14047305 Ha         -58.24523516 eV
  | Entropy correction            :           0.00000000 Ha           0.00000000 eV
  | ---------------------------
  | Total energy                  :       -1625.07174793 Ha      -44220.45217304 eV
  | Total energy, T -> 0          :       -1625.07174793 Ha      -44220.45217304 eV  <-- do not rely on this value for anything but (periodic) metals
  | Electronic free energy        :       -1625.07174793 Ha      -44220.45217304 eV

  Derived energy quantities:
  | Kinetic energy                :        1630.08689435 Ha       44356.92125056 eV
  | Electrostatic energy          :       -3109.99149136 Ha      -84627.17426311 eV
  | Energy correction for multipole
  | error in Hartree potential    :           0.04387777 Ha           1.19397496 eV
  | Sum of eigenvalues per atom                           :       -2007.63221519 eV
  | Total energy (T->0) per atom                          :       -3685.03768109 eV  <-- do not rely on this value for anything but (periodic) metals
  | Electronic free energy per atom                       :       -3685.03768109 eV
  Evaluating new KS density.
  Integration grid: deviation in total charge (<rho> - N_e) =   1.421085E-14

  Self-consistency convergence accuracy:
  | Change of charge density      :  0.4804E+00
  | Change of sum of eigenvalues  : -0.8685E+02 eV
  | Change of total energy        :  0.1771E+01 eV


------------------------------------------------------------
  End self-consistency iteration #     2       :  max(cpu_time)    wall_clock(cpu1)
  | Time for this iteration                     :        0.083 s           0.081 s
  | Charge density update                       :        0.027 s           0.027 s
  | Density mixing                              :        0.004 s           0.002 s
  | Hartree multipole update                    :        0.001 s           0.001 s
  | Hartree multipole summation                 :        0.018 s           0.017 s
  | Integration                                 :        0.029 s           0.030 s
  | Solution of K.-S. eqns.                     :        0.004 s           0.004 s
  | Total energy evaluation                     :        0.000 s           0.000 s

  Partial memory accounting:
  | Current value for overall tracked memory usage:
  |   Minimum:        0.274 MB (on task 23)
  |   Maximum:        0.293 MB (on task  0)
  |   Average:        0.288 MB
  | Peak value for overall tracked memory usage:
  |   Minimum:        1.312 MB (on task  2 after allocating wave)
  |   Maximum:        1.401 MB (on task 19 after allocating wave)
  |   Average:        1.358 MB
  | Largest tracked array allocation so far:
  |   Minimum:        0.702 MB (gradient_basis_wave on task  2)
  |   Maximum:        0.764 MB (gradient_basis_wave on task 19)
  |   Average:        0.734 MB
  Note:  These values currently only include a subset of arrays which are explicitly tracked.
  The "true" memory usage will be greater.
------------------------------------------------------------

------------------------------------------------------------
          Begin self-consistency iteration #    3

  Date     :  20220517, Time     :  115226.208
------------------------------------------------------------
  Pulay mixing of updated and previous charge densities.
  Renormalizing the density to the exact electron count on the 3D integration grid.
  | Formal number of electrons (from input files) :     120.0000000000
  | Integrated number of electrons on 3D grid     :     120.0000000000
  | Charge integration error                      :       0.0000000000
  | Normalization factor for density and gradient :       1.0000000000

  Evaluating partitioned Hartree potential by multipole expansion.
  | Original multipole sum: apparent total charge =   0.307472E-13
  | Sum of charges compensated after spline to logarithmic grids =   0.108942E-03
  | Analytical far-field extrapolation by fixed multipoles:
  | Hartree multipole sum: apparent total charge =   0.288777E-13
  Summing up the Hartree potential.
  Time summed over all CPUs for potential: real work        0.381 s, elapsed        0.415 s
  | RMS charge density error from multipole expansion :   0.175181E-01

  Integrating Hamiltonian matrix: batch-based integration.
  Time summed over all CPUs for integration: real work        0.664 s, elapsed        0.693 s

  Updating Kohn-Sham eigenvalues and eigenvectors using ELSI and the ELPA eigensolver.
  Starting ELPA eigensolver
  Finished transformation to standard eigenproblem
  | Time :     0.000 s
  Finished solving standard eigenproblem
  | Time :     0.003 s
  Finished back-transformation of eigenvectors
  | Time :     0.000 s

  Obtaining occupation numbers and chemical potential using ELSI.
  | Chemical potential (Fermi level):    -8.13456116 eV
  Highest occupied state (VBM) at     -9.26635221 eV
  | Occupation number:      2.00000000

  Lowest unoccupied state (CBM) at    -4.83986583 eV
  | Occupation number:      0.00000000

  Overall HOMO-LUMO gap:      4.42648638 eV.

  Total energy components:
  | Sum of eigenvalues            :        -886.39534104 Ha      -24120.04444412 eV
  | XC energy correction          :        -145.13153753 Ha       -3949.23007075 eV
  | XC potential correction       :         188.97720414 Ha        5142.33136362 eV
  | Free-atom electrostatic energy:        -781.43990506 Ha      -21264.06172030 eV
  | Hartree energy correction     :          -1.08121688 Ha         -29.42140834 eV
  | Entropy correction            :           0.00000000 Ha           0.00000000 eV
  | ---------------------------
  | Total energy                  :       -1625.07079638 Ha      -44220.42627988 eV
  | Total energy, T -> 0          :       -1625.07079638 Ha      -44220.42627988 eV  <-- do not rely on this value for anything but (periodic) metals
  | Electronic free energy        :       -1625.07079638 Ha      -44220.42627988 eV

  Derived energy quantities:
  | Kinetic energy                :        1628.32123013 Ha       44308.87508272 eV
  | Electrostatic energy          :       -3108.26048898 Ha      -84580.07129185 eV
  | Energy correction for multipole
  | error in Hartree potential    :           0.05907932 Ha           1.60762997 eV
  | Sum of eigenvalues per atom                           :       -2010.00370368 eV
  | Total energy (T->0) per atom                          :       -3685.03552332 eV  <-- do not rely on this value for anything but (periodic) metals
  | Electronic free energy per atom                       :       -3685.03552332 eV
  Evaluating new KS density.
  Integration grid: deviation in total charge (<rho> - N_e) =   1.421085E-14

  Self-consistency convergence accuracy:
  | Change of charge density      :  0.1269E+00
  | Change of sum of eigenvalues  : -0.2846E+02 eV
  | Change of total energy        :  0.2589E-01 eV


------------------------------------------------------------
  End self-consistency iteration #     3       :  max(cpu_time)    wall_clock(cpu1)
  | Time for this iteration                     :        0.083 s           0.080 s
  | Charge density update                       :        0.027 s           0.027 s
  | Density mixing                              :        0.004 s           0.001 s
  | Hartree multipole update                    :        0.001 s           0.001 s
  | Hartree multipole summation                 :        0.018 s           0.017 s
  | Integration                                 :        0.029 s           0.030 s
  | Solution of K.-S. eqns.                     :        0.004 s           0.004 s
  | Total energy evaluation                     :        0.000 s           0.000 s

  Partial memory accounting:
  | Current value for overall tracked memory usage:
  |   Minimum:        0.274 MB (on task 23)
  |   Maximum:        0.293 MB (on task  0)
  |   Average:        0.288 MB
  | Peak value for overall tracked memory usage:
  |   Minimum:        1.312 MB (on task  2 after allocating wave)
  |   Maximum:        1.401 MB (on task 19 after allocating wave)
  |   Average:        1.358 MB
  | Largest tracked array allocation so far:
  |   Minimum:        0.702 MB (gradient_basis_wave on task  2)
  |   Maximum:        0.764 MB (gradient_basis_wave on task 19)
  |   Average:        0.734 MB
  Note:  These values currently only include a subset of arrays which are explicitly tracked.
  The "true" memory usage will be greater.
------------------------------------------------------------

------------------------------------------------------------
          Begin self-consistency iteration #    4

  Date     :  20220517, Time     :  115226.294
------------------------------------------------------------
  Pulay mixing of updated and previous charge densities.
  Renormalizing the density to the exact electron count on the 3D integration grid.
  | Formal number of electrons (from input files) :     120.0000000000
  | Integrated number of electrons on 3D grid     :     120.0000000000
  | Charge integration error                      :       0.0000000000
  | Normalization factor for density and gradient :       1.0000000000

  Evaluating partitioned Hartree potential by multipole expansion.
  | Original multipole sum: apparent total charge =   0.397007E-13
  | Sum of charges compensated after spline to logarithmic grids =   0.118439E-03
  | Analytical far-field extrapolation by fixed multipoles:
  | Hartree multipole sum: apparent total charge =   0.345352E-13
  Summing up the Hartree potential.
  Time summed over all CPUs for potential: real work        0.381 s, elapsed        0.415 s
  | RMS charge density error from multipole expansion :   0.194757E-01

  Integrating Hamiltonian matrix: batch-based integration.
  Time summed over all CPUs for integration: real work        0.664 s, elapsed        0.690 s

  Updating Kohn-Sham eigenvalues and eigenvectors using ELSI and the ELPA eigensolver.
  Starting ELPA eigensolver
  Finished transformation to standard eigenproblem
  | Time :     0.000 s
  Finished solving standard eigenproblem
  | Time :     0.003 s
  Finished back-transformation of eigenvectors
  | Time :     0.000 s

  Obtaining occupation numbers and chemical potential using ELSI.
  | Chemical potential (Fermi level):    -8.10203717 eV
  Highest occupied state (VBM) at     -9.31246671 eV
  | Occupation number:      2.00000000

  Lowest unoccupied state (CBM) at    -4.80424260 eV
  | Occupation number:      0.00000000

  Overall HOMO-LUMO gap:      4.50822410 eV.

  Total energy components:
  | Sum of eigenvalues            :        -886.51329409 Ha      -24123.25410973 eV
  | XC energy correction          :        -145.11554702 Ha       -3948.79494678 eV
  | XC potential correction       :         188.95555285 Ha        5141.74220204 eV
  | Free-atom electrostatic energy:        -781.43990506 Ha      -21264.06172030 eV
  | Hartree energy correction     :          -0.95537815 Ha         -25.99716214 eV
  | Entropy correction            :           0.00000000 Ha           0.00000000 eV
  | ---------------------------
  | Total energy                  :       -1625.06857146 Ha      -44220.36573690 eV
  | Total energy, T -> 0          :       -1625.06857146 Ha      -44220.36573690 eV  <-- do not rely on this value for anything but (periodic) metals
  | Electronic free energy        :       -1625.06857146 Ha      -44220.36573690 eV

  Derived energy quantities:
  | Kinetic energy                :        1627.68385315 Ha       44291.53117246 eV
  | Electrostatic energy          :       -3107.63687759 Ha      -84563.10196258 eV
  | Energy correction for multipole
  | error in Hartree potential    :           0.06473280 Ha           1.76146911 eV
  | Sum of eigenvalues per atom                           :       -2010.27117581 eV
  | Total energy (T->0) per atom                          :       -3685.03047808 eV  <-- do not rely on this value for anything but (periodic) metals
  | Electronic free energy per atom                       :       -3685.03047808 eV
  Evaluating new KS density.
  Integration grid: deviation in total charge (<rho> - N_e) =  -1.421085E-14

  Self-consistency convergence accuracy:
  | Change of charge density      :  0.8276E-01
  | Change of sum of eigenvalues  : -0.3210E+01 eV
  | Change of total energy        :  0.6054E-01 eV


------------------------------------------------------------
  End self-consistency iteration #     4       :  max(cpu_time)    wall_clock(cpu1)
  | Time for this iteration                     :        0.083 s           0.081 s
  | Charge density update                       :        0.027 s           0.027 s
  | Density mixing                              :        0.004 s           0.001 s
  | Hartree multipole update                    :        0.001 s           0.002 s
  | Hartree multipole summation                 :        0.018 s           0.017 s
  | Integration                                 :        0.029 s           0.029 s
  | Solution of K.-S. eqns.                     :        0.004 s           0.005 s
  | Total energy evaluation                     :        0.000 s           0.000 s

  Partial memory accounting:
  | Current value for overall tracked memory usage:
  |   Minimum:        0.274 MB (on task 23)
  |   Maximum:        0.293 MB (on task  0)
  |   Average:        0.288 MB
  | Peak value for overall tracked memory usage:
  |   Minimum:        1.312 MB (on task  2 after allocating wave)
  |   Maximum:        1.401 MB (on task 19 after allocating wave)
  |   Average:        1.358 MB
  | Largest tracked array allocation so far:
  |   Minimum:        0.702 MB (gradient_basis_wave on task  2)
  |   Maximum:        0.764 MB (gradient_basis_wave on task 19)
  |   Average:        0.734 MB
  Note:  These values currently only include a subset of arrays which are explicitly tracked.
  The "true" memory usage will be greater.
------------------------------------------------------------

------------------------------------------------------------
          Begin self-consistency iteration #    5

  Date     :  20220517, Time     :  115226.381
------------------------------------------------------------
  Pulay mixing of updated and previous charge densities.
  Renormalizing the density to the exact electron count on the 3D integration grid.
  | Formal number of electrons (from input files) :     120.0000000000
  | Integrated number of electrons on 3D grid     :     120.0000000000
  | Charge integration error                      :      -0.0000000000
  | Normalization factor for density and gradient :       1.0000000000

  Evaluating partitioned Hartree potential by multipole expansion.
  | Original multipole sum: apparent total charge =  -0.385693E-13
  | Sum of charges compensated after spline to logarithmic grids =   0.118650E-03
  | Analytical far-field extrapolation by fixed multipoles:
  | Hartree multipole sum: apparent total charge =  -0.363555E-13
  Summing up the Hartree potential.
  Time summed over all CPUs for potential: real work        0.381 s, elapsed        0.414 s
  | RMS charge density error from multipole expansion :   0.192834E-01

  Integrating Hamiltonian matrix: batch-based integration.
  Time summed over all CPUs for integration: real work        0.664 s, elapsed        0.690 s

  Updating Kohn-Sham eigenvalues and eigenvectors using ELSI and the ELPA eigensolver.
  Starting ELPA eigensolver
  Finished transformation to standard eigenproblem
  | Time :     0.000 s
  Finished solving standard eigenproblem
  | Time :     0.003 s
  Finished back-transformation of eigenvectors
  | Time :     0.000 s

  Obtaining occupation numbers and chemical potential using ELSI.
  | Chemical potential (Fermi level):    -8.06093212 eV
  Highest occupied state (VBM) at     -9.37321052 eV
  | Occupation number:      2.00000000

  Lowest unoccupied state (CBM) at    -4.73790909 eV
  | Occupation number:      0.00000000

  Overall HOMO-LUMO gap:      4.63530142 eV.

  Total energy components:
  | Sum of eigenvalues            :        -886.33189342 Ha      -24118.31794660 eV
  | XC energy correction          :        -145.11103352 Ha       -3948.67212842 eV
  | XC potential correction       :         188.94979541 Ha        5141.58553422 eV
  | Free-atom electrostatic energy:        -781.43990506 Ha      -21264.06172030 eV
  | Hartree energy correction     :          -1.13538948 Ha         -30.89551974 eV
  | Entropy correction            :           0.00000000 Ha           0.00000000 eV
[...]
   Total forces(   7)            :  0.219588E+01  0.311028E+00  0.202063E+00
  atom #    8
   Hellmann-Feynman              :  0.100761E+01  0.204450E-01  0.422056E+00
   Ionic forces                  :  0.000000E+00  0.000000E+00  0.000000E+00
   Multipole                     :  0.293536E+00  0.145964E+00  0.369868E+00
   Hartree pot. SCF incomplete   :  0.619753E-06  0.868135E-07  0.651385E-06
   Pulay + GGA                   : -0.263802E+01 -0.238407E+00 -0.164967E+01
   ----------------------------------------------------------------
   Total forces(   8)            : -0.133687E+01 -0.719981E-01 -0.857742E+00
  atom #    9
   Hellmann-Feynman              :  0.121353E+00  0.292182E+01  0.107474E+01
   Ionic forces                  :  0.000000E+00  0.000000E+00  0.000000E+00
   Multipole                     :  0.759195E-01  0.673902E+00  0.201760E+00
   Hartree pot. SCF incomplete   : -0.389449E-06  0.488108E-06  0.511595E-06
   Pulay + GGA                   : -0.324640E+00 -0.636842E+01 -0.261783E+01
   ----------------------------------------------------------------
   Total forces(   9)            : -0.127368E+00 -0.277270E+01 -0.134133E+01
  atom #   10
   Hellmann-Feynman              :  0.152140E+01 -0.243175E+01  0.947087E+00
   Ionic forces                  :  0.000000E+00  0.000000E+00  0.000000E+00
   Multipole                     :  0.404631E+00 -0.573949E+00  0.205529E+00
   Hartree pot. SCF incomplete   : -0.117244E-06 -0.794652E-06  0.723768E-06
   Pulay + GGA                   : -0.356855E+01  0.529447E+01 -0.233853E+01
   ----------------------------------------------------------------
   Total forces(  10)            : -0.164252E+01  0.228877E+01 -0.118592E+01
  atom #   11
   Hellmann-Feynman              : -0.228083E+01 -0.489334E+00  0.259294E+01
   Ionic forces                  :  0.000000E+00  0.000000E+00  0.000000E+00
   Multipole                     : -0.362082E+00 -0.100563E+00  0.545088E+00
   Hartree pot. SCF incomplete   : -0.154859E-05 -0.351693E-06  0.335578E-06
   Pulay + GGA                   :  0.461794E+01  0.102494E+01 -0.560733E+01
   ----------------------------------------------------------------
   Total forces(  11)            :  0.197503E+01  0.435046E+00 -0.246930E+01
  atom #   12
   Hellmann-Feynman              :  0.186727E+01  0.471703E+00 -0.265842E+01
   Ionic forces                  :  0.000000E+00  0.000000E+00  0.000000E+00
   Multipole                     :  0.458253E+00  0.189901E+00 -0.652580E+00
   Hartree pot. SCF incomplete   : -0.435541E-06 -0.133227E-06  0.154953E-06
   Pulay + GGA                   : -0.443654E+01 -0.134675E+01  0.601677E+01
   ----------------------------------------------------------------
   Total forces(  12)            : -0.211102E+01 -0.685142E+00  0.270577E+01


  Self-consistency convergence accuracy:
  | Change of charge density      :  0.1090E-06
  | Change of sum of eigenvalues  : -0.6461E-05 eV
  | Change of total energy        : -0.2970E-09 eV
  | Change of forces              :  0.4077E-06 eV/A

  Writing Kohn-Sham eigenvalues.

  State    Occupation    Eigenvalue [Ha]    Eigenvalue [eV]
      1       2.00000         -55.669909        -1514.85529
      2       2.00000         -55.628200        -1513.72035
      3       2.00000         -55.598107        -1512.90145
      4       2.00000         -24.326166         -661.94866
      5       2.00000         -24.324597         -661.90597
      6       2.00000         -24.321984         -661.83485
      7       2.00000         -24.251283         -659.91099
      8       2.00000         -24.235100         -659.47062
      9       2.00000         -24.206284         -658.68651
     10       2.00000         -24.204213         -658.63015
     11       2.00000         -24.196734         -658.42664
     12       2.00000         -24.195831         -658.40205
     13       2.00000          -4.122563         -112.18065
     14       2.00000          -4.079990         -111.02219
     15       2.00000          -4.052046         -110.26178
     16       2.00000          -2.715612          -73.89555
     17       2.00000          -2.714656          -73.86953
     18       2.00000          -2.712035          -73.79823
     19       2.00000          -2.674145          -72.76719
     20       2.00000          -2.672073          -72.71081
     21       2.00000          -2.668264          -72.60715
     22       2.00000          -2.646770          -72.02229
     23       2.00000          -2.643007          -71.91987
     24       2.00000          -2.640994          -71.86511
     25       2.00000          -1.201694          -32.69975
     26       2.00000          -1.195365          -32.52753
     27       2.00000          -1.183214          -32.19689
     28       2.00000          -1.105650          -30.08628
     29       2.00000          -1.081825          -29.43795
     30       2.00000          -1.054955          -28.70678
     31       2.00000          -1.050433          -28.58373
     32       2.00000          -1.046082          -28.46535
     33       2.00000          -1.042462          -28.36683
     34       2.00000          -0.581906          -15.83447
     35       2.00000          -0.564426          -15.35880
     36       2.00000          -0.553236          -15.05431
     37       2.00000          -0.534777          -14.55202
     38       2.00000          -0.524710          -14.27809
     39       2.00000          -0.500086          -13.60803
     40       2.00000          -0.496037          -13.49787
     41       2.00000          -0.490272          -13.34099
     42       2.00000          -0.476524          -12.96687
     43       2.00000          -0.467258          -12.71474
     44       2.00000          -0.441665          -12.01831
     45       2.00000          -0.427375          -11.62947
     46       2.00000          -0.416391          -11.33057
     47       2.00000          -0.410725          -11.17640
     48       2.00000          -0.410043          -11.15784
     49       2.00000          -0.399395          -10.86810
     50       2.00000          -0.389240          -10.59176
     51       2.00000          -0.387107          -10.53372
     52       2.00000          -0.386128          -10.50709
     53       2.00000          -0.363865           -9.90127
     54       2.00000          -0.362771           -9.87150
     55       2.00000          -0.356706           -9.70646
     56       2.00000          -0.356198           -9.69264
     57       2.00000          -0.354296           -9.64088
     58       2.00000          -0.347774           -9.46341
     59       2.00000          -0.346026           -9.41584
     60       2.00000          -0.343565           -9.34887
     61       0.00000          -0.174110           -4.73776
     62       0.00000          -0.103256           -2.80974
     63       0.00000          -0.091519           -2.49035
     64       0.00000          -0.068412           -1.86158
     65       0.00000          -0.037578           -1.02255
     66       0.00000          -0.028772           -0.78293
     67       0.00000          -0.009747           -0.26522
     68       0.00000           0.014167            0.38551
     69       0.00000           0.029797            0.81081
     70       0.00000           0.040069            1.09033
     71       0.00000           0.049599            1.34965
     72       0.00000           0.080322            2.18567
     73       0.00000           0.126686            3.44731
     74       0.00000           0.148206            4.03288
     75       0.00000           0.150645            4.09926
     76       0.00000           0.160203            4.35935
     77       0.00000           0.175736            4.78203
     78       0.00000           0.181040            4.92635
     79       0.00000           0.185642            5.05157
     80       0.00000           0.196647            5.35104
     81       0.00000           0.199221            5.42109
     82       0.00000           0.206727            5.62534
     83       0.00000           0.211580            5.75739
     84       0.00000           0.218990            5.95903
     85       0.00000           0.224073            6.09735
     86       0.00000           0.226311            6.15824
     87       0.00000           0.247012            6.72153
     88       0.00000           0.257406            7.00438
     89       0.00000           0.268905            7.31729
     90       0.00000           0.286063            7.78416
     91       0.00000           0.300008            8.16363
     92       0.00000           0.316333            8.60787
     93       0.00000           0.327401            8.90905
     94       0.00000           0.344360            9.37053
     95       0.00000           0.357926            9.73967
     96       0.00000           0.360439            9.80804

  Highest occupied state (VBM) at     -9.34887006 eV
  | Occupation number:      2.00000000

  Lowest unoccupied state (CBM) at    -4.73776141 eV
  | Occupation number:      0.00000000

  Overall HOMO-LUMO gap:      4.61110865 eV.
  | Chemical Potential                          :    -8.05910975 eV

  Self-consistency cycle converged.


------------------------------------------------------------
  End self-consistency iteration #    14       :  max(cpu_time)    wall_clock(cpu1)
  | Time for this iteration                     :        0.268 s           0.265 s
  | Charge density & force component update     :        0.145 s           0.145 s
  | Density mixing                              :        0.005 s           0.002 s
  | Hartree multipole update                    :        0.001 s           0.001 s
  | Hartree multipole summation                 :        0.050 s           0.050 s
  | Hartree pot. SCF incomplete forces          :        0.033 s           0.033 s
  | Integration                                 :        0.029 s           0.029 s
  | Solution of K.-S. eqns.                     :        0.004 s           0.004 s
  | Total energy evaluation                     :        0.000 s           0.000 s

  Partial memory accounting:
  | Current value for overall tracked memory usage:
  |   Minimum:        0.274 MB (on task 23)
  |   Maximum:        0.293 MB (on task  0)
  |   Average:        0.289 MB
  | Peak value for overall tracked memory usage:
  |   Minimum:        2.898 MB (on task  2 after allocating hessian_basis_wave)
  |   Maximum:        3.096 MB (on task 19 after allocating hessian_basis_wave)
  |   Average:        3.002 MB
  | Largest tracked array allocation so far:
  |   Minimum:        1.403 MB (hessian_basis_wave on task  2)
  |   Maximum:        1.527 MB (hessian_basis_wave on task 19)
  |   Average:        1.468 MB
  Note:  These values currently only include a subset of arrays which are explicitly tracked.
  The "true" memory usage will be greater.
------------------------------------------------------------
  Removing unitary transformations (pure translations, rotations) from forces on atoms.
  Atomic forces before filtering:
  | Net force on center of mass :  -0.199929E-02  0.596994E-02  0.491962E-03 eV/A
  | Net torque on center of mass:   0.625155E-03 -0.102779E-01 -0.456832E-02 eV
  Atomic forces after filtering:
  | Net force on center of mass :   0.713624E-15  0.446015E-15 -0.356812E-15 eV/A
  | Net torque on center of mass:   0.358752E-14  0.151054E-14 -0.113290E-14 eV

  Energy and forces in a compact form:
  | Total energy uncorrected      :         -0.442203615346963E+05 eV
  | Total energy corrected        :         -0.442203615346963E+05 eV  <-- do not rely on this value for anything but (periodic) metals
  | Electronic free energy        :         -0.442203615346963E+05 eV
  Total atomic forces (unitary forces cleaned) [eV/Ang]:
  |    1          0.176014968989232E+01          0.585839720624213E+00         -0.204600802940543E+01
  |    2          0.432827855966876E+00          0.172692800647628E+00          0.211366468008905E+01
  |    3         -0.309832595619330E+01         -0.717546642487804E+00         -0.221930016209786E+00
  |    4          0.103282562856657E+01          0.280243018357979E+00          0.301436052453807E+01
  |    5          0.104787081287658E+00          0.221271494543508E+01         -0.125727861197432E+00
  |    6          0.812944462729028E+00         -0.203618135002943E+01          0.212760901234818E+00
  |    7          0.219624272359245E+01          0.310390445740310E+00          0.202133706915811E+00
  |    8         -0.133667745350725E+01         -0.722563346728948E-01         -0.858063554611718E+00
  |    9         -0.127025318691195E+00         -0.277316857020362E+01         -0.134145024449201E+01
  |   10         -0.164177580976983E+01          0.228841437045421E+01         -0.118626116748806E+01
  |   11          0.197531156793670E+01          0.434145445160275E+00         -0.246891342204700E+01
  |   12         -0.211128447181003E+01         -0.685287849025942E+00          0.270543448267369E+01

  ------------------------------------ 
  Start decomposition of the XC Energy 
  ------------------------------------ 
  X and C from original XC functional choice 
  Hartree-Fock Energy :          0.000000000 Ha              0.000000000 eV
  X Energy            :       -140.174513580 Ha          -3814.342586131 eV
  C Energy            :         -4.940669971 Ha           -134.442470257 eV
  Total XC Energy     :       -145.115183551 Ha          -3948.785056388 eV
  ------------------------------------ 
  LDA X and C from self-consistent density 
  X Energy LDA        :       -132.747495784 Ha          -3612.243149197 eV
  C Energy LDA        :         -8.822962904 Ha           -240.085036023 eV
  ------------------------------------ 
  End decomposition of the XC Energy 
  ------------------------------------ 

------------------------------------------------------------

------------------------------------------------------------------------------
  Final output of selected total energy values:

  The following output summarizes some interesting total energy values
  at the end of a run (AFTER all relaxation, molecular dynamics, etc.).

  | Total energy of the DFT / Hartree-Fock s.c.f. calculation      :         -44220.361534696 eV
  | Final zero-broadening corrected energy (caution - metals only) :         -44220.361534696 eV
  | For reference only, the value of 1 Hartree used in FHI-aims is :             27.211384500 eV

  Before relying on these values, please be sure to understand exactly which
  total energy value is referred to by a given number. Different objects may
  all carry the same name 'total energy'. Definitions:

  Total energy of the DFT / Hartree-Fock s.c.f. calculation:
  | Note that this energy does not include ANY quantities calculated after the
  | s.c.f. cycle, in particular not ANY RPA, MP2, etc. many-body perturbation terms.

  Final zero-broadening corrected energy:
  | For metallic systems only, a broadening of the occupation numbers at the Fermi
  | level can be extrapolated back to zero broadening by an electron-gas inspired
  | formula. For all systems that are not real metals, this value can be
  | meaningless and should be avoided.

------------------------------------------------------------------------------
  Methods described in the following list of references were used in this FHI-aims run.
  If you publish the results, please make sure to cite these reference if they apply.
  FHI-aims is an academic code, and for our developers (often, Ph.D. students
  and postdocs), scientific credit in the community is essential.
  Thank you for helping us!

  For any use of FHI-aims, please cite:

    Volker Blum, Ralf Gehrke, Felix Hanke, Paula Havu, Ville Havu,
    Xinguo Ren, Karsten Reuter, and Matthias Scheffler
    'Ab initio molecular simulations with numeric atom-centered orbitals'
    Computer Physics Communications 180, 2175-2196 (2009)
    http://dx.doi.org/10.1016/j.cpc.2009.06.022


  The ELSI infrastructure was used in your run to solve the Kohn-Sham electronic structure.
  Please check out http://elsi-interchange.org to learn more.
  If scalability is important for your project, please acknowledge ELSI by citing:

    V. W-z. Yu, F. Corsetti, A. Garcia, W. P. Huhn, M. Jacquelin, W. Jia,
    B. Lange, L. Lin, J. Lu, W. Mi, A. Seifitokaldani, A. Vazquez-Mayagoitia,
    C. Yang, H. Yang, and V. Blum
    'ELSI: A unified software interface for Kohn-Sham electronic structure solvers'
    Computer Physics Communications 222, 267-285 (2018).
    http://dx.doi.org/10.1016/j.cpc.2017.09.007


  For the real-space grid partitioning and parallelization used in this calculation, please cite:

    Ville Havu, Volker Blum, Paula Havu, and Matthias Scheffler,
    'Efficient O(N) integration for all-electron electronic structure calculation'
    'using numerically tabulated basis functions'
    Journal of Computational Physics 228, 8367-8379 (2009).
    http://dx.doi.org/10.1016/j.jcp.2009.08.008

  Of course, there are many other important community references, e.g., those cited in the
  above references. Our list is limited to references that describe implementations in the
  FHI-aims code. The reason is purely practical (length of this list) - please credit others as well.

------------------------------------------------------------
          Leaving FHI-aims.
          Date     :  20220517, Time     :  115227.640

          Computational steps:
          | Number of self-consistency cycles          :           14
          | Number of SCF (re)initializations          :            1

          Detailed time accounting                     :  max(cpu_time)    wall_clock(cpu1)
          | Total time                                  :        1.913 s           1.976 s
          | Preparation time                            :        0.184 s           0.184 s
          | Boundary condition initalization            :        0.000 s           0.000 s
          | Grid partitioning                           :        0.034 s           0.033 s
          | Preloading free-atom quantities on grid     :        0.015 s           0.015 s
          | Free-atom superposition energy              :        0.005 s           0.004 s
          | Total time for integrations                 :        0.453 s           0.455 s
          | Total time for solution of K.-S. equations  :        0.067 s           0.068 s
          | Total time for density & force components   :        0.640 s           0.640 s
          | Total time for mixing                       :        0.058 s           0.031 s
          | Total time for Hartree multipole update     :        0.018 s           0.016 s
          | Total time for Hartree multipole sum        :        0.313 s           0.314 s
          | Total time for total energy evaluation      :        0.002 s           0.002 s
          | Total time NSC force correction             :        0.066 s           0.066 s
          | Total time for scaled ZORA corrections      :        0.000 s           0.000 s

          Partial memory accounting:
          | Residual value for overall tracked memory usage across tasks:     0.000000 MB (should be 0.000000 MB)
          | Peak values for overall tracked memory usage:
          |   Minimum:        2.898 MB (on task  2 after allocating hessian_basis_wave)
          |   Maximum:        3.096 MB (on task 19 after allocating hessian_basis_wave)
          |   Average:        3.002 MB
          | Largest tracked array allocation:
          |   Minimum:        1.403 MB (hessian_basis_wave on task  2)
          |   Maximum:        1.527 MB (hessian_basis_wave on task 19)
          |   Average:        1.468 MB
          Note:  These values currently only include a subset of arrays which are explicitly tracked.
          The "true" memory usage will be greater.

          Have a nice day.
------------------------------------------------------------
