------------------------------------------------------------
          Invoking FHI-aims ...

          When using FHI-aims, please cite the following reference:

            Volker Blum, Ralf Gehrke, Felix Hanke, Paula Havu,
            Ville Havu, Xinguo Ren, Karsten Reuter, and Matthias Scheffler,
            'Ab Initio Molecular Simulations with Numeric Atom-Centered Orbitals',
            Computer Physics Communications 180, 2175-2196 (2009)

          In addition, many other developments in FHI-aims are likely important for
          your particular application. A partial list of references is given at the end of
          this file. Thank you for giving credit to the authors of these developments.

          For any questions about FHI-aims, please visit our slack channel at

            https://fhi-aims.slack.com

          and our main development and support site at

            https://aims-git.rz-berlin.mpg.de .

          The latter site, in particular, has a wiki to collect information, as well
          as an issue tracker to log discussions, suggest improvements, and report issues
          or bugs. https://aims-git.rz-berlin.mpg.de is also the main development site
          of the project and all new and updated code versions can be obtained there.
          Please send an email to aims-coordinators@fhi-berlin.mpg.de and we will add
          you to these sites. They are for you and everyone is welcome there.

------------------------------------------------------------



  Date     :  20220517, Time     :  120101.957
  Time zero on CPU 1             :   0.498060000000000E-01  s.
  Internal wall clock time zero  :           422020861.957  s.

  FHI-aims created a unique identifier for this run for later identification
  aims_uuid : 6968A55B-CD39-457D-AF92-04A8C5A078FB

  Build configuration of the current instance of FHI-aims
  -------------------------------------------------------
  FHI-aims version      : 210914
  Commit number         : GITDIR-NOTFOUND
  CMake host system     : Linux-3.10.0-693.17.1.el7.x86_64
  CMake version         : 3.21.1
  Fortran compiler      : /shared/ucl/apps/intel/2018.Update3/impi/2018.3.222/intel64/bin/mpiifort (Intel) version 18.0.3.20180410
  Fortran compiler flags: -O3 -ip -fp-model precise
  C compiler            : /shared/ucl/apps/intel/2018.Update3/compilers_and_libraries_2018.3.222/linux/bin/intel64/icc (Intel) version 18.0.3.20180410
  C compiler flags      : -O3 -ip -fp-model precise -std=gnu99
  ELPA2 kernel          : AVX2
  Using MPI
  Using ScaLAPACK
  Using LibXC
  Using i-PI
  Using RLSY
  Linking against: /shared/ucl/apps/intel/2019.Update5/compilers_and_libraries_2019.5.281/linux/mkl/lib/intel64/libmkl_intel_lp64.so
                   /shared/ucl/apps/intel/2019.Update5/compilers_and_libraries_2019.5.281/linux/mkl/lib/intel64/libmkl_sequential.so
                   /shared/ucl/apps/intel/2019.Update5/compilers_and_libraries_2019.5.281/linux/mkl/lib/intel64/libmkl_core.so
                   /shared/ucl/apps/intel/2019.Update5/compilers_and_libraries_2019.5.281/linux/mkl/lib/intel64/libmkl_blacs_intelmpi_lp64.so
                   /shared/ucl/apps/intel/2019.Update5/compilers_and_libraries_2019.5.281/linux/mkl/lib/intel64/libmkl_scalapack_lp64.so

  Using       24 parallel tasks.
  Task        0 on host node-k98a-025 reporting.
  Task        1 on host node-k98a-025 reporting.
  Task        2 on host node-k98a-025 reporting.
  Task        3 on host node-k98a-025 reporting.
  Task        4 on host node-k98a-025 reporting.
  Task        5 on host node-k98a-025 reporting.
  Task        6 on host node-k98a-025 reporting.
  Task        7 on host node-k98a-025 reporting.
  Task        8 on host node-k98a-025 reporting.
  Task        9 on host node-k98a-025 reporting.
  Task       10 on host node-k98a-025 reporting.
  Task       11 on host node-k98a-025 reporting.
  Task       12 on host node-k98a-025 reporting.
  Task       13 on host node-k98a-025 reporting.
  Task       14 on host node-k98a-025 reporting.
  Task       15 on host node-k98a-025 reporting.
  Task       16 on host node-k98a-025 reporting.
  Task       17 on host node-k98a-025 reporting.
  Task       18 on host node-k98a-025 reporting.
  Task       19 on host node-k98a-025 reporting.
  Task       20 on host node-k98a-025 reporting.
  Task       21 on host node-k98a-025 reporting.
  Task       22 on host node-k98a-025 reporting.
  Task       23 on host node-k98a-025 reporting.

  Performing system and environment tests:
  | Environment variable OMP_NUM_THREADS correctly set to 1.
  | Checking for ScaLAPACK...
  | Testing pdtran()...
  | All pdtran() tests passed.

  Obtaining array dimensions for all initial allocations:
  
  -----------------------------------------------------------------------
  Parsing control.in (first pass over file, find array dimensions only).
  The contents of control.in will be repeated verbatim below
  unless switched off by setting 'verbatim_writeout .false.' .
  in the first line of control.in .
  -----------------------------------------------------------------------
  
  #########################################################################################  Physical model
  #########################################################################################
  xc                 pbesol
  spin               none
  relativistic       atomic_zora scalar
  charge             0.0
  #  SCF convergence
  occupation_type    gaussian 0.01
  mixer              pulay
  n_max_pulay        10
  charge_mix_param   0.5
  sc_accuracy_rho    1E-5
  sc_accuracy_eev    1E-3
  sc_accuracy_etot   1E-6
  sc_accuracy_forces 1E-4
  sc_iter_limit      1500
  #  Relaxation
  #relax_geometry   bfgs 1.e-3
  
  ################################################################################
  #
  #  FHI-aims code project
  #  VB, Fritz-Haber Institut, 2009
  #
  #  Suggested "light" defaults for Al atom (to be pasted into control.in file)
  #  Be sure to double-check any results obtained with these settings for post-processing,
  #  e.g., with the "tight" defaults and larger basis sets.
  #
  ################################################################################
    species        Al
  #     global species definitions
      nucleus             13
      mass                26.9815386
  #
      l_hartree           4
  #
      cut_pot             3.5          1.5  1.0
      basis_dep_cutoff    1e-4
  #
      radial_base         41 5.0
      radial_multiplier   1
      angular_grids       specified
        division   0.6594  110
        division   0.8170  194
        division   0.9059  302
  #      division   1.0363  434
  #      division   1.1443  590
  #      division   1.2621  770
  #      division   2.8177  974
  #      outer_grid   974
        outer_grid   302
  ################################################################################
  #
  #  Definition of "minimal" basis
  #
  ################################################################################
  #     valence basis states
      valence      3  s   2.
      valence      3  p   1.
  #     ion occupancy
      ion_occ      3  s   1.
      ion_occ      2  p   6.
  ################################################################################
  #
  #  Suggested additional basis functions. For production calculations,
  #  uncomment them one after another (the most important basis functions are
  #  listed first).
  #
  #  Constructed for dimers: 2.0 A, 2.5 A, 3.0 A, 3.75 A, 4.5 A
  #
  ################################################################################
  #  "First tier" - improvements: -199.47 meV to -10.63 meV
       ionic 3 d auto
       ionic 3 p auto
  #     hydro 4 f 4.7
       ionic 3 s auto
  #  "Second tier" - improvements: -5.35 meV to -1.57 meV
  #     hydro 5 g 7
  #     hydro 3 d 6
  #     hydro 2 s 11.6
  #     hydro 2 p 0.9
  #  "Third tier" - improvements: -0.63 meV to -0.20 meV
  #     hydro 5 f 7.6
  #     hydro 4 p 7.2
  #     hydro 4 s 3.7
  #     hydro 4 d 7.6
  #  "Fourth tier" - improvements: -0.17 meV to -0.08 meV
  #     hydro 4 d 13.6
  #     hydro 5 g 11.2
  #     hydro 4 d 0.9
  #     hydro 1 s 0.4
  #     hydro 4 p 0.1
  #     hydro 5 f 9.8
  #  Further basis functions that fell out of the optimization - noise level...
  #     hydro 4 p 5
  
  ################################################################################
  #
  #  FHI-aims code project
  #  VB, Fritz-Haber Institut, 2009
  #
  #  Suggested "light" defaults for F atom (to be pasted into control.in file)
  #  Be sure to double-check any results obtained with these settings for post-processing,
  #  e.g., with the "tight" defaults and larger basis sets.
  #
  ################################################################################
    species        F
  #     global species definitions
      nucleus             9
      mass                18.9984032
  #
      l_hartree           4
  #
      cut_pot             3.5  1.5  1.0
      basis_dep_cutoff    1e-4
  #
      radial_base         37 5.0
      radial_multiplier   1
      angular_grids specified
        division   0.4014  110
        division   0.5291  194
        division   0.6019  302
  #      division   0.6814  434
  #      division   0.7989  590
  #      division   0.8965  770
  #      division   1.3427  974
  #      outer_grid   974
        outer_grid   302
  ################################################################################
  #
  #  Definition of "minimal" basis
  #
  ################################################################################
  #     valence basis states
      valence      2  s   2.
      valence      2  p   5.
  #     ion occupancy
      ion_occ      2  s   1.
      ion_occ      2  p   4.
  ################################################################################
  #
  #  Suggested additional basis functions. For production calculations,
  #  uncomment them one after another (the most important basis functions are
  #  listed first).
  #
  #  Constructed for dimers: 1.2 A, 1.418 A, 1.75 A, 2.25 A, 3.25 A
  #
  ################################################################################
  #  "First tier" - improvements: -149.44 meV to -45.88 meV
       hydro 2 p 1.7
       hydro 3 d 7.4
       hydro 3 s 6.8
  #  "Second tier" - improvements: -12.96 meV to -1.56 meV
  #     hydro 4 f 11.2
  #     ionic 2 p auto
  #     hydro 1 s 0.75
  #     hydro 4 d 8.8
  #     hydro 5 g 16.8
  #  "Third tier" - improvements: -0.58 meV to -0.05 meV
  #     hydro 3 p 6.2
  #     hydro 3 s 3.2
  #     hydro 4 f 9.6
  #     hydro 3 s 19.6
  #     hydro 4 d 8.6
  #     hydro 5 g 14.4
  # Further basis functions: -0.05 meV and below
  #     hydro 3 p 4.2
  
  -----------------------------------------------------------------------
  Completed first pass over input file control.in .
  -----------------------------------------------------------------------
  
  
  -----------------------------------------------------------------------
  Parsing geometry.in (first pass over file, find array dimensions only).
  The contents of geometry.in will be repeated verbatim below
  unless switched off by setting 'verbatim_writeout .false.' .
  in the first line of geometry.in .
  -----------------------------------------------------------------------
  
  atom -0.342952038 0.921443160 -1.820123136 Al
  atom -0.450670981 1.115712091 1.278341801 Al
  atom -3.036946503 0.522442878 -1.854891609 Al
  atom -3.541527855 0.327527336 -3.594376561 F
  atom -1.448886958 -0.600051304 -1.786385338 F
  atom -1.869056693 2.058162589 -1.945610761 F
  atom -2.050779777 0.806486655 0.455840109 F
  atom 0.616402016 1.183093697 -0.297855175 F
  atom -0.215839781 2.794000804 1.922599371 F
  atom 0.278739608 -0.334974071 2.110020558 F
  atom -4.314108967 0.386511726 -0.576683313 F
  atom 0.786843819 1.033709703 -3.234966444 F
  
  -----------------------------------------------------------------------
  Completed first pass over input file geometry.in .
  -----------------------------------------------------------------------
  

  Basic array size parameters:
  | Number of species                 :        2
  | Number of atoms                   :       12
  | Max. basis fn. angular momentum   :        2
  | Max. atomic/ionic basis occupied n:        3
  | Max. number of basis fn. types    :        3
  | Max. radial fns per species/type  :        5
  | Max. logarithmic grid size        :     1340
  | Max. radial integration grid size :       41
  | Max. angular integration grid size:      302
  | Max. angular grid division number :        8
  | Radial grid for Hartree potential :     1340
  | Number of spin channels           :        1

------------------------------------------------------------
          Reading file control.in.
------------------------------------------------------------
  XC: Using PBEsol gradient-corrected functionals.
  Spin treatment: No spin polarisation.
  Scalar relativistic treatment of kinetic energy: on-site free-atom approximation to ZORA.
  Charge =   0.000000E+00: Neutral system requested explicitly.
  Occupation type: Gaussian broadening, width =   0.100000E-01 eV.
  Using pulay charge density mixing.
  Pulay mixing - number of memorized iterations:   10
  Charge density mixing - mixing parameter:     0.5000
  Convergence accuracy of self-consistent charge density:  0.1000E-04
  Convergence accuracy of sum of eigenvalues:  0.1000E-02
  Convergence accuracy of total energy:  0.1000E-05
  Convergence accuracy of forces:  0.1000E-03
  Maximum number of s.-c. iterations  :  1500
 
  Reading configuration options for species Al                  .
  | Found nuclear charge :  13.0000
  | Found atomic mass :    26.9815386000000      amu
  | Found l_max for Hartree potential  :   4
  | Found cutoff potl. onset [A], width [A], scale factor :    3.50000    1.50000    1.00000
  | Threshold for basis-dependent cutoff potential is   0.100000E-03
  | Found data for basic radial integration grid :    41 points, outermost radius =    5.000 A
  | Found multiplier for basic radial grid :   1
  | Found angular grid specification: user-specified.
  | Specified grid contains     4 separate shells.
  | Check grid settings after all constraints further below.
  | Found free-atom valence shell :  3 s   2.000
  | Found free-atom valence shell :  3 p   1.000
  | Found free-ion valence shell :  3 s   1.000
  | Found free-ion valence shell :  2 p   6.000
  | Found ionic basis function :  3 d , default cutoff radius.
  | Found ionic basis function :  3 p , default cutoff radius.
  | Found ionic basis function :  3 s , default cutoff radius.
  Species Al                  : Missing cutoff potential type.
  Defaulting to exp(1/x)/(1-x)^2 type cutoff potential.
  Species Al: No 'logarithmic' tag. Using default grid for free atom:
  | Default logarithmic grid data [bohr] : 0.1000E-03 0.1000E+03 0.1012E+01
  | Will include ionic basis functions of  2.0-fold positive Al                   ion.
  Species Al: On-site basis accuracy parameter (for Gram-Schmidt orthonormalisation) not specified.
  Using default value basis_acc =  0.1000000E-03.
  Species Al                  : Using default innermost maximum threshold i_radial=  2 for radial functions.
  Species Al                  : Default cutoff onset for free atom density etc. : 0.35000000E+01 AA.
  Species Al                  : Basic radial grid will be enhanced according to radial_multiplier =   1, to contain    41 grid points.
 
  Reading configuration options for species F                   .
  | Found nuclear charge :   9.0000
  | Found atomic mass :    18.9984032000000      amu
  | Found l_max for Hartree potential  :   4
  | Found cutoff potl. onset [A], width [A], scale factor :    3.50000    1.50000    1.00000
  | Threshold for basis-dependent cutoff potential is   0.100000E-03
  | Found data for basic radial integration grid :    37 points, outermost radius =    5.000 A
  | Found multiplier for basic radial grid :   1
  | Found angular grid specification: user-specified.
  | Specified grid contains     4 separate shells.
  | Check grid settings after all constraints further below.
  | Found free-atom valence shell :  2 s   2.000
  | Found free-atom valence shell :  2 p   5.000
  | Found free-ion valence shell :  2 s   1.000
  | Found free-ion valence shell :  2 p   4.000
  | Found hydrogenic basis function :  2 p   1.700
  | Found hydrogenic basis function :  3 d   7.400
  | Found hydrogenic basis function :  3 s   6.800
  Species F                   : Missing cutoff potential type.
  Defaulting to exp(1/x)/(1-x)^2 type cutoff potential.
  Species F : No 'logarithmic' tag. Using default grid for free atom:
  | Default logarithmic grid data [bohr] : 0.1000E-03 0.1000E+03 0.1012E+01
  Species F : On-site basis accuracy parameter (for Gram-Schmidt orthonormalisation) not specified.
  Using default value basis_acc =  0.1000000E-03.
  Species F                   : Using default innermost maximum threshold i_radial=  2 for radial functions.
  Species F                   : Default cutoff onset for free atom density etc. : 0.35000000E+01 AA.
  Species F                   : Basic radial grid will be enhanced according to radial_multiplier =   1, to contain    37 grid points.
 
  Finished reading input file 'control.in'.
 
------------------------------------------------------------


------------------------------------------------------------
          Reading geometry description geometry.in.
------------------------------------------------------------
  | The smallest distance between any two atoms is         1.81202585 AA.
  | The first atom of this pair is atom number                      3 .
  | The second atom of this pair is atom number                    11 .
  Input structure read successfully.
  The structure contains       12 atoms,  and a total of        120.000 electrons.

  Input geometry:
  | No unit cell requested.
  | Atomic structure:
  |       Atom                x [A]            y [A]            z [A]
  |    1: Species Al           -0.34295204        0.92144316       -1.82012314
  |    2: Species Al           -0.45067098        1.11571209        1.27834180
  |    3: Species Al           -3.03694650        0.52244288       -1.85489161
  |    4: Species F            -3.54152786        0.32752734       -3.59437656
  |    5: Species F            -1.44888696       -0.60005130       -1.78638534
  |    6: Species F            -1.86905669        2.05816259       -1.94561076
  |    7: Species F            -2.05077978        0.80648666        0.45584011
  |    8: Species F             0.61640202        1.18309370       -0.29785518
  |    9: Species F            -0.21583978        2.79400080        1.92259937
  |   10: Species F             0.27873961       -0.33497407        2.11002056
  |   11: Species F            -4.31410897        0.38651173       -0.57668331
  |   12: Species F             0.78684382        1.03370970       -3.23496644

 
  Finished reading input file 'control.in'.
 

------------------------------------------------------------
          Reading geometry description geometry.in.
------------------------------------------------------------
 
  Consistency checks for stacksize environment parameter are next.
 
  | Maximum stacksize for task 0: unlimited
  | Maximum stacksize for task 1: unlimited
  | Maximum stacksize for task 2: unlimited
  | Maximum stacksize for task 3: unlimited
  | Maximum stacksize for task 4: unlimited
  | Maximum stacksize for task 5: unlimited
  | Maximum stacksize for task 6: unlimited
  | Maximum stacksize for task 7: unlimited
  | Maximum stacksize for task 8: unlimited
  | Maximum stacksize for task 9: unlimited
  | Maximum stacksize for task 10: unlimited
  | Maximum stacksize for task 11: unlimited
  | Maximum stacksize for task 12: unlimited
  | Maximum stacksize for task 13: unlimited
  | Maximum stacksize for task 14: unlimited
  | Maximum stacksize for task 15: unlimited
  | Maximum stacksize for task 16: unlimited
  | Maximum stacksize for task 17: unlimited
  | Maximum stacksize for task 18: unlimited
  | Maximum stacksize for task 19: unlimited
  | Maximum stacksize for task 20: unlimited
  | Maximum stacksize for task 21: unlimited
  | Maximum stacksize for task 22: unlimited
  | Maximum stacksize for task 23: unlimited
  | Current stacksize for task 0: unlimited
  | Current stacksize for task 1: unlimited
  | Current stacksize for task 2: unlimited
  | Current stacksize for task 3: unlimited
  | Current stacksize for task 4: unlimited
  | Current stacksize for task 5: unlimited
  | Current stacksize for task 6: unlimited
  | Current stacksize for task 7: unlimited
  | Current stacksize for task 8: unlimited
  | Current stacksize for task 9: unlimited
  | Current stacksize for task 10: unlimited
  | Current stacksize for task 11: unlimited
  | Current stacksize for task 12: unlimited
  | Current stacksize for task 13: unlimited
  | Current stacksize for task 14: unlimited
  | Current stacksize for task 15: unlimited
  | Current stacksize for task 16: unlimited
  | Current stacksize for task 17: unlimited
  | Current stacksize for task 18: unlimited
  | Current stacksize for task 19: unlimited
  | Current stacksize for task 20: unlimited
  | Current stacksize for task 21: unlimited
  | Current stacksize for task 22: unlimited
  | Current stacksize for task 23: unlimited
 
  Consistency checks for the contents of control.in are next.
 
  MPI_IN_PLACE appears to work with this MPI implementation.
  | Keeping use_mpi_in_place .true. (see manual).
  Target number of points in a grid batch is not set. Defaulting to  100
  Method for grid partitioning is not set. Defaulting to parallel hash+maxmin partitioning.
  Batch size limit is not set. Defaulting to    200
  By default, will store active basis functions for each batch.
  If in need of memory, prune_basis_once .false. can be used to disable this option.
  communication_type for Hartree potential was not specified.
  Defaulting to calc_hartree .
  Pulay mixer: Number of initial linear mixing iterations not set.
  Defaulting to    0 iterations.
  Work space size for distributed Hartree potential not set.
  Defaulting to   0.200000E+03 MB.
  Algorithm-dependent basis array size parameters:
  | n_max_pulay                         :       10
  Presetting      1001 iterations before the initial mixing cycle
  is restarted anyway using the sc_init_iter criterion / keyword.
  Presetting a factor      1.000 between actual scf density residual
  and density convergence criterion sc_accuracy_rho below which sc_init_iter
  takes no effect.
  Geometry relaxation not requested: no relaxation will be performed.
  Forces evaluation will include force correction term due to incomplete self-consistency (default).
  Handling of forces: Unphysical translation and rotation will be removed from forces.
  No accuracy limit for integral partition fn. given. Defaulting to  0.1000E-14.
  No threshold value for u(r) in integrations given. Defaulting to  0.1000E-05.
  No accuracy for occupation numbers given. Defaulting to  0.1000E-12.
  No threshold value for occupation numbers given. Defaulting to  0.0000E+00.
  No accuracy for fermi level given. Defaulting to  0.1000E-19.
  Maximum # of iterations to find E_F not set. Defaulting to  200.
  Preferred method for the eigenvalue solver ('KS_method') not specified in 'control.in'.
  Calling BLACS routine to test compilation state
  Since ScaLAPACK support is enabled, defaulting to ELPA (via ELSI).
  Will not use alltoall communication since running on < 1024 CPUs.
  Threshold for basis singularities not set.
  Default threshold for basis singularities:  0.1000E-04
  partition_type (choice of integration weights) for integrals was not specified.
  | Using a version of the partition function of Stratmann and coworkers ('stratmann_sparse').
  | At each grid point, the set of atoms used to build the partition table is smoothly restricted to
  | only those atoms whose free-atom density would be non-zero at that grid point.
  Partitioning for Hartree potential was not defined. Using partition_type for integrals.
  | Adjusted default value of keyword multip_moments_threshold to:       0.10000000E-11
  | This value may affect high angular momentum components of the Hartree potential in periodic systems.
  No q(lm)/r^(l+1) cutoff set for long-range Hartree potential.
  | Using default value of  0.100000E-09 .
  | Verify using the multipole_threshold keyword.
  Defaulting to new monopole extrapolation.
  Density update method: automatic selection selected.
  Charge integration errors on the 3D integration grid will be compensated
  by explicit normalization and distribution of residual charges.
  Use the "compensate_multipole_errors" flag to change this behaviour.
  Set 'collect_eigenvectors' to be '.true.' for use_density_matrix .false.
 
  Consistency checks for the contents of geometry.in are next.
 
  Number of empty states per atom not set in control.in - providing a guess from actual geometry.
  | Total number of empty states used during s.c.f. cycle:       36
  If you use a very high smearing, use empty_states (per atom!) in control.in to increase this value.

  Structure-dependent array size parameters: 
  | Maximum number of distinct radial functions  :       14
  | Maximum number of basis functions            :      180
  | Number of Kohn-Sham states (occupied + empty):       96
------------------------------------------------------------

------------------------------------------------------------
          Preparing all fixed parts of the calculation.
------------------------------------------------------------
  Determining machine precision:
    2.225073858507201E-308
  Setting up grids for atomic and cluster calculations.

  Creating wave function, potential, and density for free atoms.

  Species: Al

  List of occupied orbitals and eigenvalues:
    n    l              occ      energy [Ha]    energy [eV]
    1    0           2.0000       -55.621123     -1513.5278
    2    0           2.0000        -3.957030      -107.6763
    3    0           2.0000        -0.272233        -7.4078
    2    1           6.0000        -2.540949       -69.1427
    3    1           1.0000        -0.083300        -2.2667


  Species: F

  List of occupied orbitals and eigenvalues:
    n    l              occ      energy [Ha]    energy [eV]
    1    0           2.0000       -24.399611      -663.9472
    2    0           2.0000        -1.098702       -29.8972
    2    1           5.0000        -0.408210       -11.1080


  Adding cutoff potential to free-atom effective potential.
  Creating fixed part of basis set: Ionic, confined, hydrogenic.
 
  Al                   ion:

  List of free ionic orbitals and eigenvalues:
    n    l      energy [Ha]    energy [eV]
    1    0       -56.418846     -1535.2349
    2    0        -4.732717      -128.7838
    3    0        -0.872690       -23.7471
    2    1        -3.317230       -90.2664


  List of ionic basis orbitals and eigenvalues:
    n    l      energy [Ha]    energy [eV]    outer radius [A]
    3    2        -0.346815        -9.4373       4.594041
    3    1        -0.631870       -17.1940       4.538221
    3    0        -0.872657       -23.7462       4.538221

 
  F                    hydrogenic:
 
  List of hydrogenic basis orbitals: 
    n    l      effective z      eigenvalue [eV]  inner max. [A]     outer max. [A]     outer radius [A]   
    2    1         1.700000        -9.7616           1.243167           1.243167           4.598524
    3    2         7.400000       -82.7828           0.642437           0.642437           3.305741
    3    0         6.800000       -69.9026           0.057798           1.022307           3.781556
 
  Creating atomic-like basis functions for current effective potential.

  Species Al                  :

  List of atomic basis orbitals and eigenvalues:
    n    l      energy [Ha]    energy [eV]    outer radius [A]
    1    0       -55.621123     -1513.5278       0.850197
    2    0        -3.957030      -107.6763       3.144911
    3    0        -0.272233        -7.4078       4.594041
    2    1        -2.540949       -69.1427       3.731966
    3    1        -0.083300        -2.2667       4.594041


  Species F                   :

  List of atomic basis orbitals and eigenvalues:
    n    l      energy [Ha]    energy [eV]    outer radius [A]
    1    0       -24.399611      -663.9472       1.258458
    2    0        -1.098702       -29.8972       4.325857
    2    1        -0.408210       -11.1080       4.487453

  Assembling full basis from fixed parts.
  | Species Al :   atomic orbital   1 s accepted.
  | Species Al :   atomic orbital   2 s accepted.
  | Species Al :    ionic orbital   3 s accepted.
  | Species Al :   atomic orbital   3 s accepted.
  | Species Al :   atomic orbital   2 p accepted.
  | Species Al :    ionic orbital   3 p accepted.
  | Species Al :   atomic orbital   3 p accepted.
  | Species Al :    ionic orbital   3 d accepted.
  | Species F :   atomic orbital   1 s accepted.
  | Species F :    hydro orbital   3 s accepted.
  | Species F :   atomic orbital   2 s accepted.
  | Species F :   atomic orbital   2 p accepted.
  | Species F :    hydro orbital   2 p accepted.
  | Species F :    hydro orbital   3 d accepted.
 
  Basis size parameters after reduction:
  | Total number of radial functions:       14
  | Total number of basis functions :      180
 
  Per-task memory consumption for arrays in subroutine allocate_ext:
  |           4.807768MB.
  Testing on-site integration grid accuracy.
  |  Species  Function  <phi|h_atom|phi> (log., in eV)  <phi|h_atom|phi> (rad., in eV)
           1        1              -1513.5277717935              -1513.5271881332
           1        2               -107.6762691836               -107.6762662489
           1        3                 -6.9467474784                 -6.9471269649
           1        4                  5.5771951849                  5.4862107220 ***
           1        5                -69.1427313144                -69.1427312731
           1        6                 -1.5197375330                 -1.5230432022
           1        7                  6.8210948310                  6.5529872240 ***
           1        8                  4.3216540965                  4.2851170187 ***
           2        9               -663.9471986398               -663.9470363334
           2       10                 16.8514011578                 16.8512525338
           2       11                -28.4490593856                -28.4490661472
           2       12                -11.1080115307                -11.1080620173
           2       13                  7.1940182175                  7.1685154137
           2       14                 44.8544281765                 44.8543763625
 * Note: Onsite integrals marked "***" above are less accurate than
 * onsite_accuracy_threshold =    0.03000 eV. Usually, this is harmless.
 * When in doubt, tighten the "radial" and/or "radial_multiplier" flags to check.

  Preparing densities etc. for the partition functions (integrals / Hartree potential).

  Preparations completed.
  max(cpu_time)          :      0.184 s.
  Wall clock time (cpu1) :      0.184 s.
------------------------------------------------------------

------------------------------------------------------------
          Begin self-consistency loop: Initialization.

          Date     :  20220517, Time     :  120102.186
------------------------------------------------------------

  Initializing index lists of integration centers etc. from given atomic structure:
  | Number of centers in hartree potential         :        12
  | Number of centers in hartree multipole         :        12
  | Number of centers in electron density summation:        12
  | Number of centers in basis integrals           :        12
  | Number of centers in integrals                 :        12
  | Number of centers in hamiltonian               :        12
  * Using 24 tasks for Scalapack Eigenvalue solver.
  Detailed listing of tasks and assigned k-points:
  (for non-periodic systems, the "k-point" denotes an internal label only)
   Task     0 k-point     1 on node-k98a-025
   Task     1 k-point     1 on node-k98a-025
   Task     2 k-point     1 on node-k98a-025
   Task     3 k-point     1 on node-k98a-025
   Task     4 k-point     1 on node-k98a-025
   Task     5 k-point     1 on node-k98a-025
   Task     6 k-point     1 on node-k98a-025
   Task     7 k-point     1 on node-k98a-025
   Task     8 k-point     1 on node-k98a-025
   Task     9 k-point     1 on node-k98a-025
   Task    10 k-point     1 on node-k98a-025
   Task    11 k-point     1 on node-k98a-025
   Task    12 k-point     1 on node-k98a-025
   Task    13 k-point     1 on node-k98a-025
   Task    14 k-point     1 on node-k98a-025
   Task    15 k-point     1 on node-k98a-025
   Task    16 k-point     1 on node-k98a-025
   Task    17 k-point     1 on node-k98a-025
   Task    18 k-point     1 on node-k98a-025
   Task    19 k-point     1 on node-k98a-025
   Task    20 k-point     1 on node-k98a-025
   Task    21 k-point     1 on node-k98a-025
   Task    22 k-point     1 on node-k98a-025
   Task    23 k-point     1 on node-k98a-025
  Tasks:    24 split into      6 X      4 BLACS grid
  Calculating block size based on n_basis =          180  max_nprow =            6  max_npcol =            4
  ScaLAPACK block size set to:           16
  Allocating        0.012 MB for ovlp
  Allocating        0.012 MB for ham
  Allocating        0.012 MB for eigenvec
  Required Scalapack workspace - INTEGER:            1  REAL:             1
  Partitioning the integration grid into batches with parallel hashing+maxmin method.
  | Number of batches:     1046
  | Maximal batch size:     198
  | Minimal batch size:      21
  | Average batch size:      87.878
  | Standard deviation of batch sizes:      28.826

  Integration load balanced across    24 MPI tasks.
  Work distribution over tasks is as follows:
  Task     0 has       3811 integration points.
  Task     1 has       3836 integration points.
  Task     2 has       3818 integration points.
  Task     3 has       3846 integration points.
  Task     4 has       3745 integration points.
  Task     5 has       3760 integration points.
  Task     6 has       3827 integration points.
  Task     7 has       3837 integration points.
  Task     8 has       3826 integration points.
  Task     9 has       3817 integration points.
  Task    10 has       3874 integration points.
  Task    11 has       3818 integration points.
  Task    12 has       3822 integration points.
  Task    13 has       3844 integration points.
  Task    14 has       3853 integration points.
  Task    15 has       3822 integration points.
  Task    16 has       3852 integration points.
  Task    17 has       3885 integration points.
  Task    18 has       3874 integration points.
  Task    19 has       3865 integration points.
  Task    20 has       3859 integration points.
  Task    21 has       3805 integration points.
  Task    22 has       3813 integration points.
  Task    23 has       3811 integration points.
  Initializing partition tables, free-atom densities, potentials, etc. across the integration grid (initialize_grid_storage).
  | initialize_grid_storage: Actual outermost partition radius vs. multipole_radius_free
  | (-- VB: in principle, multipole_radius_free should be larger, hence this output)
  | Species        1: Confinement radius =              4.999999999999999 AA, multipole_radius_free =              5.004487022111096 AA.
  | Species        1: outer_partition_radius set to              5.004487022111096 AA .
  | Species        2: Confinement radius =              4.999999999999999 AA, multipole_radius_free =              5.009370088163274 AA.
  | Species        2: outer_partition_radius set to              5.009370088163274 AA .
  | The sparse table of interatomic distances needs          1.64 kbyte instead of         1.15 kbyte of memory.
  | Using the partition_type stratmann_smoother will reduce your memory usage.
  | Net number of integration points:    91920
  | of which are non-zero points    :    85681
  Renormalizing the initial density to the exact electron count on the 3D integration grid.
  | Initial density: Formal number of electrons (from input files) :     120.0000000000
  | Integrated number of electrons on 3D grid     :     119.9998978848
  | Charge integration error                      :      -0.0001021152
  | Normalization factor for density and gradient :       1.0000008510
  Renormalizing the free-atom superposition density to the exact electron count on the 3D integration grid.
  | Formal number of electrons (from input files) :     120.0000000000
  | Integrated number of electrons on 3D grid     :     119.9998978848
  | Charge integration error                      :      -0.0001021152
  | Normalization factor for density and gradient :       1.0000008510
  Obtaining max. number of non-zero basis functions in each batch (get_n_compute_maxes).
  | Maximal number of non-zero basis functions:      164 in task     0
  | Maximal number of non-zero basis functions:      165 in task     1
  | Maximal number of non-zero basis functions:      164 in task     2
  | Maximal number of non-zero basis functions:      160 in task     3
  | Maximal number of non-zero basis functions:      172 in task     4
  | Maximal number of non-zero basis functions:      166 in task     5
  | Maximal number of non-zero basis functions:      171 in task     6
  | Maximal number of non-zero basis functions:      164 in task     7
  | Maximal number of non-zero basis functions:      162 in task     8
  | Maximal number of non-zero basis functions:      165 in task     9
  | Maximal number of non-zero basis functions:      170 in task    10
  | Maximal number of non-zero basis functions:      164 in task    11
  | Maximal number of non-zero basis functions:      165 in task    12
  | Maximal number of non-zero basis functions:      163 in task    13
  | Maximal number of non-zero basis functions:      159 in task    14
  | Maximal number of non-zero basis functions:      157 in task    15
  | Maximal number of non-zero basis functions:      164 in task    16
  | Maximal number of non-zero basis functions:      172 in task    17
  | Maximal number of non-zero basis functions:      163 in task    18
  | Maximal number of non-zero basis functions:      165 in task    19
  | Maximal number of non-zero basis functions:      167 in task    20
  | Maximal number of non-zero basis functions:      165 in task    21
  | Maximal number of non-zero basis functions:      165 in task    22
  | Maximal number of non-zero basis functions:      164 in task    23
  Selecting the method for density update.
  Loop over occupied states selected for charge density update.
  Allocating        0.132 MB for KS_eigenvector
  Integrating Hamiltonian matrix: batch-based integration.
  Time summed over all CPUs for integration: real work        0.697 s, elapsed        0.732 s
  Integrating overlap matrix.
  Time summed over all CPUs for integration: real work        0.275 s, elapsed        0.289 s
  Deallocating overlap matrix.

  Updating Kohn-Sham eigenvalues and eigenvectors using ELSI and the ELPA eigensolver.
  Overlap matrix is not singular
  | Lowest and highest eigenvalues :  0.3590E-02,  0.5206E+01
  Finished singularity check of overlap matrix
  | Time :     0.003 s
  Starting ELPA eigensolver
  Finished Cholesky decomposition
  | Time :     0.002 s
  Finished transformation to standard eigenproblem
  | Time :     0.001 s
  Finished solving standard eigenproblem
  | Time :     0.003 s
  Finished back-transformation of eigenvectors
  | Time :     0.001 s

  Obtaining occupation numbers and chemical potential using ELSI.
  | Chemical potential (Fermi level):    -7.76655168 eV
  Writing Kohn-Sham eigenvalues.

  State    Occupation    Eigenvalue [Ha]    Eigenvalue [eV]
      1       2.00000         -55.484818        -1509.81872
      2       2.00000         -55.484113        -1509.79954
      3       2.00000         -55.483134        -1509.77290
      4       2.00000         -24.370166         -663.14597
      5       2.00000         -24.359984         -662.86890
      6       2.00000         -24.358763         -662.83566
      7       2.00000         -24.344829         -662.45651
      8       2.00000         -24.341089         -662.35473
      9       2.00000         -24.340928         -662.35036
     10       2.00000         -24.340796         -662.34675
     11       2.00000         -24.339929         -662.32316
     12       2.00000         -24.339609         -662.31445
     13       2.00000          -3.950231         -107.49125
     14       2.00000          -3.949133         -107.46138
     15       2.00000          -3.948128         -107.43402
     16       2.00000          -2.543083          -69.20080
     17       2.00000          -2.542331          -69.18036
     18       2.00000          -2.541971          -69.17054
     19       2.00000          -2.541110          -69.14711
     20       2.00000          -2.540958          -69.14300
     21       2.00000          -2.540474          -69.12981
     22       2.00000          -2.540292          -69.12487
     23       2.00000          -2.539777          -69.11086
     24       2.00000          -2.539262          -69.09683
     25       2.00000          -1.193926          -32.48839
     26       2.00000          -1.185027          -32.24621
     27       2.00000          -1.174654          -31.96397
     28       2.00000          -1.158608          -31.52733
     29       2.00000          -1.150244          -31.29972
     30       2.00000          -1.149276          -31.27340
     31       2.00000          -1.149015          -31.26630
     32       2.00000          -1.147077          -31.21355
     33       2.00000          -1.146615          -31.20097
     34       2.00000          -0.559455          -15.22353
     35       2.00000          -0.546343          -14.86674
     36       2.00000          -0.542279          -14.75616
     37       2.00000          -0.517410          -14.07945
     38       2.00000          -0.514898          -14.01108
     39       2.00000          -0.512040          -13.93333
     40       2.00000          -0.497845          -13.54706
     41       2.00000          -0.497302          -13.53228
     42       2.00000          -0.495106          -13.47253
     43       2.00000          -0.487970          -13.27835
     44       2.00000          -0.484248          -13.17706
     45       2.00000          -0.483136          -13.14681
     46       2.00000          -0.479915          -13.05915
     47       2.00000          -0.478521          -13.02122
     48       2.00000          -0.477700          -12.99887
     49       2.00000          -0.458385          -12.47330
     50       2.00000          -0.456631          -12.42557
     51       2.00000          -0.454641          -12.37142
     52       2.00000          -0.452694          -12.31843
     53       2.00000          -0.452190          -12.30472
     54       2.00000          -0.451389          -12.28291
     55       2.00000          -0.451295          -12.28037
     56       2.00000          -0.448587          -12.20667
     57       2.00000          -0.448249          -12.19748
     58       2.00000          -0.447573          -12.17909
     59       2.00000          -0.444167          -12.08639
     60       2.00000          -0.442156          -12.03169
     61       0.00000          -0.142067           -3.86585
     62       0.00000          -0.096557           -2.62744
     63       0.00000          -0.078182           -2.12743
     64       0.00000          -0.032153           -0.87494
     65       0.00000          -0.013449           -0.36595
     66       0.00000          -0.000295           -0.00803
     67       0.00000           0.007633            0.20769
     68       0.00000           0.024728            0.67289
     69       0.00000           0.037144            1.01074
     70       0.00000           0.050511            1.37446
     71       0.00000           0.076003            2.06815
     72       0.00000           0.102025            2.77624
     73       0.00000           0.145655            3.96347
     74       0.00000           0.162229            4.41447
     75       0.00000           0.168975            4.59803
     76       0.00000           0.169892            4.62300
     77       0.00000           0.179076            4.87291
     78       0.00000           0.184132            5.01048
     79       0.00000           0.191788            5.21882
     80       0.00000           0.200850            5.46541
     81       0.00000           0.205728            5.59814
     82       0.00000           0.217072            5.90683
     83       0.00000           0.228073            6.20618
     84       0.00000           0.239081            6.50571
     85       0.00000           0.240113            6.53382
     86       0.00000           0.242522            6.59936
     87       0.00000           0.274026            7.45664
     88       0.00000           0.275799            7.50488
     89       0.00000           0.290002            7.89136
     90       0.00000           0.297394            8.09249
     91       0.00000           0.309658            8.42622
     92       0.00000           0.317309            8.63442
     93       0.00000           0.342371            9.31639
     94       0.00000           0.344045            9.36193
     95       0.00000           0.364204            9.91050
     96       0.00000           0.369123           10.04434

  Highest occupied state (VBM) at    -12.03168897 eV
  | Occupation number:      2.00000000

  Lowest unoccupied state (CBM) at    -3.86584983 eV
  | Occupation number:      0.00000000

  Overall HOMO-LUMO gap:      8.16583915 eV.
  Calculating total energy contributions from superposition of free atom densities.

  Total energy components:
  | Sum of eigenvalues            :        -887.48295432 Ha      -24149.63990728 eV
  | XC energy correction          :        -144.31556791 Ha       -3927.02640786 eV
  | XC potential correction       :         187.90621399 Ha        5113.18823877 eV
  | Free-atom electrostatic energy:        -781.46600046 Ha      -21264.77181212 eV
  | Hartree energy correction     :           0.00000000 Ha           0.00000000 eV
  | Entropy correction            :           0.00000000 Ha           0.00000000 eV
  | ---------------------------
  | Total energy                  :       -1625.35830871 Ha      -44228.24988850 eV
  | Total energy, T -> 0          :       -1625.35830871 Ha      -44228.24988850 eV  <-- do not rely on this value for anything but (periodic) metals
  | Electronic free energy        :       -1625.35830871 Ha      -44228.24988850 eV

  Derived energy quantities:
  | Kinetic energy                :        1627.55946369 Ha       44288.14636302 eV
  | Electrostatic energy          :       -3108.60220448 Ha      -84589.36984365 eV
  | Energy correction for multipole
  | error in Hartree potential    :           0.00000000 Ha           0.00000000 eV
  | Sum of eigenvalues per atom                           :       -2012.46999227 eV
  | Total energy (T->0) per atom                          :       -3685.68749071 eV  <-- do not rely on this value for anything but (periodic) metals
  | Electronic free energy per atom                       :       -3685.68749071 eV
  Initialize hartree_potential_storage
  Max. number of atoms included in rho_multipole:           12

  End scf initialization - timings             :  max(cpu_time)    wall_clock(cpu1)
  | Time for scf. initialization                :        0.114 s           0.114 s
  | Boundary condition initialization           :        0.000 s           0.000 s
  | Integration                                 :        0.044 s           0.044 s
  | Solution of K.-S. eqns.                     :        0.011 s           0.011 s
  | Grid partitioning                           :        0.036 s           0.036 s
  | Preloading free-atom quantities on grid     :        0.015 s           0.016 s
  | Free-atom superposition energy              :        0.005 s           0.004 s
  | Total energy evaluation                     :        0.000 s           0.000 s

  Partial memory accounting:
  | Current value for overall tracked memory usage:
  |   Minimum:        0.273 MB (on task 23)
  |   Maximum:        0.292 MB (on task  0)
  |   Average:        0.287 MB
  | Peak value for overall tracked memory usage:
  |   Minimum:        1.310 MB (on task 15 after allocating wave)
  |   Maximum:        1.425 MB (on task  4 after allocating wave)
  |   Average:        1.370 MB
  | Largest tracked array allocation so far:
  |   Minimum:        0.237 MB (H_times_psi on task 15)
  |   Maximum:        0.488 MB (all_coords on task 10)
  |   Average:        0.273 MB
  Note:  These values currently only include a subset of arrays which are explicitly tracked.
  The "true" memory usage will be greater.
------------------------------------------------------------
  Evaluating new KS density.
  Integration grid: deviation in total charge (<rho> - N_e) =   1.421085E-14

  Time for density update prior                :  max(cpu_time)    wall_clock(cpu1)
  | self-consistency iterative process          :        0.028 s           0.028 s

------------------------------------------------------------
          Begin self-consistency iteration #    1

  Date     :  20220517, Time     :  120102.329
------------------------------------------------------------
  Pulay mixing of updated and previous charge densities.
  Renormalizing the density to the exact electron count on the 3D integration grid.
  | Formal number of electrons (from input files) :     120.0000000000
  | Integrated number of electrons on 3D grid     :     120.0000000000
  | Charge integration error                      :       0.0000000000
  | Normalization factor for density and gradient :       1.0000000000

  Evaluating partitioned Hartree potential by multipole expansion.
  | Original multipole sum: apparent total charge =   0.629948E-13
  | Sum of charges compensated after spline to logarithmic grids =   0.118601E-03
  | Analytical far-field extrapolation by fixed multipoles:
  | Hartree multipole sum: apparent total charge =   0.630440E-13
  Summing up the Hartree potential.
  Time summed over all CPUs for potential: real work        0.382 s, elapsed        0.409 s
  | RMS charge density error from multipole expansion :   0.106428E-01

  Integrating Hamiltonian matrix: batch-based integration.
  Time summed over all CPUs for integration: real work        0.662 s, elapsed        0.692 s

  Updating Kohn-Sham eigenvalues and eigenvectors using ELSI and the ELPA eigensolver.
  Starting ELPA eigensolver
  Finished transformation to standard eigenproblem
  | Time :     0.001 s
  Finished solving standard eigenproblem
  | Time :     0.003 s
  Finished back-transformation of eigenvectors
  | Time :     0.000 s

  Obtaining occupation numbers and chemical potential using ELSI.
  | Chemical potential (Fermi level):    -7.83513114 eV
  Writing Kohn-Sham eigenvalues.

  State    Occupation    Eigenvalue [Ha]    Eigenvalue [eV]
      1       2.00000         -55.678747        -1515.09580
      2       2.00000         -55.644550        -1514.16526
      3       2.00000         -55.622348        -1513.56110
      4       2.00000         -24.258353         -660.10336
      5       2.00000         -24.248750         -659.84206
      6       2.00000         -24.246393         -659.77793
      7       2.00000         -24.149963         -657.15392
      8       2.00000         -24.084001         -655.35902
      9       2.00000         -24.066508         -654.88301
     10       2.00000         -24.063675         -654.80591
     11       2.00000         -24.062002         -654.76040
     12       2.00000         -24.060978         -654.73252
     13       2.00000          -4.117589         -112.04530
     14       2.00000          -4.082723         -111.09654
     15       2.00000          -4.062694         -110.55152
     16       2.00000          -2.710956          -73.76886
     17       2.00000          -2.710328          -73.75178
     18       2.00000          -2.709498          -73.72919
     19       2.00000          -2.676321          -72.82639
     20       2.00000          -2.676087          -72.82002
     21       2.00000          -2.673697          -72.75499
     22       2.00000          -2.656746          -72.29375
     23       2.00000          -2.655091          -72.24870
     24       2.00000          -2.654114          -72.22210
     25       2.00000          -1.178893          -32.07930
     26       2.00000          -1.169963          -31.83630
     27       2.00000          -1.156335          -31.46548
     28       2.00000          -1.080416          -29.39962
     29       2.00000          -1.030545          -28.04256
     30       2.00000          -1.014663          -27.61037
     31       2.00000          -1.012008          -27.53813
     32       2.00000          -1.008150          -27.43315
     33       2.00000          -1.006820          -27.39695
     34       2.00000          -0.560210          -15.24408
     35       2.00000          -0.542201          -14.75404
     36       2.00000          -0.531175          -14.45401
     37       2.00000          -0.508633          -13.84062
     38       2.00000          -0.501911          -13.65769
     39       2.00000          -0.477642          -12.99731
     40       2.00000          -0.474494          -12.91165
     41       2.00000          -0.462086          -12.57401
     42       2.00000          -0.452351          -12.30911
     43       2.00000          -0.443555          -12.06975
     44       2.00000          -0.399249          -10.86412
     45       2.00000          -0.391130          -10.64319
     46       2.00000          -0.388739          -10.57814
     47       2.00000          -0.387344          -10.54018
     48       2.00000          -0.381000          -10.36753
     49       2.00000          -0.359238           -9.77537
     50       2.00000          -0.355372           -9.67016
     51       2.00000          -0.340466           -9.26454
     52       2.00000          -0.339458           -9.23711
     53       2.00000          -0.328319           -8.93400
     54       2.00000          -0.327212           -8.90390
     55       2.00000          -0.324893           -8.84078
     56       2.00000          -0.322900           -8.78655
     57       2.00000          -0.316806           -8.62074
     58       2.00000          -0.314773           -8.56540
     59       2.00000          -0.310526           -8.44985
     60       2.00000          -0.306576           -8.34237
     61       0.00000          -0.160117           -4.35699
     62       0.00000          -0.090601           -2.46539
     63       0.00000          -0.082489           -2.24463
     64       0.00000          -0.061023           -1.66051
     65       0.00000          -0.032603           -0.88718
     66       0.00000          -0.020523           -0.55847
     67       0.00000          -0.005068           -0.13791
     68       0.00000           0.019774            0.53807
     69       0.00000           0.032266            0.87801
     70       0.00000           0.041741            1.13584
     71       0.00000           0.051874            1.41157
     72       0.00000           0.086075            2.34221
     73       0.00000           0.133740            3.63925
     74       0.00000           0.156702            4.26407
     75       0.00000           0.158554            4.31447
     76       0.00000           0.166870            4.54075
     77       0.00000           0.183035            4.98064
     78       0.00000           0.185857            5.05742
     79       0.00000           0.189626            5.15998
     80       0.00000           0.200807            5.46424
     81       0.00000           0.205597            5.59458
     82       0.00000           0.210154            5.71859
     83       0.00000           0.218714            5.95150
     84       0.00000           0.223921            6.09321
     85       0.00000           0.228695            6.22310
     86       0.00000           0.232606            6.32952
     87       0.00000           0.250072            6.80482
     88       0.00000           0.264345            7.19320
     89       0.00000           0.272004            7.40161
     90       0.00000           0.292515            7.95974
     91       0.00000           0.301875            8.21444
     92       0.00000           0.320747            8.72798
     93       0.00000           0.334004            9.08872
     94       0.00000           0.348637            9.48691
     95       0.00000           0.364608            9.92148
     96       0.00000           0.368872           10.03753

  Highest occupied state (VBM) at     -8.34237056 eV
  | Occupation number:      2.00000000

  Lowest unoccupied state (CBM) at    -4.35699315 eV
  | Occupation number:      0.00000000

  Overall HOMO-LUMO gap:      3.98537741 eV.

  Total energy components:
  | Sum of eigenvalues            :        -882.15632476 Ha      -24004.69494218 eV
  | XC energy correction          :        -145.66032550 Ha       -3963.61912364 eV
  | XC potential correction       :         189.67396964 Ha        5161.29131752 eV
  | Free-atom electrostatic energy:        -781.46600046 Ha      -21264.77181212 eV
  | Hartree energy correction     :          -5.52811326 Ha        -150.42761555 eV
  | Entropy correction            :           0.00000000 Ha           0.00000000 eV
  | ---------------------------
  | Total energy                  :       -1625.13679434 Ha      -44222.22217597 eV
  | Total energy, T -> 0          :       -1625.13679434 Ha      -44222.22217597 eV  <-- do not rely on this value for anything but (periodic) metals
  | Electronic free energy        :       -1625.13679434 Ha      -44222.22217597 eV

  Derived energy quantities:
  | Kinetic energy                :        1633.98957429 Ha       44463.11857499 eV
  | Electrostatic energy          :       -3113.46604313 Ha      -84721.72162733 eV
  | Energy correction for multipole
  | error in Hartree potential    :           0.03968673 Ha           1.07993089 eV
  | Sum of eigenvalues per atom                           :       -2000.39124518 eV
  | Total energy (T->0) per atom                          :       -3685.18518133 eV  <-- do not rely on this value for anything but (periodic) metals
  | Electronic free energy per atom                       :       -3685.18518133 eV
  Evaluating new KS density.
  Integration grid: deviation in total charge (<rho> - N_e) =  -2.842171E-14

  Self-consistency convergence accuracy:
  | Change of charge density      :  0.6039E+00
  | Change of sum of eigenvalues  :  0.1449E+03 eV
  | Change of total energy        :  0.6028E+01 eV


------------------------------------------------------------
  End self-consistency iteration #     1       :  max(cpu_time)    wall_clock(cpu1)
  | Time for this iteration                     :        0.081 s           0.080 s
  | Charge density update                       :        0.027 s           0.027 s
  | Density mixing                              :        0.001 s           0.000 s
  | Hartree multipole update                    :        0.001 s           0.001 s
  | Hartree multipole summation                 :        0.017 s           0.018 s
  | Integration                                 :        0.029 s           0.029 s
  | Solution of K.-S. eqns.                     :        0.004 s           0.005 s
  | Total energy evaluation                     :        0.000 s           0.000 s

  Partial memory accounting:
  | Current value for overall tracked memory usage:
  |   Minimum:        0.273 MB (on task 23)
  |   Maximum:        0.292 MB (on task  0)
  |   Average:        0.287 MB
  | Peak value for overall tracked memory usage:
  |   Minimum:        1.310 MB (on task 15 after allocating wave)
  |   Maximum:        1.425 MB (on task  4 after allocating wave)
  |   Average:        1.370 MB
  | Largest tracked array allocation so far:
  |   Minimum:        0.712 MB (gradient_basis_wave on task 15)
  |   Maximum:        0.779 MB (gradient_basis_wave on task  4)
  |   Average:        0.747 MB
  Note:  These values currently only include a subset of arrays which are explicitly tracked.
  The "true" memory usage will be greater.
------------------------------------------------------------

------------------------------------------------------------
          Begin self-consistency iteration #    2

  Date     :  20220517, Time     :  120102.415
------------------------------------------------------------
  Pulay mixing of updated and previous charge densities.
  Renormalizing the density to the exact electron count on the 3D integration grid.
  | Formal number of electrons (from input files) :     120.0000000000
  | Integrated number of electrons on 3D grid     :     120.0000000000
  | Charge integration error                      :       0.0000000000
  | Normalization factor for density and gradient :       1.0000000000

  Evaluating partitioned Hartree potential by multipole expansion.
  | Original multipole sum: apparent total charge =   0.557139E-13
  | Sum of charges compensated after spline to logarithmic grids =   0.818033E-04
  | Analytical far-field extrapolation by fixed multipoles:
  | Hartree multipole sum: apparent total charge =   0.556893E-13
  Summing up the Hartree potential.
  Time summed over all CPUs for potential: real work        0.381 s, elapsed        0.406 s
  | RMS charge density error from multipole expansion :   0.125765E-01

  Integrating Hamiltonian matrix: batch-based integration.
  Time summed over all CPUs for integration: real work        0.661 s, elapsed        0.690 s

  Updating Kohn-Sham eigenvalues and eigenvectors using ELSI and the ELPA eigensolver.
  Starting ELPA eigensolver
  Finished transformation to standard eigenproblem
  | Time :     0.000 s
  Finished solving standard eigenproblem
  | Time :     0.004 s
  Finished back-transformation of eigenvectors
  | Time :     0.000 s

  Obtaining occupation numbers and chemical potential using ELSI.
  | Chemical potential (Fermi level):    -7.97381969 eV
  Highest occupied state (VBM) at     -9.53124050 eV
  | Occupation number:      2.00000000

  Lowest unoccupied state (CBM) at    -4.58631656 eV
  | Occupation number:      0.00000000

  Overall HOMO-LUMO gap:      4.94492393 eV.

  Checking to see if s.c.f. parameters should be adjusted.

  Total energy components:
  | Sum of eigenvalues            :        -885.35102822 Ha      -24091.62724635 eV
  | XC energy correction          :        -145.16226325 Ha       -3950.06616013 eV
  | XC potential correction       :         189.01871561 Ha        5143.46094824 eV
  | Free-atom electrostatic energy:        -781.46600046 Ha      -21264.77181212 eV
  | Hartree energy correction     :          -2.11091473 Ha         -57.44091247 eV
  | Entropy correction            :           0.00000000 Ha           0.00000000 eV
  | ---------------------------
  | Total energy                  :       -1625.07149105 Ha      -44220.44518283 eV
  | Total energy, T -> 0          :       -1625.07149105 Ha      -44220.44518283 eV  <-- do not rely on this value for anything but (periodic) metals
  | Electronic free energy        :       -1625.07149105 Ha      -44220.44518283 eV

  Derived energy quantities:
  | Kinetic energy                :        1630.06657316 Ha       44356.36828273 eV
  | Electrostatic energy          :       -3109.97580095 Ha      -84626.74730544 eV
  | Energy correction for multipole
  | error in Hartree potential    :           0.04354000 Ha           1.18478364 eV
  | Sum of eigenvalues per atom                           :       -2007.63560386 eV
  | Total energy (T->0) per atom                          :       -3685.03709857 eV  <-- do not rely on this value for anything but (periodic) metals
  | Electronic free energy per atom                       :       -3685.03709857 eV
  Evaluating new KS density.
  Integration grid: deviation in total charge (<rho> - N_e) =   2.842171E-14

  Self-consistency convergence accuracy:
  | Change of charge density      :  0.4811E+00
  | Change of sum of eigenvalues  : -0.8693E+02 eV
  | Change of total energy        :  0.1777E+01 eV


------------------------------------------------------------
  End self-consistency iteration #     2       :  max(cpu_time)    wall_clock(cpu1)
  | Time for this iteration                     :        0.083 s           0.080 s
  | Charge density update                       :        0.027 s           0.027 s
  | Density mixing                              :        0.004 s           0.001 s
  | Hartree multipole update                    :        0.001 s           0.002 s
  | Hartree multipole summation                 :        0.017 s           0.017 s
  | Integration                                 :        0.029 s           0.029 s
  | Solution of K.-S. eqns.                     :        0.004 s           0.004 s
  | Total energy evaluation                     :        0.000 s           0.000 s

  Partial memory accounting:
  | Current value for overall tracked memory usage:
  |   Minimum:        0.274 MB (on task 23)
  |   Maximum:        0.293 MB (on task  0)
  |   Average:        0.288 MB
  | Peak value for overall tracked memory usage:
  |   Minimum:        1.310 MB (on task 15 after allocating wave)
  |   Maximum:        1.425 MB (on task  4 after allocating wave)
  |   Average:        1.370 MB
  | Largest tracked array allocation so far:
  |   Minimum:        0.712 MB (gradient_basis_wave on task 15)
  |   Maximum:        0.779 MB (gradient_basis_wave on task  4)
  |   Average:        0.747 MB
  Note:  These values currently only include a subset of arrays which are explicitly tracked.
  The "true" memory usage will be greater.
------------------------------------------------------------

------------------------------------------------------------
          Begin self-consistency iteration #    3

  Date     :  20220517, Time     :  120102.501
------------------------------------------------------------
  Pulay mixing of updated and previous charge densities.
  Renormalizing the density to the exact electron count on the 3D integration grid.
  | Formal number of electrons (from input files) :     120.0000000000
  | Integrated number of electrons on 3D grid     :     120.0000000000
  | Charge integration error                      :       0.0000000000
  | Normalization factor for density and gradient :       1.0000000000

  Evaluating partitioned Hartree potential by multipole expansion.
  | Original multipole sum: apparent total charge =   0.743836E-13
  | Sum of charges compensated after spline to logarithmic grids =   0.106746E-03
  | Analytical far-field extrapolation by fixed multipoles:
  | Hartree multipole sum: apparent total charge =   0.734980E-13
  Summing up the Hartree potential.
  Time summed over all CPUs for potential: real work        0.381 s, elapsed        0.406 s
  | RMS charge density error from multipole expansion :   0.174602E-01

  Integrating Hamiltonian matrix: batch-based integration.
  Time summed over all CPUs for integration: real work        0.661 s, elapsed        0.689 s

  Updating Kohn-Sham eigenvalues and eigenvectors using ELSI and the ELPA eigensolver.
  Starting ELPA eigensolver
  Finished transformation to standard eigenproblem
  | Time :     0.001 s
  Finished solving standard eigenproblem
  | Time :     0.003 s
  Finished back-transformation of eigenvectors
  | Time :     0.000 s

  Obtaining occupation numbers and chemical potential using ELSI.
  | Chemical potential (Fermi level):    -8.14446490 eV
  Highest occupied state (VBM) at     -9.26804576 eV
  | Occupation number:      2.00000000

  Lowest unoccupied state (CBM) at    -4.85249712 eV
  | Occupation number:      0.00000000

  Overall HOMO-LUMO gap:      4.41554864 eV.

  Total energy components:
  | Sum of eigenvalues            :        -886.40341996 Ha      -24120.26428268 eV
  | XC energy correction          :        -145.12650305 Ha       -3949.09307569 eV
  | XC potential correction       :         188.97040972 Ha        5142.14647788 eV
  | Free-atom electrostatic energy:        -781.46600046 Ha      -21264.77181212 eV
  | Hartree energy correction     :          -1.04503732 Ha         -28.43691247 eV
  | Entropy correction            :           0.00000000 Ha           0.00000000 eV
  | ---------------------------
  | Total energy                  :       -1625.07055108 Ha      -44220.41960508 eV
  | Total energy, T -> 0          :       -1625.07055108 Ha      -44220.41960508 eV  <-- do not rely on this value for anything but (periodic) metals
  | Electronic free energy        :       -1625.07055108 Ha      -44220.41960508 eV

  Derived energy quantities:
  | Kinetic energy                :        1628.30036569 Ha       44308.30733219 eV
  | Electrostatic energy          :       -3108.24441372 Ha      -84579.63386158 eV
  | Energy correction for multipole
  | error in Hartree potential    :           0.05861587 Ha           1.59501905 eV
  | Sum of eigenvalues per atom                           :       -2010.02202356 eV
  | Total energy (T->0) per atom                          :       -3685.03496709 eV  <-- do not rely on this value for anything but (periodic) metals
  | Electronic free energy per atom                       :       -3685.03496709 eV
  Evaluating new KS density.
  Integration grid: deviation in total charge (<rho> - N_e) =   4.263256E-14

  Self-consistency convergence accuracy:
  | Change of charge density      :  0.1270E+00
  | Change of sum of eigenvalues  : -0.2864E+02 eV
  | Change of total energy        :  0.2558E-01 eV


------------------------------------------------------------
  End self-consistency iteration #     3       :  max(cpu_time)    wall_clock(cpu1)
  | Time for this iteration                     :        0.082 s           0.080 s
  | Charge density update                       :        0.027 s           0.026 s
  | Density mixing                              :        0.003 s           0.002 s
  | Hartree multipole update                    :        0.001 s           0.001 s
  | Hartree multipole summation                 :        0.017 s           0.017 s
  | Integration                                 :        0.029 s           0.029 s
  | Solution of K.-S. eqns.                     :        0.004 s           0.004 s
  | Total energy evaluation                     :        0.000 s           0.000 s

  Partial memory accounting:
  | Current value for overall tracked memory usage:
  |   Minimum:        0.274 MB (on task 23)
  |   Maximum:        0.293 MB (on task  0)
  |   Average:        0.288 MB
  | Peak value for overall tracked memory usage:
  |   Minimum:        1.310 MB (on task 15 after allocating wave)
  |   Maximum:        1.425 MB (on task  4 after allocating wave)
  |   Average:        1.370 MB
  | Largest tracked array allocation so far:
  |   Minimum:        0.712 MB (gradient_basis_wave on task 15)
  |   Maximum:        0.779 MB (gradient_basis_wave on task  4)
  |   Average:        0.747 MB
  Note:  These values currently only include a subset of arrays which are explicitly tracked.
  The "true" memory usage will be greater.
------------------------------------------------------------

------------------------------------------------------------
          Begin self-consistency iteration #    4

  Date     :  20220517, Time     :  120102.585
------------------------------------------------------------
  Pulay mixing of updated and previous charge densities.
  Renormalizing the density to the exact electron count on the 3D integration grid.
  | Formal number of electrons (from input files) :     120.0000000000
  | Integrated number of electrons on 3D grid     :     120.0000000000
  | Charge integration error                      :      -0.0000000000
  | Normalization factor for density and gradient :       1.0000000000

  Evaluating partitioned Hartree potential by multipole expansion.
  | Original multipole sum: apparent total charge =  -0.440300E-13
  | Sum of charges compensated after spline to logarithmic grids =   0.116042E-03
  | Analytical far-field extrapolation by fixed multipoles:
  | Hartree multipole sum: apparent total charge =  -0.435380E-13
  Summing up the Hartree potential.
  Time summed over all CPUs for potential: real work        0.381 s, elapsed        0.406 s
  | RMS charge density error from multipole expansion :   0.194167E-01

  Integrating Hamiltonian matrix: batch-based integration.
  Time summed over all CPUs for integration: real work        0.661 s, elapsed        0.689 s

  Updating Kohn-Sham eigenvalues and eigenvectors using ELSI and the ELPA eigensolver.
  Starting ELPA eigensolver
  Finished transformation to standard eigenproblem
  | Time :     0.000 s
  Finished solving standard eigenproblem
  | Time :     0.003 s
  Finished back-transformation of eigenvectors
  | Time :     0.000 s

  Obtaining occupation numbers and chemical potential using ELSI.
  | Chemical potential (Fermi level):    -8.11937653 eV
  Highest occupied state (VBM) at     -9.31412107 eV
  | Occupation number:      2.00000000

  Lowest unoccupied state (CBM) at    -4.81696866 eV
  | Occupation number:      0.00000000

  Overall HOMO-LUMO gap:      4.49715241 eV.

  Total energy components:
  | Sum of eigenvalues            :        -886.52262923 Ha      -24123.50813191 eV
  | XC energy correction          :        -145.11052281 Ha       -3948.65823114 eV
  | XC potential correction       :         188.94876962 Ha        5141.55762086 eV
  | Free-atom electrostatic energy:        -781.46600046 Ha      -21264.77181212 eV
  | Hartree energy correction     :          -0.91792714 Ha         -24.97806823 eV
  | Entropy correction            :           0.00000000 Ha           0.00000000 eV
  | ---------------------------
  | Total energy                  :       -1625.06831001 Ha      -44220.35862255 eV
  | Total energy, T -> 0          :       -1625.06831001 Ha      -44220.35862255 eV  <-- do not rely on this value for anything but (periodic) metals
  | Electronic free energy        :       -1625.06831001 Ha      -44220.35862255 eV

  Derived energy quantities:
  | Kinetic energy                :        1627.66217397 Ha       44290.94125192 eV
  | Electrostatic energy          :       -3107.61996117 Ha      -84562.64164334 eV
  | Energy correction for multipole
  | error in Hartree potential    :           0.06423952 Ha           1.74804619 eV
  | Sum of eigenvalues per atom                           :       -2010.29234433 eV
  | Total energy (T->0) per atom                          :       -3685.02988521 eV  <-- do not rely on this value for anything but (periodic) metals
  | Electronic free energy per atom                       :       -3685.02988521 eV
  Evaluating new KS density.
  Integration grid: deviation in total charge (<rho> - N_e) =   1.421085E-14

  Self-consistency convergence accuracy:
  | Change of charge density      :  0.8301E-01
  | Change of sum of eigenvalues  : -0.3244E+01 eV
  | Change of total energy        :  0.6098E-01 eV


------------------------------------------------------------
  End self-consistency iteration #     4       :  max(cpu_time)    wall_clock(cpu1)
  | Time for this iteration                     :        0.082 s           0.083 s
  | Charge density update                       :        0.027 s           0.027 s
  | Density mixing                              :        0.004 s           0.004 s
  | Hartree multipole update                    :        0.001 s           0.002 s
  | Hartree multipole summation                 :        0.017 s           0.017 s
  | Integration                                 :        0.029 s           0.029 s
  | Solution of K.-S. eqns.                     :        0.004 s           0.004 s
  | Total energy evaluation                     :        0.000 s           0.000 s

  Partial memory accounting:
  | Current value for overall tracked memory usage:
  |   Minimum:        0.274 MB (on task 23)
  |   Maximum:        0.293 MB (on task  0)
  |   Average:        0.288 MB
  | Peak value for overall tracked memory usage:
  |   Minimum:        1.310 MB (on task 15 after allocating wave)
  |   Maximum:        1.425 MB (on task  4 after allocating wave)
  |   Average:        1.370 MB
  | Largest tracked array allocation so far:
  |   Minimum:        0.712 MB (gradient_basis_wave on task 15)
  |   Maximum:        0.779 MB (gradient_basis_wave on task  4)
  |   Average:        0.747 MB
  Note:  These values currently only include a subset of arrays which are explicitly tracked.
  The "true" memory usage will be greater.
------------------------------------------------------------

------------------------------------------------------------
          Begin self-consistency iteration #    5

  Date     :  20220517, Time     :  120102.675
------------------------------------------------------------
  Pulay mixing of updated and previous charge densities.
  Renormalizing the density to the exact electron count on the 3D integration grid.
  | Formal number of electrons (from input files) :     120.0000000000
  | Integrated number of electrons on 3D grid     :     120.0000000000
  | Charge integration error                      :       0.0000000000
  | Normalization factor for density and gradient :       1.0000000000

  Evaluating partitioned Hartree potential by multipole expansion.
  | Original multipole sum: apparent total charge =   0.484575E-13
  | Sum of charges compensated after spline to logarithmic grids =   0.116289E-03
  | Analytical far-field extrapolation by fixed multipoles:
  | Hartree multipole sum: apparent total charge =   0.480148E-13
  Summing up the Hartree potential.
  Time summed over all CPUs for potential: real work        0.381 s, elapsed        0.407 s
  | RMS charge density error from multipole expansion :   0.192252E-01

  Integrating Hamiltonian matrix: batch-based integration.
  Time summed over all CPUs for integration: real work        0.661 s, elapsed        0.696 s

  Updating Kohn-Sham eigenvalues and eigenvectors using ELSI and the ELPA eigensolver.
  Starting ELPA eigensolver
  Finished transformation to standard eigenproblem
  | Time :     0.001 s
  Finished solving standard eigenproblem
  | Time :     0.003 s
  Finished back-transformation of eigenvectors
  | Time :     0.000 s

  Obtaining occupation numbers and chemical potential using ELSI.
  | Chemical potential (Fermi level):    -8.07820548 eV
  Highest occupied state (VBM) at     -9.37490802 eV
  | Occupation number:      2.00000000

  Lowest unoccupied state (CBM) at    -4.75033489 eV
  | Occupation number:      0.00000000

  Overall HOMO-LUMO gap:      4.62457313 eV.

  Total energy components:
  | Sum of eigenvalues            :        -886.33969008 Ha      -24118.53010438 eV
  | XC energy correction          :        -145.10602411 Ha       -3948.53581540 eV
  | XC potential correction       :         188.94303249 Ha        5141.40150564 eV
  | Free-atom electrostatic energy:        -781.46600046 Ha      -21264.77181212 eV
  | Hartree energy correction     :          -1.09948217 Ha         -29.91843202 eV
  | Entropy correction            :           0.00000000 Ha           0.00000000 eV
[...]
   Total forces(   7)            :  0.218388E+01  0.368558E+00  0.202126E+00
  atom #    8
   Hellmann-Feynman              :  0.993041E+00  0.201007E+00  0.393012E+00
   Ionic forces                  :  0.000000E+00  0.000000E+00  0.000000E+00
   Multipole                     :  0.295053E+00  0.809962E-01  0.387090E+00
   Hartree pot. SCF incomplete   :  0.577435E-06  0.174834E-06  0.107472E-05
   Pulay + GGA                   : -0.258761E+01 -0.552468E+00 -0.159308E+01
   ----------------------------------------------------------------
   Total forces(   8)            : -0.129952E+01 -0.270464E+00 -0.812981E+00
  atom #    9
   Hellmann-Feynman              :  0.414038E+00  0.295662E+01  0.879631E+00
   Ionic forces                  :  0.000000E+00  0.000000E+00  0.000000E+00
   Multipole                     :  0.136899E+00  0.692739E+00  0.166070E+00
   Hartree pot. SCF incomplete   : -0.560784E-06  0.103350E-05  0.652610E-06
   Pulay + GGA                   : -0.102889E+01 -0.643366E+01 -0.215777E+01
   ----------------------------------------------------------------
   Total forces(   9)            : -0.477956E+00 -0.278430E+01 -0.111207E+01
  atom #   10
   Hellmann-Feynman              :  0.124881E+01 -0.249993E+01  0.115523E+01
   Ionic forces                  :  0.000000E+00  0.000000E+00  0.000000E+00
   Multipole                     :  0.328165E+00 -0.575069E+00  0.233590E+00
   Hartree pot. SCF incomplete   : -0.214200E-06 -0.108701E-05  0.775735E-06
   Pulay + GGA                   : -0.290427E+01  0.552706E+01 -0.285262E+01
   ----------------------------------------------------------------
   Total forces(  10)            : -0.132730E+01  0.245207E+01 -0.146380E+01
  atom #   11
   Hellmann-Feynman              : -0.230552E+01 -0.231938E+00  0.256695E+01
   Ionic forces                  :  0.000000E+00  0.000000E+00  0.000000E+00
   Multipole                     : -0.373907E+00 -0.355226E-01  0.543556E+00
   Hartree pot. SCF incomplete   : -0.204031E-05 -0.303256E-06  0.936428E-06
   Pulay + GGA                   :  0.471781E+01  0.462180E+00 -0.559809E+01
   ----------------------------------------------------------------
   Total forces(  11)            :  0.203838E+01  0.194719E+00 -0.248759E+01
  atom #   12
   Hellmann-Feynman              :  0.192008E+01  0.169204E+00 -0.264598E+01
   Ionic forces                  :  0.000000E+00  0.000000E+00  0.000000E+00
   Multipole                     :  0.489723E+00  0.564629E-01 -0.659165E+00
   Hartree pot. SCF incomplete   : -0.463849E-06 -0.702537E-07 -0.724085E-07
   Pulay + GGA                   : -0.462582E+01 -0.461185E+00  0.601319E+01
   ----------------------------------------------------------------
   Total forces(  12)            : -0.221601E+01 -0.235519E+00  0.270804E+01


  Self-consistency convergence accuracy:
  | Change of charge density      :  0.1172E-06
  | Change of sum of eigenvalues  : -0.6788E-05 eV
  | Change of total energy        :  0.4950E-09 eV
  | Change of forces              :  0.3849E-06 eV/A

  Writing Kohn-Sham eigenvalues.

  State    Occupation    Eigenvalue [Ha]    Eigenvalue [eV]
      1       2.00000         -55.670366        -1514.86773
      2       2.00000         -55.628965        -1513.74116
      3       2.00000         -55.598334        -1512.90765
      4       2.00000         -24.326466         -661.95682
      5       2.00000         -24.323955         -661.88849
      6       2.00000         -24.322162         -661.83971
      7       2.00000         -24.251293         -659.91126
      8       2.00000         -24.235507         -659.48170
      9       2.00000         -24.206472         -658.69162
     10       2.00000         -24.204338         -658.63354
     11       2.00000         -24.197224         -658.43997
     12       2.00000         -24.195637         -658.39677
     13       2.00000          -4.122919         -112.19035
     14       2.00000          -4.080577         -111.03816
     15       2.00000          -4.052200         -110.26597
     16       2.00000          -2.715928          -73.90415
     17       2.00000          -2.715020          -73.87945
     18       2.00000          -2.712430          -73.80898
     19       2.00000          -2.674737          -72.78330
     20       2.00000          -2.672662          -72.72682
     21       2.00000          -2.668855          -72.62325
     22       2.00000          -2.646891          -72.02558
     23       2.00000          -2.643141          -71.92353
     24       2.00000          -2.641206          -71.87088
     25       2.00000          -1.201722          -32.70053
     26       2.00000          -1.194845          -32.51340
     27       2.00000          -1.182484          -32.17703
     28       2.00000          -1.105624          -30.08556
     29       2.00000          -1.082206          -29.44833
     30       2.00000          -1.054892          -28.70508
     31       2.00000          -1.050314          -28.58049
     32       2.00000          -1.046518          -28.47720
     33       2.00000          -1.041976          -28.35361
     34       2.00000          -0.581844          -15.83279
     35       2.00000          -0.563955          -15.34599
     36       2.00000          -0.552981          -15.04739
     37       2.00000          -0.534141          -14.53471
     38       2.00000          -0.524558          -14.27395
     39       2.00000          -0.499468          -13.59122
     40       2.00000          -0.496212          -13.50261
     41       2.00000          -0.489824          -13.32878
     42       2.00000          -0.476003          -12.95271
     43       2.00000          -0.467265          -12.71492
     44       2.00000          -0.442068          -12.02929
     45       2.00000          -0.427387          -11.62979
     46       2.00000          -0.416395          -11.33069
     47       2.00000          -0.410676          -11.17506
     48       2.00000          -0.410085          -11.15897
     49       2.00000          -0.399391          -10.86799
     50       2.00000          -0.389345          -10.59461
     51       2.00000          -0.387299          -10.53893
     52       2.00000          -0.386620          -10.52048
     53       2.00000          -0.363765           -9.89856
     54       2.00000          -0.362772           -9.87154
     55       2.00000          -0.356840           -9.71011
     56       2.00000          -0.356158           -9.69154
     57       2.00000          -0.354422           -9.64430
     58       2.00000          -0.347799           -9.46409
     59       2.00000          -0.345938           -9.41345
     60       2.00000          -0.343624           -9.35050
     61       0.00000          -0.174567           -4.75022
     62       0.00000          -0.103879           -2.82670
     63       0.00000          -0.090975           -2.47557
     64       0.00000          -0.068370           -1.86044
     65       0.00000          -0.038771           -1.05502
     66       0.00000          -0.028738           -0.78199
     67       0.00000          -0.010635           -0.28940
     68       0.00000           0.016190            0.44054
     69       0.00000           0.029327            0.79804
     70       0.00000           0.037489            1.02013
     71       0.00000           0.048965            1.33240
     72       0.00000           0.079270            2.15703
     73       0.00000           0.126497            3.44216
     74       0.00000           0.147956            4.02610
     75       0.00000           0.150389            4.09228
     76       0.00000           0.160013            4.35418
     77       0.00000           0.175569            4.77748
     78       0.00000           0.180506            4.91181
     79       0.00000           0.185369            5.04416
     80       0.00000           0.196316            5.34204
     81       0.00000           0.199039            5.41613
     82       0.00000           0.205593            5.59446
     83       0.00000           0.211905            5.76623
     84       0.00000           0.219029            5.96007
     85       0.00000           0.223477            6.08111
     86       0.00000           0.225919            6.14756
     87       0.00000           0.245622            6.68372
     88       0.00000           0.256745            6.98638
     89       0.00000           0.268525            7.30694
     90       0.00000           0.285896            7.77963
     91       0.00000           0.299420            8.14763
     92       0.00000           0.316174            8.60353
     93       0.00000           0.327143            8.90201
     94       0.00000           0.343689            9.35224
     95       0.00000           0.357907            9.73915
     96       0.00000           0.359802            9.79072

  Highest occupied state (VBM) at     -9.35049522 eV
  | Occupation number:      2.00000000

  Lowest unoccupied state (CBM) at    -4.75022290 eV
  | Occupation number:      0.00000000

  Overall HOMO-LUMO gap:      4.60027232 eV.
  | Chemical Potential                          :    -8.07637167 eV

  Self-consistency cycle converged.


------------------------------------------------------------
  End self-consistency iteration #    14       :  max(cpu_time)    wall_clock(cpu1)
  | Time for this iteration                     :        0.266 s           0.264 s
  | Charge density & force component update     :        0.144 s           0.144 s
  | Density mixing                              :        0.005 s           0.003 s
  | Hartree multipole update                    :        0.001 s           0.001 s
  | Hartree multipole summation                 :        0.049 s           0.049 s
  | Hartree pot. SCF incomplete forces          :        0.032 s           0.034 s
  | Integration                                 :        0.029 s           0.029 s
  | Solution of K.-S. eqns.                     :        0.004 s           0.004 s
  | Total energy evaluation                     :        0.000 s           0.000 s

  Partial memory accounting:
  | Current value for overall tracked memory usage:
  |   Minimum:        0.274 MB (on task 23)
  |   Maximum:        0.293 MB (on task  0)
  |   Average:        0.289 MB
  | Peak value for overall tracked memory usage:
  |   Minimum:        2.928 MB (on task 15 after allocating hessian_basis_wave)
  |   Maximum:        3.163 MB (on task  4 after allocating hessian_basis_wave)
  |   Average:        3.051 MB
  | Largest tracked array allocation so far:
  |   Minimum:        1.423 MB (hessian_basis_wave on task 15)
  |   Maximum:        1.559 MB (hessian_basis_wave on task  4)
  |   Average:        1.494 MB
  Note:  These values currently only include a subset of arrays which are explicitly tracked.
  The "true" memory usage will be greater.
------------------------------------------------------------
  Removing unitary transformations (pure translations, rotations) from forces on atoms.
  Atomic forces before filtering:
  | Net force on center of mass :  -0.651242E-02 -0.553683E-02  0.405754E-03 eV/A
  | Net torque on center of mass:   0.653426E-03 -0.733292E-02  0.625614E-02 eV
  Atomic forces after filtering:
  | Net force on center of mass :  -0.107044E-14 -0.446015E-16  0.000000E+00 eV/A
  | Net torque on center of mass:   0.755268E-15 -0.226580E-14 -0.802472E-15 eV

  Energy and forces in a compact form:
  | Total energy uncorrected      :         -0.442203544137384E+05 eV
  | Total energy corrected        :         -0.442203544137384E+05 eV  <-- do not rely on this value for anything but (periodic) metals
  | Electronic free energy        :         -0.442203544137384E+05 eV
  Total atomic forces (unitary forces cleaned) [eV/Ang]:
  |    1          0.177404972237036E+01          0.305801554734802E+00         -0.205226816224940E+01
  |    2          0.449164320367425E+00          0.778632150568327E-01          0.211095659088049E+01
  |    3         -0.310363414392107E+01         -0.529602571528969E+00         -0.211522560924091E+00
  |    4          0.102476393848589E+01          0.363082271690745E+00          0.302535614878881E+01
  |    5          0.117078634362514E+00          0.218714845666927E+01         -0.831994043089277E-01
  |    6          0.833260342797587E+00         -0.213187988781983E+01          0.177447990736193E+00
  |    7          0.218452963678453E+01          0.369187195140955E+00          0.202162634990701E+00
  |    8         -0.129887705409443E+01         -0.270281725680290E+00         -0.813203869329349E+00
  |    9         -0.476861779158133E+00         -0.278389657925898E+01         -0.111228093359831E+01
  |   10         -0.132667430916786E+01          0.245240245711094E+01         -0.146393016334946E+01
  |   11          0.203886693759636E+01          0.195659733932697E+00         -0.248732356991734E+01
  |   12         -0.221566624642317E+01         -0.235484120048166E+00          0.270780529828069E+01

  ------------------------------------ 
  Start decomposition of the XC Energy 
  ------------------------------------ 
  X and C from original XC functional choice 
  Hartree-Fock Energy :          0.000000000 Ha              0.000000000 eV
  X Energy            :       -140.170105273 Ha          -3814.222629980 eV
  C Energy            :         -4.940090773 Ha           -134.426709480 eV
  Total XC Energy     :       -145.110196045 Ha          -3948.649339461 eV
  ------------------------------------ 
  LDA X and C from self-consistent density 
  X Energy LDA        :       -132.742542322 Ha          -3612.108358624 eV
  C Energy LDA        :         -8.822649091 Ha           -240.076496734 eV
  ------------------------------------ 
  End decomposition of the XC Energy 
  ------------------------------------ 

------------------------------------------------------------

------------------------------------------------------------------------------
  Final output of selected total energy values:

  The following output summarizes some interesting total energy values
  at the end of a run (AFTER all relaxation, molecular dynamics, etc.).

  | Total energy of the DFT / Hartree-Fock s.c.f. calculation      :         -44220.354413738 eV
  | Final zero-broadening corrected energy (caution - metals only) :         -44220.354413738 eV
  | For reference only, the value of 1 Hartree used in FHI-aims is :             27.211384500 eV

  Before relying on these values, please be sure to understand exactly which
  total energy value is referred to by a given number. Different objects may
  all carry the same name 'total energy'. Definitions:

  Total energy of the DFT / Hartree-Fock s.c.f. calculation:
  | Note that this energy does not include ANY quantities calculated after the
  | s.c.f. cycle, in particular not ANY RPA, MP2, etc. many-body perturbation terms.

  Final zero-broadening corrected energy:
  | For metallic systems only, a broadening of the occupation numbers at the Fermi
  | level can be extrapolated back to zero broadening by an electron-gas inspired
  | formula. For all systems that are not real metals, this value can be
  | meaningless and should be avoided.

------------------------------------------------------------------------------
  Methods described in the following list of references were used in this FHI-aims run.
  If you publish the results, please make sure to cite these reference if they apply.
  FHI-aims is an academic code, and for our developers (often, Ph.D. students
  and postdocs), scientific credit in the community is essential.
  Thank you for helping us!

  For any use of FHI-aims, please cite:

    Volker Blum, Ralf Gehrke, Felix Hanke, Paula Havu, Ville Havu,
    Xinguo Ren, Karsten Reuter, and Matthias Scheffler
    'Ab initio molecular simulations with numeric atom-centered orbitals'
    Computer Physics Communications 180, 2175-2196 (2009)
    http://dx.doi.org/10.1016/j.cpc.2009.06.022


  The ELSI infrastructure was used in your run to solve the Kohn-Sham electronic structure.
  Please check out http://elsi-interchange.org to learn more.
  If scalability is important for your project, please acknowledge ELSI by citing:

    V. W-z. Yu, F. Corsetti, A. Garcia, W. P. Huhn, M. Jacquelin, W. Jia,
    B. Lange, L. Lin, J. Lu, W. Mi, A. Seifitokaldani, A. Vazquez-Mayagoitia,
    C. Yang, H. Yang, and V. Blum
    'ELSI: A unified software interface for Kohn-Sham electronic structure solvers'
    Computer Physics Communications 222, 267-285 (2018).
    http://dx.doi.org/10.1016/j.cpc.2017.09.007


  For the real-space grid partitioning and parallelization used in this calculation, please cite:

    Ville Havu, Volker Blum, Paula Havu, and Matthias Scheffler,
    'Efficient O(N) integration for all-electron electronic structure calculation'
    'using numerically tabulated basis functions'
    Journal of Computational Physics 228, 8367-8379 (2009).
    http://dx.doi.org/10.1016/j.jcp.2009.08.008

  Of course, there are many other important community references, e.g., those cited in the
  above references. Our list is limited to references that describe implementations in the
  FHI-aims code. The reason is purely practical (length of this list) - please credit others as well.

------------------------------------------------------------
          Leaving FHI-aims.
          Date     :  20220517, Time     :  120104.002

          Computational steps:
          | Number of self-consistency cycles          :           14
          | Number of SCF (re)initializations          :            1

          Detailed time accounting                     :  max(cpu_time)    wall_clock(cpu1)
          | Total time                                  :        1.965 s           2.045 s
          | Preparation time                            :        0.184 s           0.184 s
          | Boundary condition initalization            :        0.000 s           0.000 s
          | Grid partitioning                           :        0.036 s           0.036 s
          | Preloading free-atom quantities on grid     :        0.015 s           0.016 s
          | Free-atom superposition energy              :        0.005 s           0.004 s
          | Total time for integrations                 :        0.453 s           0.452 s
          | Total time for solution of K.-S. equations  :        0.068 s           0.068 s
          | Total time for density & force components   :        0.638 s           0.639 s
          | Total time for mixing                       :        0.060 s           0.035 s
          | Total time for Hartree multipole update     :        0.018 s           0.020 s
          | Total time for Hartree multipole sum        :        0.305 s           0.304 s
          | Total time for total energy evaluation      :        0.002 s           0.000 s
          | Total time NSC force correction             :        0.063 s           0.065 s
          | Total time for scaled ZORA corrections      :        0.000 s           0.000 s

          Partial memory accounting:
          | Residual value for overall tracked memory usage across tasks:     0.000000 MB (should be 0.000000 MB)
          | Peak values for overall tracked memory usage:
          |   Minimum:        2.928 MB (on task 15 after allocating hessian_basis_wave)
          |   Maximum:        3.163 MB (on task  4 after allocating hessian_basis_wave)
          |   Average:        3.051 MB
          | Largest tracked array allocation:
          |   Minimum:        1.423 MB (hessian_basis_wave on task 15)
          |   Maximum:        1.559 MB (hessian_basis_wave on task  4)
          |   Average:        1.494 MB
          Note:  These values currently only include a subset of arrays which are explicitly tracked.
          The "true" memory usage will be greater.

          Have a nice day.
------------------------------------------------------------
