------------------------------------------------------------
          Invoking FHI-aims ...

          When using FHI-aims, please cite the following reference:

            Volker Blum, Ralf Gehrke, Felix Hanke, Paula Havu,
            Ville Havu, Xinguo Ren, Karsten Reuter, and Matthias Scheffler,
            'Ab Initio Molecular Simulations with Numeric Atom-Centered Orbitals',
            Computer Physics Communications 180, 2175-2196 (2009)

          In addition, many other developments in FHI-aims are likely important for
          your particular application. A partial list of references is given at the end of
          this file. Thank you for giving credit to the authors of these developments.

          For any questions about FHI-aims, please visit our slack channel at

            https://fhi-aims.slack.com

          and our main development and support site at

            https://aims-git.rz-berlin.mpg.de .

          The latter site, in particular, has a wiki to collect information, as well
          as an issue tracker to log discussions, suggest improvements, and report issues
          or bugs. https://aims-git.rz-berlin.mpg.de is also the main development site
          of the project and all new and updated code versions can be obtained there.
          Please send an email to aims-coordinators@fhi-berlin.mpg.de and we will add
          you to these sites. They are for you and everyone is welcome there.

------------------------------------------------------------



  Date     :  20220517, Time     :  111001.597
  Time zero on CPU 1             :   0.407970000000000E-01  s.
  Internal wall clock time zero  :           422017801.597  s.

  FHI-aims created a unique identifier for this run for later identification
  aims_uuid : 5D3ED2E9-DF30-4D1E-A8AB-6EB4E6E9FE07

  Build configuration of the current instance of FHI-aims
  -------------------------------------------------------
  FHI-aims version      : 210914
  Commit number         : GITDIR-NOTFOUND
  CMake host system     : Linux-3.10.0-693.17.1.el7.x86_64
  CMake version         : 3.21.1
  Fortran compiler      : /shared/ucl/apps/intel/2018.Update3/impi/2018.3.222/intel64/bin/mpiifort (Intel) version 18.0.3.20180410
  Fortran compiler flags: -O3 -ip -fp-model precise
  C compiler            : /shared/ucl/apps/intel/2018.Update3/compilers_and_libraries_2018.3.222/linux/bin/intel64/icc (Intel) version 18.0.3.20180410
  C compiler flags      : -O3 -ip -fp-model precise -std=gnu99
  ELPA2 kernel          : AVX2
  Using MPI
  Using ScaLAPACK
  Using LibXC
  Using i-PI
  Using RLSY
  Linking against: /shared/ucl/apps/intel/2019.Update5/compilers_and_libraries_2019.5.281/linux/mkl/lib/intel64/libmkl_intel_lp64.so
                   /shared/ucl/apps/intel/2019.Update5/compilers_and_libraries_2019.5.281/linux/mkl/lib/intel64/libmkl_sequential.so
                   /shared/ucl/apps/intel/2019.Update5/compilers_and_libraries_2019.5.281/linux/mkl/lib/intel64/libmkl_core.so
                   /shared/ucl/apps/intel/2019.Update5/compilers_and_libraries_2019.5.281/linux/mkl/lib/intel64/libmkl_blacs_intelmpi_lp64.so
                   /shared/ucl/apps/intel/2019.Update5/compilers_and_libraries_2019.5.281/linux/mkl/lib/intel64/libmkl_scalapack_lp64.so

  Using       24 parallel tasks.
  Task        0 on host node-k98e-003 reporting.
  Task        1 on host node-k98e-003 reporting.
  Task        2 on host node-k98e-003 reporting.
  Task        3 on host node-k98e-003 reporting.
  Task        4 on host node-k98e-003 reporting.
  Task        5 on host node-k98e-003 reporting.
  Task        6 on host node-k98e-003 reporting.
  Task        7 on host node-k98e-003 reporting.
  Task        8 on host node-k98e-003 reporting.
  Task        9 on host node-k98e-003 reporting.
  Task       10 on host node-k98e-003 reporting.
  Task       11 on host node-k98e-003 reporting.
  Task       12 on host node-k98e-003 reporting.
  Task       13 on host node-k98e-003 reporting.
  Task       14 on host node-k98e-003 reporting.
  Task       15 on host node-k98e-003 reporting.
  Task       16 on host node-k98e-003 reporting.
  Task       17 on host node-k98e-003 reporting.
  Task       18 on host node-k98e-003 reporting.
  Task       19 on host node-k98e-003 reporting.
  Task       20 on host node-k98e-003 reporting.
  Task       21 on host node-k98e-003 reporting.
  Task       22 on host node-k98e-003 reporting.
  Task       23 on host node-k98e-003 reporting.

  Performing system and environment tests:
  | Environment variable OMP_NUM_THREADS correctly set to 1.
  | Checking for ScaLAPACK...
  | Testing pdtran()...
  | All pdtran() tests passed.

  Obtaining array dimensions for all initial allocations:
  
  -----------------------------------------------------------------------
  Parsing control.in (first pass over file, find array dimensions only).
  The contents of control.in will be repeated verbatim below
  unless switched off by setting 'verbatim_writeout .false.' .
  in the first line of control.in .
  -----------------------------------------------------------------------
  
  #########################################################################################  Physical model
  #########################################################################################
  xc                 pbesol
  spin               none
  relativistic       atomic_zora scalar
  charge             0.0
  #  SCF convergence
  occupation_type    gaussian 0.01
  mixer              pulay
  n_max_pulay        10
  charge_mix_param   0.5
  sc_accuracy_rho    1E-5
  sc_accuracy_eev    1E-3
  sc_accuracy_etot   1E-6
  sc_accuracy_forces 1E-4
  sc_iter_limit      1500
  #  Relaxation
  #relax_geometry   bfgs 1.e-3
  
  ################################################################################
  #
  #  FHI-aims code project
  #  VB, Fritz-Haber Institut, 2009
  #
  #  Suggested "light" defaults for Al atom (to be pasted into control.in file)
  #  Be sure to double-check any results obtained with these settings for post-processing,
  #  e.g., with the "tight" defaults and larger basis sets.
  #
  ################################################################################
    species        Al
  #     global species definitions
      nucleus             13
      mass                26.9815386
  #
      l_hartree           4
  #
      cut_pot             3.5          1.5  1.0
      basis_dep_cutoff    1e-4
  #
      radial_base         41 5.0
      radial_multiplier   1
      angular_grids       specified
        division   0.6594  110
        division   0.8170  194
        division   0.9059  302
  #      division   1.0363  434
  #      division   1.1443  590
  #      division   1.2621  770
  #      division   2.8177  974
  #      outer_grid   974
        outer_grid   302
  ################################################################################
  #
  #  Definition of "minimal" basis
  #
  ################################################################################
  #     valence basis states
      valence      3  s   2.
      valence      3  p   1.
  #     ion occupancy
      ion_occ      3  s   1.
      ion_occ      2  p   6.
  ################################################################################
  #
  #  Suggested additional basis functions. For production calculations,
  #  uncomment them one after another (the most important basis functions are
  #  listed first).
  #
  #  Constructed for dimers: 2.0 A, 2.5 A, 3.0 A, 3.75 A, 4.5 A
  #
  ################################################################################
  #  "First tier" - improvements: -199.47 meV to -10.63 meV
       ionic 3 d auto
       ionic 3 p auto
  #     hydro 4 f 4.7
       ionic 3 s auto
  #  "Second tier" - improvements: -5.35 meV to -1.57 meV
  #     hydro 5 g 7
  #     hydro 3 d 6
  #     hydro 2 s 11.6
  #     hydro 2 p 0.9
  #  "Third tier" - improvements: -0.63 meV to -0.20 meV
  #     hydro 5 f 7.6
  #     hydro 4 p 7.2
  #     hydro 4 s 3.7
  #     hydro 4 d 7.6
  #  "Fourth tier" - improvements: -0.17 meV to -0.08 meV
  #     hydro 4 d 13.6
  #     hydro 5 g 11.2
  #     hydro 4 d 0.9
  #     hydro 1 s 0.4
  #     hydro 4 p 0.1
  #     hydro 5 f 9.8
  #  Further basis functions that fell out of the optimization - noise level...
  #     hydro 4 p 5
  
  ################################################################################
  #
  #  FHI-aims code project
  #  VB, Fritz-Haber Institut, 2009
  #
  #  Suggested "light" defaults for F atom (to be pasted into control.in file)
  #  Be sure to double-check any results obtained with these settings for post-processing,
  #  e.g., with the "tight" defaults and larger basis sets.
  #
  ################################################################################
    species        F
  #     global species definitions
      nucleus             9
      mass                18.9984032
  #
      l_hartree           4
  #
      cut_pot             3.5  1.5  1.0
      basis_dep_cutoff    1e-4
  #
      radial_base         37 5.0
      radial_multiplier   1
      angular_grids specified
        division   0.4014  110
        division   0.5291  194
        division   0.6019  302
  #      division   0.6814  434
  #      division   0.7989  590
  #      division   0.8965  770
  #      division   1.3427  974
  #      outer_grid   974
        outer_grid   302
  ################################################################################
  #
  #  Definition of "minimal" basis
  #
  ################################################################################
  #     valence basis states
      valence      2  s   2.
      valence      2  p   5.
  #     ion occupancy
      ion_occ      2  s   1.
      ion_occ      2  p   4.
  ################################################################################
  #
  #  Suggested additional basis functions. For production calculations,
  #  uncomment them one after another (the most important basis functions are
  #  listed first).
  #
  #  Constructed for dimers: 1.2 A, 1.418 A, 1.75 A, 2.25 A, 3.25 A
  #
  ################################################################################
  #  "First tier" - improvements: -149.44 meV to -45.88 meV
       hydro 2 p 1.7
       hydro 3 d 7.4
       hydro 3 s 6.8
  #  "Second tier" - improvements: -12.96 meV to -1.56 meV
  #     hydro 4 f 11.2
  #     ionic 2 p auto
  #     hydro 1 s 0.75
  #     hydro 4 d 8.8
  #     hydro 5 g 16.8
  #  "Third tier" - improvements: -0.58 meV to -0.05 meV
  #     hydro 3 p 6.2
  #     hydro 3 s 3.2
  #     hydro 4 f 9.6
  #     hydro 3 s 19.6
  #     hydro 4 d 8.6
  #     hydro 5 g 14.4
  # Further basis functions: -0.05 meV and below
  #     hydro 3 p 4.2
  
  -----------------------------------------------------------------------
  Completed first pass over input file control.in .
  -----------------------------------------------------------------------
  
  
  -----------------------------------------------------------------------
  Parsing geometry.in (first pass over file, find array dimensions only).
  The contents of geometry.in will be repeated verbatim below
  unless switched off by setting 'verbatim_writeout .false.' .
  in the first line of geometry.in .
  -----------------------------------------------------------------------
  
  atom 1.231874262 0.108143716 2.470667437 Al
  atom 1.318515000 1.140572600 -0.105142600 Al
  atom -0.369854785 0.894984564 -2.295417873 Al
  atom -1.639750204 -0.405826344 -2.235026677 F
  atom 2.059127992 -0.360833154 0.809412113 F
  atom 0.078503184 1.786932854 -3.813036794 F
  atom -0.340213026 1.945373881 -0.719031695 F
  atom 2.573230953 2.438027509 -0.312613644 F
  atom 1.227166223 0.047862528 -1.666160377 F
  atom 0.428600871 1.567696823 1.568643902 F
  atom 2.572834930 0.561606619 3.609069409 F
  atom 0.051362959 -1.236577059 2.797024586 F
  
  -----------------------------------------------------------------------
  Completed first pass over input file geometry.in .
  -----------------------------------------------------------------------
  

  Basic array size parameters:
  | Number of species                 :        2
  | Number of atoms                   :       12
  | Max. basis fn. angular momentum   :        2
  | Max. atomic/ionic basis occupied n:        3
  | Max. number of basis fn. types    :        3
  | Max. radial fns per species/type  :        5
  | Max. logarithmic grid size        :     1340
  | Max. radial integration grid size :       41
  | Max. angular integration grid size:      302
  | Max. angular grid division number :        8
  | Radial grid for Hartree potential :     1340
  | Number of spin channels           :        1

------------------------------------------------------------
          Reading file control.in.
------------------------------------------------------------
  XC: Using PBEsol gradient-corrected functionals.
  Spin treatment: No spin polarisation.
  Scalar relativistic treatment of kinetic energy: on-site free-atom approximation to ZORA.
  Charge =   0.000000E+00: Neutral system requested explicitly.
  Occupation type: Gaussian broadening, width =   0.100000E-01 eV.
  Using pulay charge density mixing.
  Pulay mixing - number of memorized iterations:   10
  Charge density mixing - mixing parameter:     0.5000
  Convergence accuracy of self-consistent charge density:  0.1000E-04
  Convergence accuracy of sum of eigenvalues:  0.1000E-02
  Convergence accuracy of total energy:  0.1000E-05
  Convergence accuracy of forces:  0.1000E-03
  Maximum number of s.-c. iterations  :  1500
 
  Reading configuration options for species Al                  .
  | Found nuclear charge :  13.0000
  | Found atomic mass :    26.9815386000000      amu
  | Found l_max for Hartree potential  :   4
  | Found cutoff potl. onset [A], width [A], scale factor :    3.50000    1.50000    1.00000
  | Threshold for basis-dependent cutoff potential is   0.100000E-03
  | Found data for basic radial integration grid :    41 points, outermost radius =    5.000 A
  | Found multiplier for basic radial grid :   1
  | Found angular grid specification: user-specified.
  | Specified grid contains     4 separate shells.
  | Check grid settings after all constraints further below.
  | Found free-atom valence shell :  3 s   2.000
  | Found free-atom valence shell :  3 p   1.000
  | Found free-ion valence shell :  3 s   1.000
  | Found free-ion valence shell :  2 p   6.000
  | Found ionic basis function :  3 d , default cutoff radius.
  | Found ionic basis function :  3 p , default cutoff radius.
  | Found ionic basis function :  3 s , default cutoff radius.
  Species Al                  : Missing cutoff potential type.
  Defaulting to exp(1/x)/(1-x)^2 type cutoff potential.
  Species Al: No 'logarithmic' tag. Using default grid for free atom:
  | Default logarithmic grid data [bohr] : 0.1000E-03 0.1000E+03 0.1012E+01
  | Will include ionic basis functions of  2.0-fold positive Al                   ion.
  Species Al: On-site basis accuracy parameter (for Gram-Schmidt orthonormalisation) not specified.
  Using default value basis_acc =  0.1000000E-03.
  Species Al                  : Using default innermost maximum threshold i_radial=  2 for radial functions.
  Species Al                  : Default cutoff onset for free atom density etc. : 0.35000000E+01 AA.
  Species Al                  : Basic radial grid will be enhanced according to radial_multiplier =   1, to contain    41 grid points.
 
  Reading configuration options for species F                   .
  | Found nuclear charge :   9.0000
  | Found atomic mass :    18.9984032000000      amu
  | Found l_max for Hartree potential  :   4
  | Found cutoff potl. onset [A], width [A], scale factor :    3.50000    1.50000    1.00000
  | Threshold for basis-dependent cutoff potential is   0.100000E-03
  | Found data for basic radial integration grid :    37 points, outermost radius =    5.000 A
  | Found multiplier for basic radial grid :   1
  | Found angular grid specification: user-specified.
  | Specified grid contains     4 separate shells.
  | Check grid settings after all constraints further below.
  | Found free-atom valence shell :  2 s   2.000
  | Found free-atom valence shell :  2 p   5.000
  | Found free-ion valence shell :  2 s   1.000
  | Found free-ion valence shell :  2 p   4.000
  | Found hydrogenic basis function :  2 p   1.700
  | Found hydrogenic basis function :  3 d   7.400
  | Found hydrogenic basis function :  3 s   6.800
  Species F                   : Missing cutoff potential type.
  Defaulting to exp(1/x)/(1-x)^2 type cutoff potential.
  Species F : No 'logarithmic' tag. Using default grid for free atom:
  | Default logarithmic grid data [bohr] : 0.1000E-03 0.1000E+03 0.1012E+01
  Species F : On-site basis accuracy parameter (for Gram-Schmidt orthonormalisation) not specified.
  Using default value basis_acc =  0.1000000E-03.
  Species F                   : Using default innermost maximum threshold i_radial=  2 for radial functions.
  Species F                   : Default cutoff onset for free atom density etc. : 0.35000000E+01 AA.
  Species F                   : Basic radial grid will be enhanced according to radial_multiplier =   1, to contain    37 grid points.
 
  Finished reading input file 'control.in'.
 
------------------------------------------------------------


------------------------------------------------------------
          Reading geometry description geometry.in.
------------------------------------------------------------
  | The smallest distance between any two atoms is         1.81652503 AA.
  | The first atom of this pair is atom number                      1 .
  | The second atom of this pair is atom number                    11 .
  Input structure read successfully.
  The structure contains       12 atoms,  and a total of        120.000 electrons.

  Input geometry:
  | No unit cell requested.
  | Atomic structure:
  |       Atom                x [A]            y [A]            z [A]
  |    1: Species Al            1.23187426        0.10814372        2.47066744
  |    2: Species Al            1.31851500        1.14057260       -0.10514260
  |    3: Species Al           -0.36985479        0.89498456       -2.29541787
  |    4: Species F            -1.63975020       -0.40582634       -2.23502668
  |    5: Species F             2.05912799       -0.36083315        0.80941211
  |    6: Species F             0.07850318        1.78693285       -3.81303679
  |    7: Species F            -0.34021303        1.94537388       -0.71903169
  |    8: Species F             2.57323095        2.43802751       -0.31261364
  |    9: Species F             1.22716622        0.04786253       -1.66616038
  |   10: Species F             0.42860087        1.56769682        1.56864390
  |   11: Species F             2.57283493        0.56160662        3.60906941
  |   12: Species F             0.05136296       -1.23657706        2.79702459

 
  Finished reading input file 'control.in'.
 

------------------------------------------------------------
          Reading geometry description geometry.in.
------------------------------------------------------------
 
  Consistency checks for stacksize environment parameter are next.
 
  | Maximum stacksize for task 0: unlimited
  | Maximum stacksize for task 1: unlimited
  | Maximum stacksize for task 2: unlimited
  | Maximum stacksize for task 3: unlimited
  | Maximum stacksize for task 4: unlimited
  | Maximum stacksize for task 5: unlimited
  | Maximum stacksize for task 6: unlimited
  | Maximum stacksize for task 7: unlimited
  | Maximum stacksize for task 8: unlimited
  | Maximum stacksize for task 9: unlimited
  | Maximum stacksize for task 10: unlimited
  | Maximum stacksize for task 11: unlimited
  | Maximum stacksize for task 12: unlimited
  | Maximum stacksize for task 13: unlimited
  | Maximum stacksize for task 14: unlimited
  | Maximum stacksize for task 15: unlimited
  | Maximum stacksize for task 16: unlimited
  | Maximum stacksize for task 17: unlimited
  | Maximum stacksize for task 18: unlimited
  | Maximum stacksize for task 19: unlimited
  | Maximum stacksize for task 20: unlimited
  | Maximum stacksize for task 21: unlimited
  | Maximum stacksize for task 22: unlimited
  | Maximum stacksize for task 23: unlimited
  | Current stacksize for task 0: unlimited
  | Current stacksize for task 1: unlimited
  | Current stacksize for task 2: unlimited
  | Current stacksize for task 3: unlimited
  | Current stacksize for task 4: unlimited
  | Current stacksize for task 5: unlimited
  | Current stacksize for task 6: unlimited
  | Current stacksize for task 7: unlimited
  | Current stacksize for task 8: unlimited
  | Current stacksize for task 9: unlimited
  | Current stacksize for task 10: unlimited
  | Current stacksize for task 11: unlimited
  | Current stacksize for task 12: unlimited
  | Current stacksize for task 13: unlimited
  | Current stacksize for task 14: unlimited
  | Current stacksize for task 15: unlimited
  | Current stacksize for task 16: unlimited
  | Current stacksize for task 17: unlimited
  | Current stacksize for task 18: unlimited
  | Current stacksize for task 19: unlimited
  | Current stacksize for task 20: unlimited
  | Current stacksize for task 21: unlimited
  | Current stacksize for task 22: unlimited
  | Current stacksize for task 23: unlimited
 
  Consistency checks for the contents of control.in are next.
 
  MPI_IN_PLACE appears to work with this MPI implementation.
  | Keeping use_mpi_in_place .true. (see manual).
  Target number of points in a grid batch is not set. Defaulting to  100
  Method for grid partitioning is not set. Defaulting to parallel hash+maxmin partitioning.
  Batch size limit is not set. Defaulting to    200
  By default, will store active basis functions for each batch.
  If in need of memory, prune_basis_once .false. can be used to disable this option.
  communication_type for Hartree potential was not specified.
  Defaulting to calc_hartree .
  Pulay mixer: Number of initial linear mixing iterations not set.
  Defaulting to    0 iterations.
  Work space size for distributed Hartree potential not set.
  Defaulting to   0.200000E+03 MB.
  Algorithm-dependent basis array size parameters:
  | n_max_pulay                         :       10
  Presetting      1001 iterations before the initial mixing cycle
  is restarted anyway using the sc_init_iter criterion / keyword.
  Presetting a factor      1.000 between actual scf density residual
  and density convergence criterion sc_accuracy_rho below which sc_init_iter
  takes no effect.
  Geometry relaxation not requested: no relaxation will be performed.
  Forces evaluation will include force correction term due to incomplete self-consistency (default).
  Handling of forces: Unphysical translation and rotation will be removed from forces.
  No accuracy limit for integral partition fn. given. Defaulting to  0.1000E-14.
  No threshold value for u(r) in integrations given. Defaulting to  0.1000E-05.
  No accuracy for occupation numbers given. Defaulting to  0.1000E-12.
  No threshold value for occupation numbers given. Defaulting to  0.0000E+00.
  No accuracy for fermi level given. Defaulting to  0.1000E-19.
  Maximum # of iterations to find E_F not set. Defaulting to  200.
  Preferred method for the eigenvalue solver ('KS_method') not specified in 'control.in'.
  Calling BLACS routine to test compilation state
  Since ScaLAPACK support is enabled, defaulting to ELPA (via ELSI).
  Will not use alltoall communication since running on < 1024 CPUs.
  Threshold for basis singularities not set.
  Default threshold for basis singularities:  0.1000E-04
  partition_type (choice of integration weights) for integrals was not specified.
  | Using a version of the partition function of Stratmann and coworkers ('stratmann_sparse').
  | At each grid point, the set of atoms used to build the partition table is smoothly restricted to
  | only those atoms whose free-atom density would be non-zero at that grid point.
  Partitioning for Hartree potential was not defined. Using partition_type for integrals.
  | Adjusted default value of keyword multip_moments_threshold to:       0.10000000E-11
  | This value may affect high angular momentum components of the Hartree potential in periodic systems.
  No q(lm)/r^(l+1) cutoff set for long-range Hartree potential.
  | Using default value of  0.100000E-09 .
  | Verify using the multipole_threshold keyword.
  Defaulting to new monopole extrapolation.
  Density update method: automatic selection selected.
  Charge integration errors on the 3D integration grid will be compensated
  by explicit normalization and distribution of residual charges.
  Use the "compensate_multipole_errors" flag to change this behaviour.
  Set 'collect_eigenvectors' to be '.true.' for use_density_matrix .false.
 
  Consistency checks for the contents of geometry.in are next.
 
  Number of empty states per atom not set in control.in - providing a guess from actual geometry.
  | Total number of empty states used during s.c.f. cycle:       36
  If you use a very high smearing, use empty_states (per atom!) in control.in to increase this value.

  Structure-dependent array size parameters: 
  | Maximum number of distinct radial functions  :       14
  | Maximum number of basis functions            :      180
  | Number of Kohn-Sham states (occupied + empty):       96
------------------------------------------------------------

------------------------------------------------------------
          Preparing all fixed parts of the calculation.
------------------------------------------------------------
  Determining machine precision:
    2.225073858507201E-308
  Setting up grids for atomic and cluster calculations.

  Creating wave function, potential, and density for free atoms.

  Species: Al

  List of occupied orbitals and eigenvalues:
    n    l              occ      energy [Ha]    energy [eV]
    1    0           2.0000       -55.621123     -1513.5278
    2    0           2.0000        -3.957030      -107.6763
    3    0           2.0000        -0.272233        -7.4078
    2    1           6.0000        -2.540949       -69.1427
    3    1           1.0000        -0.083300        -2.2667


  Species: F

  List of occupied orbitals and eigenvalues:
    n    l              occ      energy [Ha]    energy [eV]
    1    0           2.0000       -24.399611      -663.9472
    2    0           2.0000        -1.098702       -29.8972
    2    1           5.0000        -0.408210       -11.1080


  Adding cutoff potential to free-atom effective potential.
  Creating fixed part of basis set: Ionic, confined, hydrogenic.
 
  Al                   ion:

  List of free ionic orbitals and eigenvalues:
    n    l      energy [Ha]    energy [eV]
    1    0       -56.418846     -1535.2349
    2    0        -4.732717      -128.7838
    3    0        -0.872690       -23.7471
    2    1        -3.317230       -90.2664


  List of ionic basis orbitals and eigenvalues:
    n    l      energy [Ha]    energy [eV]    outer radius [A]
    3    2        -0.346815        -9.4373       4.594041
    3    1        -0.631870       -17.1940       4.538221
    3    0        -0.872657       -23.7462       4.538221

 
  F                    hydrogenic:
 
  List of hydrogenic basis orbitals: 
    n    l      effective z      eigenvalue [eV]  inner max. [A]     outer max. [A]     outer radius [A]   
    2    1         1.700000        -9.7616           1.243167           1.243167           4.598524
    3    2         7.400000       -82.7828           0.642437           0.642437           3.305741
    3    0         6.800000       -69.9026           0.057798           1.022307           3.781556
 
  Creating atomic-like basis functions for current effective potential.

  Species Al                  :

  List of atomic basis orbitals and eigenvalues:
    n    l      energy [Ha]    energy [eV]    outer radius [A]
    1    0       -55.621123     -1513.5278       0.850197
    2    0        -3.957030      -107.6763       3.144911
    3    0        -0.272233        -7.4078       4.594041
    2    1        -2.540949       -69.1427       3.731966
    3    1        -0.083300        -2.2667       4.594041


  Species F                   :

  List of atomic basis orbitals and eigenvalues:
    n    l      energy [Ha]    energy [eV]    outer radius [A]
    1    0       -24.399611      -663.9472       1.258458
    2    0        -1.098702       -29.8972       4.325857
    2    1        -0.408210       -11.1080       4.487453

  Assembling full basis from fixed parts.
  | Species Al :   atomic orbital   1 s accepted.
  | Species Al :   atomic orbital   2 s accepted.
  | Species Al :    ionic orbital   3 s accepted.
  | Species Al :   atomic orbital   3 s accepted.
  | Species Al :   atomic orbital   2 p accepted.
  | Species Al :    ionic orbital   3 p accepted.
  | Species Al :   atomic orbital   3 p accepted.
  | Species Al :    ionic orbital   3 d accepted.
  | Species F :   atomic orbital   1 s accepted.
  | Species F :    hydro orbital   3 s accepted.
  | Species F :   atomic orbital   2 s accepted.
  | Species F :   atomic orbital   2 p accepted.
  | Species F :    hydro orbital   2 p accepted.
  | Species F :    hydro orbital   3 d accepted.
 
  Basis size parameters after reduction:
  | Total number of radial functions:       14
  | Total number of basis functions :      180
 
  Per-task memory consumption for arrays in subroutine allocate_ext:
  |           4.807768MB.
  Testing on-site integration grid accuracy.
  |  Species  Function  <phi|h_atom|phi> (log., in eV)  <phi|h_atom|phi> (rad., in eV)
           1        1              -1513.5277717935              -1513.5271881332
           1        2               -107.6762691836               -107.6762662489
           1        3                 -6.9467474784                 -6.9471269649
           1        4                  5.5771951849                  5.4862107220 ***
           1        5                -69.1427313144                -69.1427312731
           1        6                 -1.5197375330                 -1.5230432022
           1        7                  6.8210948310                  6.5529872240 ***
           1        8                  4.3216540965                  4.2851170187 ***
           2        9               -663.9471986398               -663.9470363334
           2       10                 16.8514011578                 16.8512525338
           2       11                -28.4490593856                -28.4490661472
           2       12                -11.1080115307                -11.1080620173
           2       13                  7.1940182175                  7.1685154137
           2       14                 44.8544281765                 44.8543763625
 * Note: Onsite integrals marked "***" above are less accurate than
 * onsite_accuracy_threshold =    0.03000 eV. Usually, this is harmless.
 * When in doubt, tighten the "radial" and/or "radial_multiplier" flags to check.

  Preparing densities etc. for the partition functions (integrals / Hartree potential).

  Preparations completed.
  max(cpu_time)          :      0.184 s.
  Wall clock time (cpu1) :      0.184 s.
------------------------------------------------------------

------------------------------------------------------------
          Begin self-consistency loop: Initialization.

          Date     :  20220517, Time     :  111001.826
------------------------------------------------------------

  Initializing index lists of integration centers etc. from given atomic structure:
  | Number of centers in hartree potential         :        12
  | Number of centers in hartree multipole         :        12
  | Number of centers in electron density summation:        12
  | Number of centers in basis integrals           :        12
  | Number of centers in integrals                 :        12
  | Number of centers in hamiltonian               :        12
  * Using 24 tasks for Scalapack Eigenvalue solver.
  Detailed listing of tasks and assigned k-points:
  (for non-periodic systems, the "k-point" denotes an internal label only)
   Task     0 k-point     1 on node-k98e-003
   Task     1 k-point     1 on node-k98e-003
   Task     2 k-point     1 on node-k98e-003
   Task     3 k-point     1 on node-k98e-003
   Task     4 k-point     1 on node-k98e-003
   Task     5 k-point     1 on node-k98e-003
   Task     6 k-point     1 on node-k98e-003
   Task     7 k-point     1 on node-k98e-003
   Task     8 k-point     1 on node-k98e-003
   Task     9 k-point     1 on node-k98e-003
   Task    10 k-point     1 on node-k98e-003
   Task    11 k-point     1 on node-k98e-003
   Task    12 k-point     1 on node-k98e-003
   Task    13 k-point     1 on node-k98e-003
   Task    14 k-point     1 on node-k98e-003
   Task    15 k-point     1 on node-k98e-003
   Task    16 k-point     1 on node-k98e-003
   Task    17 k-point     1 on node-k98e-003
   Task    18 k-point     1 on node-k98e-003
   Task    19 k-point     1 on node-k98e-003
   Task    20 k-point     1 on node-k98e-003
   Task    21 k-point     1 on node-k98e-003
   Task    22 k-point     1 on node-k98e-003
   Task    23 k-point     1 on node-k98e-003
  Tasks:    24 split into      6 X      4 BLACS grid
  Calculating block size based on n_basis =          180  max_nprow =            6  max_npcol =            4
  ScaLAPACK block size set to:           16
  Allocating        0.012 MB for ovlp
  Allocating        0.012 MB for ham
  Allocating        0.012 MB for eigenvec
  Required Scalapack workspace - INTEGER:            1  REAL:             1
  Partitioning the integration grid into batches with parallel hashing+maxmin method.
  | Number of batches:     1076
  | Maximal batch size:     193
  | Minimal batch size:      19
  | Average batch size:      85.428
  | Standard deviation of batch sizes:      25.528

  Integration load balanced across    24 MPI tasks.
  Work distribution over tasks is as follows:
  Task     0 has       3840 integration points.
  Task     1 has       3783 integration points.
  Task     2 has       3837 integration points.
  Task     3 has       3838 integration points.
  Task     4 has       3869 integration points.
  Task     5 has       3834 integration points.
  Task     6 has       3793 integration points.
  Task     7 has       3851 integration points.
  Task     8 has       3784 integration points.
  Task     9 has       3793 integration points.
  Task    10 has       3822 integration points.
  Task    11 has       3801 integration points.
  Task    12 has       3835 integration points.
  Task    13 has       3874 integration points.
  Task    14 has       3842 integration points.
  Task    15 has       3776 integration points.
  Task    16 has       3887 integration points.
  Task    17 has       3850 integration points.
  Task    18 has       3891 integration points.
  Task    19 has       3841 integration points.
  Task    20 has       3846 integration points.
  Task    21 has       3779 integration points.
  Task    22 has       3813 integration points.
  Task    23 has       3841 integration points.
  Initializing partition tables, free-atom densities, potentials, etc. across the integration grid (initialize_grid_storage).
  | initialize_grid_storage: Actual outermost partition radius vs. multipole_radius_free
  | (-- VB: in principle, multipole_radius_free should be larger, hence this output)
  | Species        1: Confinement radius =              4.999999999999999 AA, multipole_radius_free =              5.004487022111096 AA.
  | Species        1: outer_partition_radius set to              5.004487022111096 AA .
  | Species        2: Confinement radius =              4.999999999999999 AA, multipole_radius_free =              5.009370088163274 AA.
  | Species        2: outer_partition_radius set to              5.009370088163274 AA .
  | The sparse table of interatomic distances needs          1.64 kbyte instead of         1.15 kbyte of memory.
  | Using the partition_type stratmann_smoother will reduce your memory usage.
  | Net number of integration points:    91920
  | of which are non-zero points    :    85881
  Renormalizing the initial density to the exact electron count on the 3D integration grid.
  | Initial density: Formal number of electrons (from input files) :     120.0000000000
  | Integrated number of electrons on 3D grid     :     119.9999092937
  | Charge integration error                      :      -0.0000907063
  | Normalization factor for density and gradient :       1.0000007559
  Renormalizing the free-atom superposition density to the exact electron count on the 3D integration grid.
  | Formal number of electrons (from input files) :     120.0000000000
  | Integrated number of electrons on 3D grid     :     119.9999092937
  | Charge integration error                      :      -0.0000907063
  | Normalization factor for density and gradient :       1.0000007559
  Obtaining max. number of non-zero basis functions in each batch (get_n_compute_maxes).
  | Maximal number of non-zero basis functions:      166 in task     0
  | Maximal number of non-zero basis functions:      163 in task     1
  | Maximal number of non-zero basis functions:      160 in task     2
  | Maximal number of non-zero basis functions:      160 in task     3
  | Maximal number of non-zero basis functions:      165 in task     4
  | Maximal number of non-zero basis functions:      164 in task     5
  | Maximal number of non-zero basis functions:      165 in task     6
  | Maximal number of non-zero basis functions:      159 in task     7
  | Maximal number of non-zero basis functions:      166 in task     8
  | Maximal number of non-zero basis functions:      164 in task     9
  | Maximal number of non-zero basis functions:      161 in task    10
  | Maximal number of non-zero basis functions:      156 in task    11
  | Maximal number of non-zero basis functions:      164 in task    12
  | Maximal number of non-zero basis functions:      157 in task    13
  | Maximal number of non-zero basis functions:      165 in task    14
  | Maximal number of non-zero basis functions:      163 in task    15
  | Maximal number of non-zero basis functions:      158 in task    16
  | Maximal number of non-zero basis functions:      159 in task    17
  | Maximal number of non-zero basis functions:      165 in task    18
  | Maximal number of non-zero basis functions:      158 in task    19
  | Maximal number of non-zero basis functions:      163 in task    20
  | Maximal number of non-zero basis functions:      159 in task    21
  | Maximal number of non-zero basis functions:      159 in task    22
  | Maximal number of non-zero basis functions:      159 in task    23
  Selecting the method for density update.
  Loop over occupied states selected for charge density update.
  Allocating        0.132 MB for KS_eigenvector
  Integrating Hamiltonian matrix: batch-based integration.
  Time summed over all CPUs for integration: real work        0.686 s, elapsed        0.722 s
  Integrating overlap matrix.
  Time summed over all CPUs for integration: real work        0.263 s, elapsed        0.283 s
  Deallocating overlap matrix.

  Updating Kohn-Sham eigenvalues and eigenvectors using ELSI and the ELPA eigensolver.
  Overlap matrix is not singular
  | Lowest and highest eigenvalues :  0.3454E-02,  0.4864E+01
  Finished singularity check of overlap matrix
  | Time :     0.003 s
  Starting ELPA eigensolver
  Finished Cholesky decomposition
  | Time :     0.002 s
  Finished transformation to standard eigenproblem
  | Time :     0.001 s
  Finished solving standard eigenproblem
  | Time :     0.004 s
  Finished back-transformation of eigenvectors
  | Time :     0.000 s

  Obtaining occupation numbers and chemical potential using ELSI.
  | Chemical potential (Fermi level):    -7.59957401 eV
  Writing Kohn-Sham eigenvalues.

  State    Occupation    Eigenvalue [Ha]    Eigenvalue [eV]
      1       2.00000         -55.485716        -1509.84314
      2       2.00000         -55.483954        -1509.79522
      3       2.00000         -55.483954        -1509.79521
      4       2.00000         -24.360201         -662.87479
      5       2.00000         -24.360200         -662.87478
      6       2.00000         -24.359003         -662.84219
      7       2.00000         -24.359002         -662.84218
      8       2.00000         -24.340504         -662.33882
      9       2.00000         -24.340504         -662.33882
     10       2.00000         -24.340486         -662.33833
     11       2.00000         -24.340230         -662.33137
     12       2.00000         -24.340230         -662.33136
     13       2.00000          -3.951366         -107.52215
     14       2.00000          -3.949018         -107.45824
     15       2.00000          -3.949017         -107.45822
     16       2.00000          -2.543914          -69.22342
     17       2.00000          -2.543183          -69.20354
     18       2.00000          -2.542687          -69.19002
     19       2.00000          -2.541446          -69.15626
     20       2.00000          -2.541438          -69.15604
     21       2.00000          -2.541358          -69.15388
     22       2.00000          -2.541349          -69.15363
     23       2.00000          -2.539800          -69.11147
     24       2.00000          -2.539800          -69.11147
     25       2.00000          -1.190905          -32.40617
     26       2.00000          -1.181071          -32.13859
     27       2.00000          -1.178388          -32.06557
     28       2.00000          -1.169738          -31.83019
     29       2.00000          -1.149908          -31.29058
     30       2.00000          -1.149748          -31.28623
     31       2.00000          -1.148839          -31.26150
     32       2.00000          -1.147524          -31.22572
     33       2.00000          -1.147516          -31.22551
     34       2.00000          -0.556357          -15.13924
     35       2.00000          -0.549488          -14.95233
     36       2.00000          -0.538685          -14.65837
     37       2.00000          -0.533308          -14.51204
     38       2.00000          -0.515412          -14.02509
     39       2.00000          -0.504385          -13.72502
     40       2.00000          -0.496576          -13.51252
     41       2.00000          -0.495215          -13.47549
     42       2.00000          -0.492998          -13.41517
     43       2.00000          -0.486824          -13.24715
     44       2.00000          -0.484834          -13.19300
     45       2.00000          -0.482851          -13.13904
     46       2.00000          -0.480411          -13.07265
     47       2.00000          -0.476321          -12.96136
     48       2.00000          -0.475706          -12.94461
     49       2.00000          -0.472246          -12.85046
     50       2.00000          -0.465199          -12.65871
     51       2.00000          -0.455118          -12.38440
     52       2.00000          -0.454502          -12.36762
     53       2.00000          -0.453270          -12.33410
     54       2.00000          -0.451452          -12.28462
     55       2.00000          -0.450637          -12.26246
     56       2.00000          -0.449943          -12.24357
     57       2.00000          -0.448163          -12.19513
     58       2.00000          -0.447724          -12.18320
     59       2.00000          -0.447208          -12.16916
     60       2.00000          -0.446044          -12.13748
     61       0.00000          -0.137011           -3.72825
     62       0.00000          -0.108820           -2.96114
     63       0.00000          -0.064333           -1.75059
     64       0.00000          -0.027517           -0.74879
     65       0.00000          -0.017858           -0.48594
     66       0.00000          -0.010543           -0.28688
     67       0.00000          -0.000528           -0.01437
     68       0.00000           0.038700            1.05309
     69       0.00000           0.044718            1.21684
     70       0.00000           0.068367            1.86036
     71       0.00000           0.082000            2.23133
     72       0.00000           0.119032            3.23903
     73       0.00000           0.143797            3.91291
     74       0.00000           0.153149            4.16740
     75       0.00000           0.171746            4.67345
     76       0.00000           0.173534            4.72209
     77       0.00000           0.176987            4.81607
     78       0.00000           0.180381            4.90842
     79       0.00000           0.190909            5.19489
     80       0.00000           0.202949            5.52253
     81       0.00000           0.205882            5.60234
     82       0.00000           0.215370            5.86052
     83       0.00000           0.224720            6.11495
     84       0.00000           0.232936            6.33851
     85       0.00000           0.250980            6.82951
     86       0.00000           0.264447            7.19596
     87       0.00000           0.270555            7.36218
     88       0.00000           0.273549            7.44363
     89       0.00000           0.283280            7.70845
     90       0.00000           0.288603            7.85329
     91       0.00000           0.297105            8.08464
     92       0.00000           0.304246            8.27895
     93       0.00000           0.337595            9.18643
     94       0.00000           0.346057            9.41669
     95       0.00000           0.363585            9.89364
     96       0.00000           0.375343           10.21359

  Highest occupied state (VBM) at    -12.13748328 eV
  | Occupation number:      2.00000000

  Lowest unoccupied state (CBM) at    -3.72824675 eV
  | Occupation number:      0.00000000

  Overall HOMO-LUMO gap:      8.40923653 eV.
  Calculating total energy contributions from superposition of free atom densities.

  Total energy components:
  | Sum of eigenvalues            :        -887.58575395 Ha      -24152.43722754 eV
  | XC energy correction          :        -144.33473912 Ha       -3927.54808277 eV
  | XC potential correction       :         187.93152235 Ha        5113.87691424 eV
  | Free-atom electrostatic energy:        -781.37337226 Ha      -21262.25127061 eV
  | Hartree energy correction     :           0.00000000 Ha           0.00000000 eV
  | Entropy correction            :           0.00000000 Ha           0.00000000 eV
  | ---------------------------
  | Total energy                  :       -1625.36234298 Ha      -44228.35966668 eV
  | Total energy, T -> 0          :       -1625.36234298 Ha      -44228.35966668 eV  <-- do not rely on this value for anything but (periodic) metals
  | Electronic free energy        :       -1625.36234298 Ha      -44228.35966668 eV

  Derived energy quantities:
  | Kinetic energy                :        1627.60947995 Ha       44289.50737466 eV
  | Electrostatic energy          :       -3108.63708381 Ha      -84590.31895857 eV
  | Energy correction for multipole
  | error in Hartree potential    :           0.00000000 Ha           0.00000000 eV
  | Sum of eigenvalues per atom                           :       -2012.70310230 eV
  | Total energy (T->0) per atom                          :       -3685.69663889 eV  <-- do not rely on this value for anything but (periodic) metals
  | Electronic free energy per atom                       :       -3685.69663889 eV
  Initialize hartree_potential_storage
  Max. number of atoms included in rho_multipole:           12

  End scf initialization - timings             :  max(cpu_time)    wall_clock(cpu1)
  | Time for scf. initialization                :        0.110 s           0.111 s
  | Boundary condition initialization           :        0.000 s           0.000 s
  | Integration                                 :        0.044 s           0.044 s
  | Solution of K.-S. eqns.                     :        0.011 s           0.012 s
  | Grid partitioning                           :        0.033 s           0.033 s
  | Preloading free-atom quantities on grid     :        0.015 s           0.015 s
  | Free-atom superposition energy              :        0.005 s           0.005 s
  | Total energy evaluation                     :        0.000 s           0.000 s

  Partial memory accounting:
  | Current value for overall tracked memory usage:
  |   Minimum:        0.273 MB (on task 23)
  |   Maximum:        0.292 MB (on task  0)
  |   Average:        0.287 MB
  | Peak value for overall tracked memory usage:
  |   Minimum:        1.286 MB (on task 11 after allocating wave)
  |   Maximum:        1.363 MB (on task  0 after allocating wave)
  |   Average:        1.329 MB
  | Largest tracked array allocation so far:
  |   Minimum:        0.230 MB (H_times_psi on task 11)
  |   Maximum:        0.431 MB (all_coords on task 10)
  |   Average:        0.262 MB
  Note:  These values currently only include a subset of arrays which are explicitly tracked.
  The "true" memory usage will be greater.
------------------------------------------------------------
  Evaluating new KS density.
  Integration grid: deviation in total charge (<rho> - N_e) =  -1.421085E-14

  Time for density update prior                :  max(cpu_time)    wall_clock(cpu1)
  | self-consistency iterative process          :        0.027 s           0.028 s

------------------------------------------------------------
          Begin self-consistency iteration #    1

  Date     :  20220517, Time     :  111001.965
------------------------------------------------------------
  Pulay mixing of updated and previous charge densities.
  Renormalizing the density to the exact electron count on the 3D integration grid.
  | Formal number of electrons (from input files) :     120.0000000000
  | Integrated number of electrons on 3D grid     :     120.0000000000
  | Charge integration error                      :      -0.0000000000
  | Normalization factor for density and gradient :       1.0000000000

  Evaluating partitioned Hartree potential by multipole expansion.
  | Original multipole sum: apparent total charge =  -0.535247E-13
  | Sum of charges compensated after spline to logarithmic grids =   0.104283E-03
  | Analytical far-field extrapolation by fixed multipoles:
  | Hartree multipole sum: apparent total charge =  -0.541396E-13
  Summing up the Hartree potential.
  Time summed over all CPUs for potential: real work        0.381 s, elapsed        0.396 s
  | RMS charge density error from multipole expansion :   0.107009E-01

  Integrating Hamiltonian matrix: batch-based integration.
  Time summed over all CPUs for integration: real work        0.637 s, elapsed        0.683 s

  Updating Kohn-Sham eigenvalues and eigenvectors using ELSI and the ELPA eigensolver.
  Starting ELPA eigensolver
  Finished transformation to standard eigenproblem
  | Time :     0.000 s
  Finished solving standard eigenproblem
  | Time :     0.004 s
  Finished back-transformation of eigenvectors
  | Time :     0.000 s

  Obtaining occupation numbers and chemical potential using ELSI.
  | Chemical potential (Fermi level):    -7.70652788 eV
  Writing Kohn-Sham eigenvalues.

  State    Occupation    Eigenvalue [Ha]    Eigenvalue [eV]
      1       2.00000         -55.656421        -1514.48827
      2       2.00000         -55.641684        -1514.08725
      3       2.00000         -55.641683        -1514.08723
      4       2.00000         -24.227524         -659.26446
      5       2.00000         -24.227517         -659.26429
      6       2.00000         -24.226300         -659.23118
      7       2.00000         -24.226296         -659.23106
      8       2.00000         -24.073147         -655.06367
      9       2.00000         -24.073142         -655.06354
     10       2.00000         -24.071114         -655.00833
     11       2.00000         -24.071113         -655.00832
     12       2.00000         -24.068604         -654.94003
     13       2.00000          -4.095902         -111.45516
     14       2.00000          -4.080926         -111.04765
     15       2.00000          -4.080926         -111.04765
     16       2.00000          -2.690133          -73.20224
     17       2.00000          -2.688060          -73.14583
     18       2.00000          -2.687515          -73.13101
     19       2.00000          -2.674627          -72.78030
     20       2.00000          -2.674624          -72.78024
     21       2.00000          -2.673964          -72.76226
     22       2.00000          -2.673963          -72.76223
     23       2.00000          -2.672106          -72.71170
     24       2.00000          -2.672105          -72.71169
     25       2.00000          -1.160959          -31.59131
     26       2.00000          -1.148964          -31.26491
     27       2.00000          -1.143860          -31.12602
     28       2.00000          -1.134015          -30.85811
     29       2.00000          -1.020453          -27.76794
     30       2.00000          -1.020410          -27.76677
     31       2.00000          -1.015794          -27.64117
     32       2.00000          -1.015736          -27.63957
     33       2.00000          -1.015731          -27.63945
     34       2.00000          -0.544607          -14.81952
     35       2.00000          -0.532624          -14.49343
     36       2.00000          -0.518974          -14.12200
     37       2.00000          -0.512417          -13.94358
     38       2.00000          -0.485308          -13.20590
     39       2.00000          -0.469439          -12.77408
     40       2.00000          -0.465607          -12.66981
     41       2.00000          -0.446013          -12.13664
     42       2.00000          -0.445818          -12.13131
     43       2.00000          -0.443148          -12.05867
     44       2.00000          -0.438184          -11.92358
     45       2.00000          -0.425133          -11.56845
     46       2.00000          -0.398974          -10.85663
     47       2.00000          -0.393440          -10.70605
     48       2.00000          -0.375397          -10.21508
     49       2.00000          -0.366345           -9.96875
     50       2.00000          -0.366340           -9.96861
     51       2.00000          -0.335103           -9.11861
     52       2.00000          -0.334571           -9.10414
     53       2.00000          -0.333230           -9.06764
     54       2.00000          -0.331690           -9.02575
     55       2.00000          -0.324837           -8.83927
     56       2.00000          -0.323888           -8.81345
     57       2.00000          -0.323160           -8.79363
     58       2.00000          -0.322608           -8.77862
     59       2.00000          -0.319984           -8.70721
     60       2.00000          -0.319531           -8.69488
     61       0.00000          -0.146908           -3.99756
     62       0.00000          -0.107494           -2.92507
     63       0.00000          -0.075147           -2.04484
     64       0.00000          -0.042187           -1.14796
     65       0.00000          -0.024752           -0.67353
     66       0.00000          -0.022422           -0.61015
     67       0.00000          -0.002911           -0.07920
     68       0.00000           0.026426            0.71910
     69       0.00000           0.029679            0.80762
     70       0.00000           0.057964            1.57729
     71       0.00000           0.067681            1.84169
     72       0.00000           0.105610            2.87380
     73       0.00000           0.136877            3.72460
     74       0.00000           0.144533            3.93293
     75       0.00000           0.169051            4.60011
     76       0.00000           0.171911            4.67794
     77       0.00000           0.177979            4.84305
     78       0.00000           0.179772            4.89186
     79       0.00000           0.195790            5.32772
     80       0.00000           0.195895            5.33057
     81       0.00000           0.203049            5.52525
     82       0.00000           0.214789            5.84471
     83       0.00000           0.216346            5.88708
     84       0.00000           0.226611            6.16640
     85       0.00000           0.241217            6.56385
     86       0.00000           0.248743            6.76864
     87       0.00000           0.251293            6.83804
     88       0.00000           0.259587            7.06373
     89       0.00000           0.264847            7.20686
     90       0.00000           0.271036            7.37527
     91       0.00000           0.297929            8.10707
     92       0.00000           0.306867            8.35027
     93       0.00000           0.322655            8.77989
     94       0.00000           0.356483            9.70039
     95       0.00000           0.369687           10.05970
     96       0.00000           0.373390           10.16045

  Highest occupied state (VBM) at     -8.69488149 eV
  | Occupation number:      2.00000000

  Lowest unoccupied state (CBM) at    -3.99755709 eV
  | Occupation number:      0.00000000

  Overall HOMO-LUMO gap:      4.69732440 eV.

  Total energy components:
  | Sum of eigenvalues            :        -882.28337708 Ha      -24008.15221172 eV
  | XC energy correction          :        -145.65997774 Ha       -3963.60966041 eV
  | XC potential correction       :         189.67367177 Ha        5161.28321214 eV
  | Free-atom electrostatic energy:        -781.37337226 Ha      -21262.25127061 eV
  | Hartree energy correction     :          -5.51068729 Ha        -149.95343074 eV
  | Entropy correction            :           0.00000000 Ha           0.00000000 eV
  | ---------------------------
  | Total energy                  :       -1625.15374259 Ha      -44222.68336135 eV
  | Total energy, T -> 0          :       -1625.15374259 Ha      -44222.68336135 eV  <-- do not rely on this value for anything but (periodic) metals
  | Electronic free energy        :       -1625.15374259 Ha      -44222.68336135 eV

  Derived energy quantities:
  | Kinetic energy                :        1633.93458668 Ha       44461.62228613 eV
  | Electrostatic energy          :       -3113.42835154 Ha      -84720.69598706 eV
  | Energy correction for multipole
  | error in Hartree potential    :           0.04139229 Ha           1.12634157 eV
  | Sum of eigenvalues per atom                           :       -2000.67935098 eV
  | Total energy (T->0) per atom                          :       -3685.22361345 eV  <-- do not rely on this value for anything but (periodic) metals
  | Electronic free energy per atom                       :       -3685.22361345 eV
  Evaluating new KS density.
  Integration grid: deviation in total charge (<rho> - N_e) =   0.000000E+00

  Self-consistency convergence accuracy:
  | Change of charge density      :  0.5966E+00
  | Change of sum of eigenvalues  :  0.1443E+03 eV
  | Change of total energy        :  0.5676E+01 eV


------------------------------------------------------------
  End self-consistency iteration #     1       :  max(cpu_time)    wall_clock(cpu1)
  | Time for this iteration                     :        0.079 s           0.079 s
  | Charge density update                       :        0.026 s           0.026 s
  | Density mixing                              :        0.001 s           0.001 s
  | Hartree multipole update                    :        0.001 s           0.001 s
  | Hartree multipole summation                 :        0.017 s           0.017 s
  | Integration                                 :        0.029 s           0.029 s
  | Solution of K.-S. eqns.                     :        0.004 s           0.004 s
  | Total energy evaluation                     :        0.000 s           0.001 s

  Partial memory accounting:
  | Current value for overall tracked memory usage:
  |   Minimum:        0.273 MB (on task 23)
  |   Maximum:        0.292 MB (on task  0)
  |   Average:        0.287 MB
  | Peak value for overall tracked memory usage:
  |   Minimum:        1.286 MB (on task 11 after allocating wave)
  |   Maximum:        1.363 MB (on task  0 after allocating wave)
  |   Average:        1.329 MB
  | Largest tracked array allocation so far:
  |   Minimum:        0.689 MB (gradient_basis_wave on task 11)
  |   Maximum:        0.733 MB (gradient_basis_wave on task  0)
  |   Average:        0.714 MB
  Note:  These values currently only include a subset of arrays which are explicitly tracked.
  The "true" memory usage will be greater.
------------------------------------------------------------

------------------------------------------------------------
          Begin self-consistency iteration #    2

  Date     :  20220517, Time     :  111002.048
------------------------------------------------------------
  Pulay mixing of updated and previous charge densities.
  Renormalizing the density to the exact electron count on the 3D integration grid.
  | Formal number of electrons (from input files) :     120.0000000000
  | Integrated number of electrons on 3D grid     :     120.0000000000
  | Charge integration error                      :       0.0000000000
  | Normalization factor for density and gradient :       1.0000000000

  Evaluating partitioned Hartree potential by multipole expansion.
  | Original multipole sum: apparent total charge =  -0.549022E-13
  | Sum of charges compensated after spline to logarithmic grids =   0.674163E-04
  | Analytical far-field extrapolation by fixed multipoles:
  | Hartree multipole sum: apparent total charge =  -0.551235E-13
  Summing up the Hartree potential.
  Time summed over all CPUs for potential: real work        0.379 s, elapsed        0.395 s
  | RMS charge density error from multipole expansion :   0.125544E-01

  Integrating Hamiltonian matrix: batch-based integration.
  Time summed over all CPUs for integration: real work        0.637 s, elapsed        0.685 s

  Updating Kohn-Sham eigenvalues and eigenvectors using ELSI and the ELPA eigensolver.
  Starting ELPA eigensolver
  Finished transformation to standard eigenproblem
  | Time :     0.001 s
  Finished solving standard eigenproblem
  | Time :     0.003 s
  Finished back-transformation of eigenvectors
  | Time :     0.000 s

  Obtaining occupation numbers and chemical potential using ELSI.
  | Chemical potential (Fermi level):    -7.78220367 eV
  Highest occupied state (VBM) at     -9.88456414 eV
  | Occupation number:      2.00000000

  Lowest unoccupied state (CBM) at    -4.20535434 eV
  | Occupation number:      0.00000000

  Overall HOMO-LUMO gap:      5.67920979 eV.

  Checking to see if s.c.f. parameters should be adjusted.

  Total energy components:
  | Sum of eigenvalues            :        -885.40629112 Ha      -24093.13102647 eV
  | XC energy correction          :        -145.16789989 Ha       -3950.21954089 eV
  | XC potential correction       :         189.02624015 Ha        5143.66570126 eV
  | Free-atom electrostatic energy:        -781.37337226 Ha      -21262.25127061 eV
  | Hartree energy correction     :          -2.16872455 Ha         -59.01399753 eV
  | Entropy correction            :           0.00000000 Ha           0.00000000 eV
  | ---------------------------
  | Total energy                  :       -1625.09004767 Ha      -44220.95013423 eV
  | Total energy, T -> 0          :       -1625.09004767 Ha      -44220.95013423 eV  <-- do not rely on this value for anything but (periodic) metals
  | Electronic free energy        :       -1625.09004767 Ha      -44220.95013423 eV

  Derived energy quantities:
  | Kinetic energy                :        1630.06605785 Ha       44356.35426063 eV
  | Electrostatic energy          :       -3109.98820563 Ha      -84627.08485397 eV
  | Energy correction for multipole
  | error in Hartree potential    :           0.04547832 Ha           1.23752816 eV
  | Sum of eigenvalues per atom                           :       -2007.76091887 eV
  | Total energy (T->0) per atom                          :       -3685.07917785 eV  <-- do not rely on this value for anything but (periodic) metals
  | Electronic free energy per atom                       :       -3685.07917785 eV
  Evaluating new KS density.
  Integration grid: deviation in total charge (<rho> - N_e) =   0.000000E+00

  Self-consistency convergence accuracy:
  | Change of charge density      :  0.4740E+00
  | Change of sum of eigenvalues  : -0.8498E+02 eV
  | Change of total energy        :  0.1733E+01 eV


------------------------------------------------------------
  End self-consistency iteration #     2       :  max(cpu_time)    wall_clock(cpu1)
  | Time for this iteration                     :        0.082 s           0.081 s
  | Charge density update                       :        0.026 s           0.026 s
  | Density mixing                              :        0.004 s           0.003 s
  | Hartree multipole update                    :        0.001 s           0.002 s
  | Hartree multipole summation                 :        0.017 s           0.016 s
  | Integration                                 :        0.029 s           0.029 s
  | Solution of K.-S. eqns.                     :        0.004 s           0.004 s
  | Total energy evaluation                     :        0.000 s           0.000 s

  Partial memory accounting:
  | Current value for overall tracked memory usage:
  |   Minimum:        0.274 MB (on task 23)
  |   Maximum:        0.293 MB (on task  0)
  |   Average:        0.288 MB
  | Peak value for overall tracked memory usage:
  |   Minimum:        1.286 MB (on task 11 after allocating wave)
  |   Maximum:        1.363 MB (on task  0 after allocating wave)
  |   Average:        1.329 MB
  | Largest tracked array allocation so far:
  |   Minimum:        0.689 MB (gradient_basis_wave on task 11)
  |   Maximum:        0.733 MB (gradient_basis_wave on task  0)
  |   Average:        0.714 MB
  Note:  These values currently only include a subset of arrays which are explicitly tracked.
  The "true" memory usage will be greater.
------------------------------------------------------------

------------------------------------------------------------
          Begin self-consistency iteration #    3

  Date     :  20220517, Time     :  111002.136
------------------------------------------------------------
  Pulay mixing of updated and previous charge densities.
  Renormalizing the density to the exact electron count on the 3D integration grid.
  | Formal number of electrons (from input files) :     120.0000000000
  | Integrated number of electrons on 3D grid     :     120.0000000000
  | Charge integration error                      :      -0.0000000000
  | Normalization factor for density and gradient :       1.0000000000

  Evaluating partitioned Hartree potential by multipole expansion.
  | Original multipole sum: apparent total charge =  -0.888470E-13
  | Sum of charges compensated after spline to logarithmic grids =   0.877682E-04
  | Analytical far-field extrapolation by fixed multipoles:
  | Hartree multipole sum: apparent total charge =  -0.855509E-13
  Summing up the Hartree potential.
  Time summed over all CPUs for potential: real work        0.379 s, elapsed        0.395 s
  | RMS charge density error from multipole expansion :   0.173863E-01

  Integrating Hamiltonian matrix: batch-based integration.
  Time summed over all CPUs for integration: real work        0.637 s, elapsed        0.681 s

  Updating Kohn-Sham eigenvalues and eigenvectors using ELSI and the ELPA eigensolver.
  Starting ELPA eigensolver
  Finished transformation to standard eigenproblem
  | Time :     0.000 s
  Finished solving standard eigenproblem
  | Time :     0.004 s
  Finished back-transformation of eigenvectors
  | Time :     0.000 s

  Obtaining occupation numbers and chemical potential using ELSI.
  | Chemical potential (Fermi level):    -7.96121214 eV
  Highest occupied state (VBM) at     -9.59652398 eV
  | Occupation number:      2.00000000

  Lowest unoccupied state (CBM) at    -4.41079726 eV
  | Occupation number:      0.00000000

  Overall HOMO-LUMO gap:      5.18572672 eV.

  Total energy components:
  | Sum of eigenvalues            :        -886.39339421 Ha      -24119.99146821 eV
  | XC energy correction          :        -145.13309735 Ha       -3949.27251557 eV
  | XC potential correction       :         188.97917306 Ha        5142.38494065 eV
  | Free-atom electrostatic energy:        -781.37337226 Ha      -21262.25127061 eV
  | Hartree energy correction     :          -1.16875110 Ha         -31.80333555 eV
  | Entropy correction            :           0.00000000 Ha           0.00000000 eV
  | ---------------------------
  | Total energy                  :       -1625.08944186 Ha      -44220.93364928 eV
  | Total energy, T -> 0          :       -1625.08944186 Ha      -44220.93364928 eV  <-- do not rely on this value for anything but (periodic) metals
  | Electronic free energy        :       -1625.08944186 Ha      -44220.93364928 eV

  Derived energy quantities:
  | Kinetic energy                :        1628.32422223 Ha       44308.95650163 eV
  | Electrostatic energy          :       -3108.28056674 Ha      -84580.61763535 eV
  | Energy correction for multipole
  | error in Hartree potential    :           0.06145021 Ha           1.67214543 eV
  | Sum of eigenvalues per atom                           :       -2009.99928902 eV
  | Total energy (T->0) per atom                          :       -3685.07780411 eV  <-- do not rely on this value for anything but (periodic) metals
  | Electronic free energy per atom                       :       -3685.07780411 eV
  Evaluating new KS density.
  Integration grid: deviation in total charge (<rho> - N_e) =   2.842171E-14

  Self-consistency convergence accuracy:
  | Change of charge density      :  0.1236E+00
  | Change of sum of eigenvalues  : -0.2686E+02 eV
  | Change of total energy        :  0.1648E-01 eV


------------------------------------------------------------
  End self-consistency iteration #     3       :  max(cpu_time)    wall_clock(cpu1)
  | Time for this iteration                     :        0.082 s           0.079 s
  | Charge density update                       :        0.026 s           0.027 s
  | Density mixing                              :        0.004 s           0.001 s
  | Hartree multipole update                    :        0.001 s           0.001 s
  | Hartree multipole summation                 :        0.017 s           0.017 s
  | Integration                                 :        0.029 s           0.029 s
  | Solution of K.-S. eqns.                     :        0.004 s           0.004 s
  | Total energy evaluation                     :        0.000 s           0.000 s

  Partial memory accounting:
  | Current value for overall tracked memory usage:
  |   Minimum:        0.274 MB (on task 23)
  |   Maximum:        0.293 MB (on task  0)
  |   Average:        0.288 MB
  | Peak value for overall tracked memory usage:
  |   Minimum:        1.286 MB (on task 11 after allocating wave)
  |   Maximum:        1.363 MB (on task  0 after allocating wave)
  |   Average:        1.329 MB
  | Largest tracked array allocation so far:
  |   Minimum:        0.689 MB (gradient_basis_wave on task 11)
  |   Maximum:        0.733 MB (gradient_basis_wave on task  0)
  |   Average:        0.714 MB
  Note:  These values currently only include a subset of arrays which are explicitly tracked.
  The "true" memory usage will be greater.
------------------------------------------------------------

------------------------------------------------------------
          Begin self-consistency iteration #    4

  Date     :  20220517, Time     :  111002.219
------------------------------------------------------------
  Pulay mixing of updated and previous charge densities.
  Renormalizing the density to the exact electron count on the 3D integration grid.
  | Formal number of electrons (from input files) :     120.0000000000
  | Integrated number of electrons on 3D grid     :     120.0000000000
  | Charge integration error                      :       0.0000000000
  | Normalization factor for density and gradient :       1.0000000000

  Evaluating partitioned Hartree potential by multipole expansion.
  | Original multipole sum: apparent total charge =  -0.879615E-13
  | Sum of charges compensated after spline to logarithmic grids =   0.948843E-04
  | Analytical far-field extrapolation by fixed multipoles:
  | Hartree multipole sum: apparent total charge =  -0.891914E-13
  Summing up the Hartree potential.
  Time summed over all CPUs for potential: real work        0.379 s, elapsed        0.395 s
  | RMS charge density error from multipole expansion :   0.192840E-01

  Integrating Hamiltonian matrix: batch-based integration.
  Time summed over all CPUs for integration: real work        0.637 s, elapsed        0.679 s

  Updating Kohn-Sham eigenvalues and eigenvectors using ELSI and the ELPA eigensolver.
  Starting ELPA eigensolver
  Finished transformation to standard eigenproblem
  | Time :     0.000 s
  Finished solving standard eigenproblem
  | Time :     0.003 s
  Finished back-transformation of eigenvectors
  | Time :     0.000 s

  Obtaining occupation numbers and chemical potential using ELSI.
  | Chemical potential (Fermi level):    -7.91321317 eV
  Highest occupied state (VBM) at     -9.72192118 eV
  | Occupation number:      2.00000000

  Lowest unoccupied state (CBM) at    -4.35996925 eV
  | Occupation number:      0.00000000

  Overall HOMO-LUMO gap:      5.36195193 eV.

  Total energy components:
  | Sum of eigenvalues            :        -886.50774454 Ha      -24123.10309902 eV
  | XC energy correction          :        -145.11831207 Ha       -3948.87018783 eV
  | XC potential correction       :         188.95910409 Ha        5141.83883621 eV
  | Free-atom electrostatic energy:        -781.37337226 Ha      -21262.25127061 eV
  | Hartree energy correction     :          -1.04711156 Ha         -28.49335525 eV
  | Entropy correction            :           0.00000000 Ha           0.00000000 eV
  | ---------------------------
  | Total energy                  :       -1625.08743634 Ha      -44220.87907650 eV
  | Total energy, T -> 0          :       -1625.08743634 Ha      -44220.87907650 eV  <-- do not rely on this value for anything but (periodic) metals
  | Electronic free energy        :       -1625.08743634 Ha      -44220.87907650 eV

  Derived energy quantities:
  | Kinetic energy                :        1627.71264119 Ha       44292.31453496 eV
  | Electrostatic energy          :       -3107.68176546 Ha      -84564.32342362 eV
  | Energy correction for multipole
  | error in Hartree potential    :           0.06724198 Ha           1.82974745 eV
  | Sum of eigenvalues per atom                           :       -2010.25859158 eV
  | Total energy (T->0) per atom                          :       -3685.07325637 eV  <-- do not rely on this value for anything but (periodic) metals
  | Electronic free energy per atom                       :       -3685.07325637 eV
  Evaluating new KS density.
  Integration grid: deviation in total charge (<rho> - N_e) =  -1.421085E-14

  Self-consistency convergence accuracy:
  | Change of charge density      :  0.7977E-01
  | Change of sum of eigenvalues  : -0.3112E+01 eV
  | Change of total energy        :  0.5457E-01 eV


------------------------------------------------------------
  End self-consistency iteration #     4       :  max(cpu_time)    wall_clock(cpu1)
  | Time for this iteration                     :        0.081 s           0.081 s
  | Charge density update                       :        0.026 s           0.026 s
  | Density mixing                              :        0.004 s           0.004 s
  | Hartree multipole update                    :        0.001 s           0.001 s
  | Hartree multipole summation                 :        0.017 s           0.017 s
  | Integration                                 :        0.029 s           0.029 s
  | Solution of K.-S. eqns.                     :        0.004 s           0.004 s
  | Total energy evaluation                     :        0.000 s           0.000 s

  Partial memory accounting:
  | Current value for overall tracked memory usage:
  |   Minimum:        0.274 MB (on task 23)
  |   Maximum:        0.293 MB (on task  0)
  |   Average:        0.288 MB
  | Peak value for overall tracked memory usage:
  |   Minimum:        1.286 MB (on task 11 after allocating wave)
  |   Maximum:        1.363 MB (on task  0 after allocating wave)
  |   Average:        1.329 MB
  | Largest tracked array allocation so far:
  |   Minimum:        0.689 MB (gradient_basis_wave on task 11)
  |   Maximum:        0.733 MB (gradient_basis_wave on task  0)
  |   Average:        0.714 MB
  Note:  These values currently only include a subset of arrays which are explicitly tracked.
  The "true" memory usage will be greater.
------------------------------------------------------------

------------------------------------------------------------
          Begin self-consistency iteration #    5

  Date     :  20220517, Time     :  111002.306
------------------------------------------------------------
  Pulay mixing of updated and previous charge densities.
  Renormalizing the density to the exact electron count on the 3D integration grid.
  | Formal number of electrons (from input files) :     120.0000000000
  | Integrated number of electrons on 3D grid     :     120.0000000000
  | Charge integration error                      :       0.0000000000
  | Normalization factor for density and gradient :       1.0000000000

  Evaluating partitioned Hartree potential by multipole expansion.
  | Original multipole sum: apparent total charge =   0.507697E-13
  | Sum of charges compensated after spline to logarithmic grids =   0.952941E-04
  | Analytical far-field extrapolation by fixed multipoles:
  | Hartree multipole sum: apparent total charge =   0.501302E-13
  Summing up the Hartree potential.
  Time summed over all CPUs for potential: real work        0.379 s, elapsed        0.395 s
  | RMS charge density error from multipole expansion :   0.190643E-01

  Integrating Hamiltonian matrix: batch-based integration.
  Time summed over all CPUs for integration: real work        0.637 s, elapsed        0.679 s

  Updating Kohn-Sham eigenvalues and eigenvectors using ELSI and the ELPA eigensolver.
  Starting ELPA eigensolver
  Finished transformation to standard eigenproblem
  | Time :     0.000 s
  Finished solving standard eigenproblem
  | Time :     0.003 s
  Finished back-transformation of eigenvectors
  | Time :     0.000 s

  Obtaining occupation numbers and chemical potential using ELSI.
  | Chemical potential (Fermi level):    -7.86581465 eV
  Highest occupied state (VBM) at     -9.77336972 eV
  | Occupation number:      2.00000000

  Lowest unoccupied state (CBM) at    -4.30499060 eV
  | Occupation number:      0.00000000

  Overall HOMO-LUMO gap:      5.46837912 eV.

  Total energy components:
  | Sum of eigenvalues            :        -886.32057364 Ha      -24118.00991953 eV
  | XC energy correction          :        -145.11377409 Ha       -3948.74670294 eV
  | XC potential correction       :         188.95332843 Ha        5141.68167237 eV
  | Free-atom electrostatic energy:        -781.37337226 Ha      -21262.25127061 eV
  | Hartree energy correction     :          -1.23291330 Ha         -33.54927777 eV
  | Entropy correction            :           0.00000000 Ha           0.00000000 eV
[...]
   Total forces(   7)            :  0.106147E+01 -0.164285E+01 -0.135151E+01
  atom #    8
   Hellmann-Feynman              :  0.219590E+01  0.246902E+01 -0.330959E+00
   Ionic forces                  :  0.000000E+00  0.000000E+00  0.000000E+00
   Multipole                     :  0.385031E+00  0.382369E+00 -0.661117E-01
   Hartree pot. SCF incomplete   : -0.116657E-07 -0.659541E-06 -0.107086E-06
   Pulay + GGA                   : -0.482400E+01 -0.528223E+01  0.749554E+00
   ----------------------------------------------------------------
   Total forces(   8)            : -0.224306E+01 -0.243084E+01  0.352483E+00
  atom #    9
   Hellmann-Feynman              :  0.657570E+00 -0.102498E+01  0.290674E-01
   Ionic forces                  :  0.000000E+00  0.000000E+00  0.000000E+00
   Multipole                     :  0.261007E+00 -0.298105E+00 -0.386011E+00
   Hartree pot. SCF incomplete   : -0.190764E-06 -0.438668E-06 -0.176266E-05
   Pulay + GGA                   : -0.215774E+01  0.293866E+01  0.126558E+01
   ----------------------------------------------------------------
   Total forces(   9)            : -0.123917E+01  0.161557E+01  0.908639E+00
  atom #   10
   Hellmann-Feynman              : -0.961825E+00  0.526947E+00 -0.112055E+00
   Ionic forces                  :  0.000000E+00  0.000000E+00  0.000000E+00
   Multipole                     : -0.232834E+00  0.489175E+00  0.800383E-01
   Hartree pot. SCF incomplete   :  0.251147E-06  0.225375E-06  0.176304E-05
   Pulay + GGA                   :  0.268303E+01 -0.286835E+01 -0.503015E-01
   ----------------------------------------------------------------
   Total forces(  10)            :  0.148837E+01 -0.185223E+01 -0.823164E-01
  atom #   11
   Hellmann-Feynman              :  0.231406E+01  0.848602E+00  0.186556E+01
   Ionic forces                  :  0.000000E+00  0.000000E+00  0.000000E+00
   Multipole                     :  0.626958E+00  0.192279E+00  0.388530E+00
   Hartree pot. SCF incomplete   :  0.605268E-06  0.481039E-06 -0.422471E-06
   Pulay + GGA                   : -0.543386E+01 -0.171662E+01 -0.428838E+01
   ----------------------------------------------------------------
   Total forces(  11)            : -0.249284E+01 -0.675742E+00 -0.203430E+01
  atom #   12
   Hellmann-Feynman              : -0.208828E+01 -0.225407E+01  0.370595E+00
   Ionic forces                  :  0.000000E+00  0.000000E+00  0.000000E+00
   Multipole                     : -0.449806E+00 -0.553050E+00  0.302557E-01
   Hartree pot. SCF incomplete   : -0.257190E-06 -0.425312E-06 -0.101239E-06
   Pulay + GGA                   :  0.450987E+01  0.532188E+01 -0.100413E+01
   ----------------------------------------------------------------
   Total forces(  12)            :  0.197178E+01  0.251476E+01 -0.603276E+00


  Self-consistency convergence accuracy:
  | Change of charge density      :  0.9993E-07
  | Change of sum of eigenvalues  : -0.3400E-05 eV
  | Change of total energy        : -0.2128E-08 eV
  | Change of forces              :  0.3640E-06 eV/A

  Writing Kohn-Sham eigenvalues.

  State    Occupation    Eigenvalue [Ha]    Eigenvalue [eV]
      1       2.00000         -55.642289        -1514.10372
      2       2.00000         -55.621428        -1513.53606
      3       2.00000         -55.621426        -1513.53600
      4       2.00000         -24.305459         -661.38518
      5       2.00000         -24.305456         -661.38512
      6       2.00000         -24.303692         -661.33711
      7       2.00000         -24.303692         -661.33709
      8       2.00000         -24.212185         -658.84709
      9       2.00000         -24.212181         -658.84696
     10       2.00000         -24.210930         -658.81291
     11       2.00000         -24.210929         -658.81289
     12       2.00000         -24.207816         -658.72819
     13       2.00000          -4.094561         -111.41867
     14       2.00000          -4.074588         -110.87519
     15       2.00000          -4.074588         -110.87518
     16       2.00000          -2.687507          -73.13079
     17       2.00000          -2.685970          -73.08897
     18       2.00000          -2.684844          -73.05833
     19       2.00000          -2.668457          -72.61242
     20       2.00000          -2.668456          -72.61239
     21       2.00000          -2.666690          -72.56433
     22       2.00000          -2.666688          -72.56427
     23       2.00000          -2.663219          -72.46988
     24       2.00000          -2.663219          -72.46987
     25       2.00000          -1.184283          -32.22597
     26       2.00000          -1.172564          -31.90708
     27       2.00000          -1.168125          -31.78630
     28       2.00000          -1.158847          -31.53384
     29       2.00000          -1.060659          -28.86199
     30       2.00000          -1.060621          -28.86097
     31       2.00000          -1.056919          -28.76024
     32       2.00000          -1.056906          -28.75987
     33       2.00000          -1.055002          -28.70806
     34       2.00000          -0.564860          -15.37063
     35       2.00000          -0.552911          -15.04546
     36       2.00000          -0.539885          -14.69101
     37       2.00000          -0.534808          -14.55287
     38       2.00000          -0.508040          -13.82448
     39       2.00000          -0.490344          -13.34293
     40       2.00000          -0.489467          -13.31908
     41       2.00000          -0.472278          -12.85134
     42       2.00000          -0.467695          -12.72663
     43       2.00000          -0.465589          -12.66931
     44       2.00000          -0.464911          -12.65088
     45       2.00000          -0.448957          -12.21675
     46       2.00000          -0.432395          -11.76608
     47       2.00000          -0.427710          -11.63858
     48       2.00000          -0.411962          -11.21006
     49       2.00000          -0.405816          -11.04282
     50       2.00000          -0.405516          -11.03465
     51       2.00000          -0.370795          -10.08984
     52       2.00000          -0.370401          -10.07913
     53       2.00000          -0.369004          -10.04111
     54       2.00000          -0.367950          -10.01244
     55       2.00000          -0.362082           -9.85274
     56       2.00000          -0.361790           -9.84480
     57       2.00000          -0.360905           -9.82073
     58       2.00000          -0.359251           -9.77573
     59       2.00000          -0.358631           -9.75884
     60       2.00000          -0.358318           -9.75032
     61       0.00000          -0.158277           -4.30694
     62       0.00000          -0.119045           -3.23938
     63       0.00000          -0.084418           -2.29713
     64       0.00000          -0.047185           -1.28398
     65       0.00000          -0.029668           -0.80731
     66       0.00000          -0.027019           -0.73523
     67       0.00000          -0.007433           -0.20227
     68       0.00000           0.020829            0.56678
     69       0.00000           0.024815            0.67525
     70       0.00000           0.053596            1.45843
     71       0.00000           0.061862            1.68334
     72       0.00000           0.100932            2.74651
     73       0.00000           0.129731            3.53015
     74       0.00000           0.142878            3.88790
     75       0.00000           0.163221            4.44148
     76       0.00000           0.166803            4.53893
     77       0.00000           0.169227            4.60490
     78       0.00000           0.175269            4.76931
     79       0.00000           0.189099            5.14565
     80       0.00000           0.189858            5.16629
     81       0.00000           0.197531            5.37510
     82       0.00000           0.208926            5.68517
     83       0.00000           0.212266            5.77604
     84       0.00000           0.219141            5.96314
     85       0.00000           0.235738            6.41474
     86       0.00000           0.244160            6.64392
     87       0.00000           0.246955            6.71998
     88       0.00000           0.255041            6.94003
     89       0.00000           0.258908            7.04526
     90       0.00000           0.268198            7.29803
     91       0.00000           0.291583            7.93436
     92       0.00000           0.302226            8.22398
     93       0.00000           0.318950            8.67907
     94       0.00000           0.347957            9.46840
     95       0.00000           0.361884            9.84735
     96       0.00000           0.367211            9.99232

  Highest occupied state (VBM) at     -9.75032397 eV
  | Occupation number:      2.00000000

  Lowest unoccupied state (CBM) at    -4.30693623 eV
  | Occupation number:      0.00000000

  Overall HOMO-LUMO gap:      5.44338774 eV.
  | Chemical Potential                          :    -7.86818225 eV

  Self-consistency cycle converged.


------------------------------------------------------------
  End self-consistency iteration #    14       :  max(cpu_time)    wall_clock(cpu1)
  | Time for this iteration                     :        0.260 s           0.258 s
  | Charge density & force component update     :        0.139 s           0.139 s
  | Density mixing                              :        0.005 s           0.003 s
  | Hartree multipole update                    :        0.001 s           0.001 s
  | Hartree multipole summation                 :        0.049 s           0.049 s
  | Hartree pot. SCF incomplete forces          :        0.032 s           0.032 s
  | Integration                                 :        0.029 s           0.029 s
  | Solution of K.-S. eqns.                     :        0.004 s           0.004 s
  | Total energy evaluation                     :        0.000 s           0.000 s

  Partial memory accounting:
  | Current value for overall tracked memory usage:
  |   Minimum:        0.274 MB (on task 23)
  |   Maximum:        0.293 MB (on task  0)
  |   Average:        0.289 MB
  | Peak value for overall tracked memory usage:
  |   Minimum:        2.846 MB (on task 11 after allocating hessian_basis_wave)
  |   Maximum:        3.002 MB (on task  0 after allocating hessian_basis_wave)
  |   Average:        2.933 MB
  | Largest tracked array allocation so far:
  |   Minimum:        1.378 MB (hessian_basis_wave on task 11)
  |   Maximum:        1.467 MB (hessian_basis_wave on task  0)
  |   Average:        1.428 MB
  Note:  These values currently only include a subset of arrays which are explicitly tracked.
  The "true" memory usage will be greater.
------------------------------------------------------------
  Removing unitary transformations (pure translations, rotations) from forces on atoms.
  Atomic forces before filtering:
  | Net force on center of mass :  -0.844798E-03 -0.440106E-02  0.130761E-02 eV/A
  | Net torque on center of mass:  -0.534564E-02  0.187865E-01 -0.572225E-02 eV
  Atomic forces after filtering:
  | Net force on center of mass :   0.713624E-15  0.356812E-15 -0.535218E-15 eV/A
  | Net torque on center of mass:   0.302107E-14  0.188817E-15 -0.151054E-14 eV

  Energy and forces in a compact form:
  | Total energy uncorrected      :         -0.442208753132650E+05 eV
  | Total energy corrected        :         -0.442208753132650E+05 eV  <-- do not rely on this value for anything but (periodic) metals
  | Electronic free energy        :         -0.442208753132650E+05 eV
  Total atomic forces (unitary forces cleaned) [eV/Ang]:
  |    1          0.491726710488456E+00         -0.151648132405090E+01          0.209851248307769E+01
  |    2          0.201053345796040E+01          0.215697837966393E+01         -0.320318589446742E+00
  |    3         -0.992436252331791E+00         -0.790315043919693E+00         -0.230911997663077E+01
  |    4          0.218214979100247E+01          0.241062164514613E+01          0.201536011388370E-01
  |    5         -0.137163019309337E+01          0.168165532474757E+01          0.512854016326423E+00
  |    6         -0.865486804960706E+00         -0.147323160235403E+01          0.280816120199938E+01
  |    7          0.106132934595306E+01         -0.164275412648522E+01         -0.135176025214680E+01
  |    8         -0.224347765607706E+01         -0.242982956825535E+01          0.353123185420234E+00
  |    9         -0.123840540878397E+01          0.161632362629237E+01          0.908568347802077E+00
  |   10          0.148771348809105E+01         -0.185219130901376E+01         -0.824006616074092E-01
  |   11         -0.249373182003715E+01         -0.675275624130250E+00         -0.203391737012565E+01
  |   12          0.197171534178861E+01          0.251449962235921E+01         -0.603855985807266E+00

  ------------------------------------ 
  Start decomposition of the XC Energy 
  ------------------------------------ 
  X and C from original XC functional choice 
  Hartree-Fock Energy :          0.000000000 Ha              0.000000000 eV
  X Energy            :       -140.177052368 Ha          -3814.411670056 eV
  C Energy            :         -4.940997687 Ha           -134.451387885 eV
  Total XC Energy     :       -145.118050055 Ha          -3948.863057942 eV
  ------------------------------------ 
  LDA X and C from self-consistent density 
  X Energy LDA        :       -132.749521668 Ha          -3612.298276294 eV
  C Energy LDA        :         -8.823093509 Ha           -240.088589956 eV
  ------------------------------------ 
  End decomposition of the XC Energy 
  ------------------------------------ 

------------------------------------------------------------

------------------------------------------------------------------------------
  Final output of selected total energy values:

  The following output summarizes some interesting total energy values
  at the end of a run (AFTER all relaxation, molecular dynamics, etc.).

  | Total energy of the DFT / Hartree-Fock s.c.f. calculation      :         -44220.875313265 eV
  | Final zero-broadening corrected energy (caution - metals only) :         -44220.875313265 eV
  | For reference only, the value of 1 Hartree used in FHI-aims is :             27.211384500 eV

  Before relying on these values, please be sure to understand exactly which
  total energy value is referred to by a given number. Different objects may
  all carry the same name 'total energy'. Definitions:

  Total energy of the DFT / Hartree-Fock s.c.f. calculation:
  | Note that this energy does not include ANY quantities calculated after the
  | s.c.f. cycle, in particular not ANY RPA, MP2, etc. many-body perturbation terms.

  Final zero-broadening corrected energy:
  | For metallic systems only, a broadening of the occupation numbers at the Fermi
  | level can be extrapolated back to zero broadening by an electron-gas inspired
  | formula. For all systems that are not real metals, this value can be
  | meaningless and should be avoided.

------------------------------------------------------------------------------
  Methods described in the following list of references were used in this FHI-aims run.
  If you publish the results, please make sure to cite these reference if they apply.
  FHI-aims is an academic code, and for our developers (often, Ph.D. students
  and postdocs), scientific credit in the community is essential.
  Thank you for helping us!

  For any use of FHI-aims, please cite:

    Volker Blum, Ralf Gehrke, Felix Hanke, Paula Havu, Ville Havu,
    Xinguo Ren, Karsten Reuter, and Matthias Scheffler
    'Ab initio molecular simulations with numeric atom-centered orbitals'
    Computer Physics Communications 180, 2175-2196 (2009)
    http://dx.doi.org/10.1016/j.cpc.2009.06.022


  The ELSI infrastructure was used in your run to solve the Kohn-Sham electronic structure.
  Please check out http://elsi-interchange.org to learn more.
  If scalability is important for your project, please acknowledge ELSI by citing:

    V. W-z. Yu, F. Corsetti, A. Garcia, W. P. Huhn, M. Jacquelin, W. Jia,
    B. Lange, L. Lin, J. Lu, W. Mi, A. Seifitokaldani, A. Vazquez-Mayagoitia,
    C. Yang, H. Yang, and V. Blum
    'ELSI: A unified software interface for Kohn-Sham electronic structure solvers'
    Computer Physics Communications 222, 267-285 (2018).
    http://dx.doi.org/10.1016/j.cpc.2017.09.007


  For the real-space grid partitioning and parallelization used in this calculation, please cite:

    Ville Havu, Volker Blum, Paula Havu, and Matthias Scheffler,
    'Efficient O(N) integration for all-electron electronic structure calculation'
    'using numerically tabulated basis functions'
    Journal of Computational Physics 228, 8367-8379 (2009).
    http://dx.doi.org/10.1016/j.jcp.2009.08.008

  Of course, there are many other important community references, e.g., those cited in the
  above references. Our list is limited to references that describe implementations in the
  FHI-aims code. The reason is purely practical (length of this list) - please credit others as well.

------------------------------------------------------------
          Leaving FHI-aims.
          Date     :  20220517, Time     :  111003.540

          Computational steps:
          | Number of self-consistency cycles          :           14
          | Number of SCF (re)initializations          :            1

          Detailed time accounting                     :  max(cpu_time)    wall_clock(cpu1)
          | Total time                                  :        1.876 s           1.943 s
          | Preparation time                            :        0.184 s           0.184 s
          | Boundary condition initalization            :        0.000 s           0.000 s
          | Grid partitioning                           :        0.033 s           0.033 s
          | Preloading free-atom quantities on grid     :        0.015 s           0.015 s
          | Free-atom superposition energy              :        0.005 s           0.005 s
          | Total time for integrations                 :        0.445 s           0.446 s
          | Total time for solution of K.-S. equations  :        0.068 s           0.068 s
          | Total time for density & force components   :        0.621 s           0.625 s
          | Total time for mixing                       :        0.060 s           0.030 s
          | Total time for Hartree multipole update     :        0.018 s           0.020 s
          | Total time for Hartree multipole sum        :        0.308 s           0.306 s
          | Total time for total energy evaluation      :        0.002 s           0.001 s
          | Total time NSC force correction             :        0.064 s           0.065 s
          | Total time for scaled ZORA corrections      :        0.000 s           0.000 s

          Partial memory accounting:
          | Residual value for overall tracked memory usage across tasks:     0.000000 MB (should be 0.000000 MB)
          | Peak values for overall tracked memory usage:
          |   Minimum:        2.846 MB (on task 11 after allocating hessian_basis_wave)
          |   Maximum:        3.002 MB (on task  0 after allocating hessian_basis_wave)
          |   Average:        2.933 MB
          | Largest tracked array allocation:
          |   Minimum:        1.378 MB (hessian_basis_wave on task 11)
          |   Maximum:        1.467 MB (hessian_basis_wave on task  0)
          |   Average:        1.428 MB
          Note:  These values currently only include a subset of arrays which are explicitly tracked.
          The "true" memory usage will be greater.

          Have a nice day.
------------------------------------------------------------
