********************************************************************************
*                       GENERAL UTILITY LATTICE PROGRAM                        *
*                                 Julian Gale                                  *
*                       Curtin Institute for Computation                       *
*                           Department of Chemistry                            *
*                    Curtin University, Western Australia                      *
********************************************************************************
* Version = 5.1.1 * Last modified =  24th November 2018                        *
********************************************************************************
*  optimise     - perform optimisation run                                     *
*  conp         - constant pressure calculation                                *
*  shell        - only shells and radii to be optimised                        *
*  phonon       - calculate phonons for final geometry                         *
*  eigenvectors - output phonon eigenvectors                                   *
********************************************************************************

  Job Started  at 14:40.17 25th May        2022                               

  Number of CPUs =     1

  Host name      = login03                                 


  Total number of configurations input =      1

********************************************************************************
*  Input for Configuration =   1                                               *
********************************************************************************

  Formula = Al3F9                                                       

  Number of irreducible atoms/shells =      21


  Total number atoms/shells =      21

  Dimensionality = 0               :  Cluster


  Charge on cluster =  -0.000000


  Initial cluster dipoles : x =      0.000003 e.Angs
                            y =     -0.000000 e.Angs
                            z =      0.000004 e.Angs

  Temperature of configuration =  0.000     K 

  Symmetry number =      1

  Cartesian coordinates of cluster :

--------------------------------------------------------------------------------
   No.  Atomic       x           y          z         Charge      Occupancy
        Label      (Angs)      (Angs)     (Angs)        (e)         (Frac)  
--------------------------------------------------------------------------------
      1 Al    c      0.2840     -2.3259     -1.8456     3.00000    1.000000    
      2 Al    c      1.9515     -0.5619     -0.6272     3.00000    1.000000    
      3 Al    c     -0.2605      0.3279     -1.9639     3.00000    1.000000    
      4 F     c      3.5228     -0.2058      0.1902     0.59000    1.000000    
      5 F     c     -0.1564     -4.0295     -2.2523     0.59000    1.000000    
      6 F     c      1.9058     -1.5251     -2.4254     0.59000    1.000000    
      7 F     c      1.5388      0.6120     -2.2745     0.59000    1.000000    
      8 F     c     -1.3913      1.6755     -2.3746     0.59000    1.000000    
      9 F     c     -0.8194     -1.1946     -0.7473     0.59000    1.000000    
     10 F     c     -0.5077     -1.1137     -3.3205     0.59000    1.000000    
     11 F     c      0.5014      0.4435     -0.0464     0.59000    1.000000    
     12 F     c      1.3313     -2.3419     -0.0592     0.59000    1.000000    
     13 F     s      3.5228 *   -0.2058 *    0.1902 *  -1.59000    1.000000    
     14 F     s     -0.1564 *   -4.0295 *   -2.2523 *  -1.59000    1.000000    
     15 F     s      1.9058 *   -1.5251 *   -2.4254 *  -1.59000    1.000000    
     16 F     s      1.5388 *    0.6120 *   -2.2745 *  -1.59000    1.000000    
     17 F     s     -1.3913 *    1.6755 *   -2.3746 *  -1.59000    1.000000    
     18 F     s     -0.8194 *   -1.1946 *   -0.7473 *  -1.59000    1.000000    
     19 F     s     -0.5077 *   -1.1137 *   -3.3205 *  -1.59000    1.000000    
     20 F     s      0.5014 *    0.4435 *   -0.0464 *  -1.59000    1.000000    
     21 F     s      1.3313 *   -2.3419 *   -0.0592 *  -1.59000    1.000000    
--------------------------------------------------------------------------------


  Brillouin zone sampling points :

--------------------------------------------------------------------------------
  Point number          x          y          z            Weight
--------------------------------------------------------------------------------
        1           0.000000   0.000000   0.000000     1.00000000
--------------------------------------------------------------------------------


********************************************************************************
*  General input information                                                   *
********************************************************************************

  Species output for all configurations : 

--------------------------------------------------------------------------------
  Species    Type    Atomic    Atomic    Charge       Radii (Angs)     Library
                     Number     Mass       (e)     Cova   Ionic  VDW   Symbol
--------------------------------------------------------------------------------
    Al       Core       13      26.98   3.000000   1.350  0.000  2.050          
    F        Core        9      19.00   0.590000   0.710  0.000  1.300          
    F        Shell       9       0.00  -1.590000   0.710  0.000  1.300          
--------------------------------------------------------------------------------


  Accuracy factor for short range sums = 12.000

  Time limit = Infinity

  Maximum range for interatomic potentials =    100000.000000 Angstroms

  General interatomic potentials :

--------------------------------------------------------------------------------
Atom  Types   Potential      Parameter       Value         Units   Cutoffs(Ang)
  1     2                                                            Min /  Max 
--------------------------------------------------------------------------------
Al   c F    s Buckingham    Buckingham A     3760.0008    eV        0.000 10.000
                            Buckingham rho  0.22200000    Ang       
                            Buckingham C     0.0000000    eV*Ang^6  
--------------------------------------------------------------------------------
F    s F    s Buck 4 range  Buck4 A          1127.7000    eV        0.000 12.000
                            Buck4 rho       0.27530000    Ang       
                            Buck4 C          15.830000    eV*Ang^6  
                            Buck4 minimum    2.7900000    Ang       
--------------------------------------------------------------------------------
F    c F    s Spring (c-s)  Spring k 2       20.770000    eV*Ang^-2 0.000  0.800
                            Spring k 4       0.0000000    eV*Ang^-4 
--------------------------------------------------------------------------------

********************************************************************************
*  Output for configuration   1                                                *
********************************************************************************


  Components of energy : 

--------------------------------------------------------------------------------
  Interatomic potentials     =          10.20581703 eV    
  Monopole - monopole (real) =        -175.10732616 eV    
--------------------------------------------------------------------------------
  Total lattice energy       =        -164.90150914 eV    
--------------------------------------------------------------------------------
  Total lattice energy       =          -15910.4749 kJ/mol
--------------------------------------------------------------------------------


  Number of variables =       27

  Maximum number of calculations  =          2000
  Maximum Hessian update interval =            10
  Maximum step size               =   1.000000000
  Maximum parameter tolerance     =   0.000001000
  Maximum function  tolerance     =   0.000010000
  Maximum gradient  tolerance     =   0.000000010
  Maximum gradient  component     =   0.010000000

  Symmetry not applied to optimisation

  Newton-Raphson optimiser to be used

  BFGS hessian update to be used

  Lower half triangular hessian to be used

  Minimiser to switch to RFO
  When gradient norm is less than     0.010000

  Shell only optimisation

  Start of cluster optimisation :

  Cycle:      0 Energy:      -164.901509  Gnorm:      1.575855  CPU:    0.004
  ** Hessian calculated **
  Cycle:      1 Energy:      -184.661084  Gnorm:      0.312687  CPU:    0.006
  ** Hessian calculated **
  Cycle:      2 Energy:      -185.221614  Gnorm:      0.027719  CPU:    0.008
  Cycle:      3 Energy:      -185.225399  Gnorm:      0.002392  CPU:    0.009
  ** Hessian has required structure
  Cycle:      4 Energy:      -185.225432  Gnorm:      0.000263  CPU:    0.011
  ** Hessian has required structure
  Cycle:      5 Energy:      -185.225432  Gnorm:      0.000161  CPU:    0.012
  ** Hessian has required structure
  Cycle:      6 Energy:      -185.225432  Gnorm:      0.000104  CPU:    0.014
  ** Hessian has required structure
  Cycle:      7 Energy:      -185.225433  Gnorm:      0.000050  CPU:    0.015
  ** Hessian has required structure
  Cycle:      8 Energy:      -185.225433  Gnorm:      0.000025  CPU:    0.016
  ** Hessian has required structure
  Cycle:      9 Energy:      -185.225433  Gnorm:      0.000014  CPU:    0.018
  ** Hessian has required structure
  Cycle:     10 Energy:      -185.225433  Gnorm:      0.000011  CPU:    0.019
  ** Hessian has required structure
  Cycle:     11 Energy:      -185.225433  Gnorm:      0.000009  CPU:    0.020
  ** Hessian has required structure
  Cycle:     12 Energy:      -185.225433  Gnorm:      0.000000  CPU:    0.022
  ** Hessian has required structure
  Cycle:     13 Energy:      -185.225433  Gnorm:      0.000000  CPU:    0.023
  ** Hessian has required structure
  Cycle:     14 Energy:      -185.225433  Gnorm:      0.000000  CPU:    0.025
  ** Hessian calculated **

  XYZ File written as 006/1/sp_mod_90/sp_mod_90_eig.xyz



  **** Optimisation achieved ****


  Final energy =    -185.22543258 eV
  Final Gnorm  =       0.00000003

  Components of energy : 

--------------------------------------------------------------------------------
  Interatomic potentials     =          38.27174146 eV    
  Monopole - monopole (real) =        -223.49717404 eV    
--------------------------------------------------------------------------------
  Total lattice energy       =        -185.22543258 eV    
--------------------------------------------------------------------------------
  Total lattice energy       =          -17871.4228 kJ/mol
--------------------------------------------------------------------------------

  Final cartesian coordinates of atoms :

--------------------------------------------------------------------------------
   No.  Atomic        x           y          z          Radius
        Label       (Angs)      (Angs)     (Angs)       (Angs) 
--------------------------------------------------------------------------------
     1  Al    c     0.284035   -2.325896   -1.845574    0.000000
     2  Al    c     1.951518   -0.561926   -0.627173    0.000000
     3  Al    c    -0.260503    0.327944   -1.963888    0.000000
     4  F     c     3.522758   -0.205838    0.190240    0.000000
     5  F     c    -0.156366   -4.029517   -2.252251    0.000000
     6  F     c     1.905817   -1.525086   -2.425404    0.000000
     7  F     c     1.538773    0.612030   -2.274501    0.000000
     8  F     c    -1.391344    1.675477   -2.374625    0.000000
     9  F     c    -0.819394   -1.194591   -0.747306    0.000000
    10  F     c    -0.507747   -1.113691   -3.320479    0.000000
    11  F     c     0.501382    0.443451   -0.046406    0.000000
    12  F     c     1.331266   -2.341869   -0.059175    0.000000
    13  F     s     3.283671   -0.259222    0.051391    0.000000
    14  F     s    -0.087853   -3.762594   -2.187090    0.000000
    15  F     s     1.732844   -1.560423   -2.176645    0.000000
    16  F     s     1.364366    0.521716   -2.120210    0.000000
    17  F     s    -1.219561    1.464747   -2.299623    0.000000
    18  F     s    -0.655764   -1.185485   -1.021401    0.000000
    19  F     s    -0.392808   -1.057770   -3.049029    0.000000
    20  F     s     0.619881    0.335578   -0.237025    0.000000
    21  F     s     1.301590   -2.133936   -0.260566    0.000000
--------------------------------------------------------------------------------


  Final Cartesian derivatives :

--------------------------------------------------------------------------------
   No.  Atomic          x             y             z           Radius
        Label       (eV/Angs)     (eV/Angs)    (eV/Angs)      (eV/Angs)
--------------------------------------------------------------------------------
      1 Al    c       0.000000      0.000000      0.000000      0.000000
      2 Al    c       0.000000      0.000000      0.000000      0.000000
      3 Al    c       0.000000      0.000000      0.000000      0.000000
      4 F     c       0.000000      0.000000      0.000000      0.000000
      5 F     c       0.000000      0.000000      0.000000      0.000000
      6 F     c       0.000000      0.000000      0.000000      0.000000
      7 F     c       0.000000      0.000000      0.000000      0.000000
      8 F     c       0.000000      0.000000      0.000000      0.000000
      9 F     c       0.000000      0.000000      0.000000      0.000000
     10 F     c       0.000000      0.000000      0.000000      0.000000
     11 F     c       0.000000      0.000000      0.000000      0.000000
     12 F     c       0.000000      0.000000      0.000000      0.000000
     13 F     s       0.000000      0.000000      0.000000      0.000000
     14 F     s      -0.000000     -0.000000     -0.000000      0.000000
     15 F     s      -0.000000     -0.000000     -0.000000      0.000000
     16 F     s       0.000000      0.000000     -0.000000      0.000000
     17 F     s       0.000000     -0.000000      0.000000      0.000000
     18 F     s      -0.000000     -0.000000      0.000000      0.000000
     19 F     s      -0.000000      0.000000     -0.000000      0.000000
     20 F     s      -0.000000      0.000000      0.000000      0.000000
     21 F     s       0.000000     -0.000000      0.000000      0.000000
--------------------------------------------------------------------------------
  Maximum abs         0.000000      0.000000      0.000000      0.000000
--------------------------------------------------------------------------------


  Born effective charge tensors : 

-------------------------------------------------------------------------------
  Atom             x           y             z
-------------------------------------------------------------------------------
    1 Al    x       1.0809     -0.2193      0.4121
            y      -0.1962      0.8071     -0.2953
            z       0.3145     -0.2589      1.4783
-------------------------------------------------------------------------------
    2 Al    x       0.8534      0.0333     -0.1228
            y       0.0261      1.3358     -0.1943
            z      -0.0381     -0.1380      1.3435
-------------------------------------------------------------------------------
    3 Al    x       0.8882      0.1780      0.0615
            y       0.1594      1.1175      0.2137
            z       0.0873      0.1184      1.4993
-------------------------------------------------------------------------------
    4 F     x      -0.0819      0.0953      0.2650
            y       0.0967     -0.5119      0.0664
            z       0.2198      0.0502     -0.4012
-------------------------------------------------------------------------------
    5 F     x      -0.5026      0.1485      0.0145
            y       0.1445      0.0112      0.1413
            z       0.0255      0.1336     -0.5102
-------------------------------------------------------------------------------
    6 F     x      -0.2572      0.1053     -0.0675
            y       0.0740     -0.4601     -0.1073
            z      -0.0674     -0.0733     -0.4742
-------------------------------------------------------------------------------
    7 F     x      -0.1696      0.1072     -0.1299
            y       0.1221     -0.5243      0.1555
            z      -0.0940      0.1126     -0.5383
-------------------------------------------------------------------------------
    8 F     x      -0.2942     -0.2869      0.0999
            y      -0.2731     -0.1997     -0.1318
            z       0.0762     -0.0981     -0.5028
-------------------------------------------------------------------------------
    9 F     x      -0.3857     -0.1073     -0.0711
            y      -0.0792     -0.4151      0.0919
            z      -0.0643      0.0697     -0.3723
-------------------------------------------------------------------------------
   10 F     x      -0.3584      0.0994     -0.0702
            y       0.0755     -0.5191      0.0940
            z      -0.1044      0.0773     -0.4204
-------------------------------------------------------------------------------
   11 F     x      -0.3302     -0.1036     -0.2264
            y      -0.1381     -0.3074      0.0125
            z      -0.1884      0.0256     -0.5967
-------------------------------------------------------------------------------
   12 F     x      -0.4427     -0.0498     -0.1652
            y      -0.0118     -0.3340     -0.0467
            z      -0.1668     -0.0191     -0.5051
-------------------------------------------------------------------------------




  Moment of inertia tensor (10^-46 x kgm^2): 

-------------------------------------------------------------------------------
                x           y           z           Principal axis system
-------------------------------------------------------------------------------
       x        138.91        2.87      -30.15          118.637925
       y          2.87      121.34       -3.22          121.198580
       z        -30.15       -3.22      163.93          184.350318
-------------------------------------------------------------------------------
  Centre of mass (Ang) =     0.658350    -0.853293    -1.478878
-------------------------------------------------------------------------------


  Vibrational Frequency Calculation : 

--------------------------------------------------------------------------------

  Frequencies (cm-1) and Eigenvectors : 

  Frequency     -61.3715  -24.7799   -0.0000    0.0000    0.0000    6.4110
  IR Intensity    0.0107    0.0001    0.0000    0.0000    0.0000    0.0022
     in X         0.0056    0.0001    0.0000    0.0000    0.0000    0.0015
     in Y         0.0035    0.0000    0.0000    0.0000    0.0000    0.0000
     in Z         0.0015    0.0000    0.0000    0.0000    0.0000    0.0006
  Raman Intsty    0.1707    0.0066    0.0000    0.0000    0.0000    2.5700

     1 x      -0.089210 -0.265912  0.089856 -0.307243 -0.067945  0.086529
     1 y       0.040517  0.070208 -0.314385 -0.090646 -0.005872  0.048147
     1 z       0.278402  0.032617  0.013308 -0.066887  0.320059 -0.177582
     2 x       0.125854  0.071462  0.089856 -0.307243 -0.067945 -0.186768
     2 y      -0.151116 -0.219453 -0.314385 -0.090646 -0.005872 -0.047722
     2 z      -0.000595 -0.034030  0.013308 -0.066887  0.320059  0.354815
     3 x       0.083284  0.175213  0.089856 -0.307243 -0.067945  0.042047
     3 y       0.036602  0.159271 -0.314385 -0.090646 -0.005872  0.015476
     3 z      -0.222184  0.005121  0.013308 -0.066887  0.320059 -0.211566
     4 x       0.113475  0.136279  0.075405 -0.257833 -0.057018 -0.164842
     4 y      -0.269972 -0.383886 -0.263826 -0.076068 -0.004927 -0.207042
     4 z       0.043716 -0.088105  0.011168 -0.056130  0.268588  0.389090
     5 x       0.191844 -0.443419  0.075405 -0.257833 -0.057018 -0.009528
     5 y       0.014224  0.102446 -0.263826 -0.076068 -0.004927  0.060479
     5 z       0.022983  0.083585  0.011168 -0.056130  0.268588 -0.144284
     6 x      -0.138287 -0.112873  0.075405 -0.257833 -0.057018  0.177863
     6 y       0.345890 -0.180734 -0.263826 -0.076068 -0.004927  0.026636
     6 z       0.192655 -0.003500  0.011168 -0.056130  0.268588  0.182728
     7 x      -0.056188  0.171859  0.075405 -0.257833 -0.057018  0.070860
     7 y       0.414997 -0.141034 -0.263826 -0.076068 -0.004927 -0.020366
     7 z      -0.227088 -0.078308  0.011168 -0.056130  0.268588  0.215547
     8 x      -0.254768  0.282305  0.075405 -0.257833 -0.057018  0.066167
     8 y      -0.195386  0.246501 -0.263826 -0.076068 -0.004927 -0.015136
     8 z      -0.032491  0.002485  0.011168 -0.056130  0.268588 -0.357789
     9 x      -0.152151 -0.017343  0.075405 -0.257833 -0.057018  0.066282
     9 y       0.148883  0.238791 -0.263826 -0.076068 -0.004927  0.137750
     9 z       0.006765  0.053718  0.011168 -0.056130  0.268588 -0.204177
    10 x       0.079334 -0.074872  0.075405 -0.257833 -0.057018  0.198680
    10 y      -0.157735  0.108955 -0.263826 -0.076068 -0.004927 -0.023792
    10 z       0.026533  0.036928  0.011168 -0.056130  0.268588 -0.215802
    11 x       0.167890  0.250285  0.075405 -0.257833 -0.057018 -0.092486
    11 y      -0.065059  0.076802 -0.263826 -0.076068 -0.004927  0.094877
    11 z      -0.189595 -0.026271  0.011168 -0.056130  0.268588  0.128723
    12 x      -0.094061 -0.169296  0.075405 -0.257833 -0.057018 -0.243652
    12 y      -0.147664 -0.079790 -0.263826 -0.076068 -0.004927 -0.072353
    12 z       0.090241  0.015051  0.011168 -0.056130  0.268588  0.046877


  Frequency      30.9319   48.0292  107.1888  125.3227  132.7981  136.2870
  IR Intensity    0.0020    0.0069    0.0009    0.0338    0.0156    0.0059
     in X         0.0012    0.0046    0.0004    0.0241    0.0009    0.0006
     in Y         0.0004    0.0014    0.0001    0.0004    0.0036    0.0003
     in Z         0.0005    0.0009    0.0005    0.0093    0.0111    0.0051
  Raman Intsty    0.0979    0.2146    0.0001    0.0036    0.0203    0.0393

     1 x       0.082048  0.119718  0.074014 -0.094422  0.089423  0.033041
     1 y       0.103808  0.044630 -0.066802  0.010218  0.004678 -0.017426
     1 z      -0.266753 -0.031598  0.180352  0.087063 -0.037635 -0.043543
     2 x       0.015823 -0.034323 -0.027073 -0.102872 -0.028546 -0.107462
     2 y      -0.089670  0.109158  0.137323 -0.007453  0.110832  0.004910
     2 z       0.050176  0.068943 -0.026306  0.041604 -0.169847  0.117963
     3 x      -0.146774 -0.190203 -0.080499 -0.104029 -0.131916  0.032876
     3 y       0.030465 -0.079962 -0.092093  0.034307 -0.000891  0.001490
     3 z       0.189120 -0.072329 -0.095680  0.075467 -0.027276 -0.217213
     4 x       0.153647  0.178834  0.188152  0.104194 -0.177254  0.120568
     4 y      -0.319084 -0.033918 -0.144499 -0.125412 -0.407769 -0.020517
     4 z      -0.122678 -0.288787 -0.325353 -0.294649  0.376718 -0.311735
     5 x      -0.013948 -0.125735 -0.062317  0.602353  0.339663  0.122380
     5 y       0.138166 -0.001389 -0.045805 -0.063541 -0.169048 -0.102708
     5 z      -0.348548  0.383039  0.243340 -0.364026  0.410216  0.228629
     6 x       0.078471  0.156724 -0.127166 -0.022880 -0.016484  0.110690
     6 y       0.159788 -0.069069  0.173105 -0.112082  0.060234 -0.115826
     6 z      -0.108699  0.025007 -0.090268  0.129653 -0.244020  0.136804
     7 x      -0.167932 -0.197132 -0.034883 -0.079836 -0.113943  0.067907
     7 y       0.118672 -0.151069  0.242128 -0.160028 -0.039378 -0.077197
     7 z       0.200921 -0.063153  0.374317 -0.014186 -0.095350  0.014129
     8 x      -0.244866 -0.262953  0.279155  0.186940  0.110477 -0.094883
     8 y      -0.024189 -0.213024  0.152796  0.192017  0.239780  0.119148
     8 z       0.336672 -0.255583 -0.300902 -0.181767  0.141327  0.566979
     9 x       0.147221  0.262483 -0.148466 -0.038654  0.065567 -0.136121
     9 y       0.025477  0.212155 -0.039465  0.045463  0.034149  0.034638
     9 z       0.013777  0.081211 -0.092026  0.125601 -0.030850 -0.300825
    10 x      -0.051482 -0.070265  0.055696 -0.187317 -0.163715  0.220838
    10 y       0.112940 -0.249634  0.011904 -0.036729  0.005368  0.072175
    10 z      -0.033045 -0.021642 -0.049958  0.131806 -0.026738 -0.257900
    11 x       0.153604  0.204177 -0.183396  0.003877  0.032355 -0.132410
    11 y      -0.093298  0.313267 -0.299260  0.134634  0.110738  0.015856
    11 z       0.326239  0.147982  0.256061  0.054744 -0.020767 -0.052860
    12 x       0.003559 -0.021241  0.073214 -0.209609  0.007986 -0.229462
    12 y      -0.171622  0.104707 -0.025197  0.081501  0.029341  0.087571
    12 z      -0.231921  0.033614 -0.084761  0.169569 -0.230789  0.146937


  Frequency     150.9202  160.9298  199.2575  231.2212  244.3315  255.7471
  IR Intensity    0.0077    0.0330    0.0123    0.0036    0.0098    0.0034
     in X         0.0046    0.0052    0.0006    0.0002    0.0005    0.0028
     in Y         0.0024    0.0256    0.0113    0.0000    0.0089    0.0005
     in Z         0.0007    0.0022    0.0004    0.0035    0.0005    0.0001
  Raman Intsty    0.0101    1.6010    0.0041    0.0110    1.1277    0.0416

     1 x      -0.256070 -0.069689  0.071029  0.112720 -0.031679 -0.090735
     1 y       0.176882 -0.131242  0.078047  0.008343 -0.178765  0.053349
     1 z      -0.407254 -0.085250 -0.031978 -0.291427 -0.019628 -0.254404
     2 x       0.027608 -0.167547  0.106046 -0.119703 -0.145288  0.204111
     2 y      -0.295109 -0.152833 -0.180931 -0.033905  0.004706  0.118845
     2 z       0.077852  0.319365 -0.012244  0.148601 -0.225699  0.178674
     3 x       0.123262  0.104108 -0.220099 -0.031078  0.101168  0.086301
     3 y       0.196463 -0.020067 -0.082628  0.025953 -0.122258 -0.256180
     3 z       0.292034 -0.319937  0.009768  0.244553  0.177072  0.074989
     4 x      -0.005002 -0.035657 -0.058005  0.075380 -0.226812  0.254541
     4 y       0.211947  0.226729  0.369905 -0.252917  0.087907  0.022856
     4 z      -0.083253 -0.094092  0.057808 -0.140352 -0.124876  0.162079
     5 x       0.289383  0.022085 -0.054404 -0.175707 -0.044940 -0.041037
     5 y      -0.155157 -0.161067  0.089122 -0.008653 -0.175930 -0.007873
     5 z       0.388332  0.005672  0.038691  0.093291 -0.050129 -0.059533
     6 x      -0.050335 -0.257024  0.220511  0.164781 -0.111968 -0.214840
     6 y       0.014494  0.207366  0.076746  0.263787  0.084050  0.244759
     6 z      -0.022648 -0.002942  0.155223  0.212876 -0.120129 -0.101972
     7 x       0.087665  0.070897 -0.342440 -0.120413  0.080767  0.039847
     7 y       0.038217  0.080972  0.003941  0.148858  0.300052 -0.079227
     7 z       0.062280  0.051711 -0.207735 -0.243263  0.157509  0.035659
     8 x      -0.089651  0.118900  0.272276  0.165552  0.178338  0.200307
     8 y      -0.137618  0.135508  0.342437  0.103917 -0.087386 -0.173837
     8 z      -0.222897  0.148617  0.059789 -0.057254  0.114605  0.101055
     9 x      -0.095765  0.354467 -0.096666  0.072089  0.170050 -0.285611
     9 y       0.012696  0.065661  0.078620 -0.427125  0.012547 -0.083922
     9 z      -0.033087  0.068562 -0.059210  0.076401  0.135192 -0.175071
    10 x       0.020170 -0.368438  0.056948  0.034989  0.347411 -0.240591
    10 y       0.177134 -0.059905 -0.305159  0.019537 -0.210896 -0.285110
    10 z      -0.005394 -0.080793 -0.025845  0.107985  0.066184 -0.099603
    11 x       0.071646  0.003939  0.216251 -0.226686  0.108901  0.148488
    11 y      -0.133565  0.140637 -0.214958  0.138743  0.326723  0.093269
    11 z       0.049905 -0.010707  0.095580 -0.308720  0.022505  0.067784
    12 x      -0.102750  0.249472 -0.163202  0.055369 -0.411420 -0.099048
    12 y      -0.121379 -0.273474 -0.219592  0.013385  0.016034  0.369167
    12 z      -0.088709  0.016242 -0.073242  0.137814 -0.119524  0.070487


  Frequency     286.0295  298.4436  307.3610  313.7687  366.1283  372.2304
  IR Intensity    0.0150    0.0212    0.0081    0.0519    0.0028    0.0089
     in X         0.0050    0.0045    0.0022    0.0313    0.0001    0.0010
     in Y         0.0000    0.0137    0.0046    0.0120    0.0000    0.0021
     in Z         0.0099    0.0029    0.0014    0.0086    0.0027    0.0058
  Raman Intsty    0.0002    1.4844    0.3432    0.0182    0.0019    0.0001

     1 x      -0.027500 -0.085455  0.061269  0.329733 -0.023669  0.126968
     1 y      -0.020293 -0.154947  0.074177 -0.160203  0.172359  0.049598
     1 z       0.120071 -0.049451  0.035863  0.231198  0.056029 -0.069315
     2 x      -0.100788  0.093035 -0.060710  0.041575  0.124904 -0.045342
     2 y      -0.005042 -0.075746  0.027587 -0.072230 -0.091673 -0.248382
     2 z       0.111087 -0.025917  0.036784 -0.032982  0.163466 -0.051228
     3 x      -0.084269 -0.161740  0.090686  0.016276 -0.152241 -0.045462
     3 y       0.005727 -0.024178  0.017551  0.014756 -0.144767  0.218361
     3 z       0.098306 -0.026955 -0.016192 -0.048540 -0.147857 -0.012718
     4 x      -0.020240  0.023083 -0.010933 -0.011751  0.214100 -0.148411
     4 y      -0.002905  0.013572  0.006376  0.123487  0.071954 -0.041834
     4 z      -0.055016  0.106353 -0.072860 -0.019860  0.071163 -0.047616
     5 x       0.028776 -0.034726  0.016737 -0.061392  0.075045 -0.002473
     5 y       0.002402 -0.199054  0.104881 -0.016811  0.225978  0.098175
     5 z      -0.036081 -0.045355  0.028523  0.039938  0.061160  0.000922
     6 x      -0.238344 -0.026280  0.319145  0.079547 -0.038528 -0.005849
     6 y       0.225727 -0.370628 -0.208176  0.277595 -0.064874  0.093580
     6 z      -0.021119  0.076332  0.099568 -0.093251 -0.223892 -0.418402
     7 x      -0.065368 -0.255159  0.164238  0.070494 -0.115734  0.049417
     7 y      -0.382160  0.406599  0.181232 -0.160253 -0.079308 -0.065104
     7 z      -0.060144  0.148932  0.243606 -0.000830  0.347188  0.263165
     8 x      -0.008367 -0.018019  0.001772 -0.061219 -0.006106 -0.182524
     8 y       0.034226  0.108990 -0.051221 -0.052190  0.038213  0.216620
     8 z      -0.033934 -0.075265  0.048180 -0.089838  0.001273 -0.023342
     9 x      -0.337933 -0.088129 -0.369750 -0.016041  0.013242 -0.014406
     9 y      -0.050620 -0.199151 -0.024669 -0.287314 -0.157636 -0.013011
     9 z      -0.074095 -0.142062 -0.166254 -0.190548  0.425332 -0.201814
    10 x       0.424157 -0.000466 -0.303083 -0.281085  0.112773  0.074682
    10 y       0.066116  0.232668 -0.220478  0.415910  0.065336 -0.338711
    10 z      -0.046449 -0.183063  0.271794  0.078826 -0.185449  0.257157
    11 x       0.135249  0.379347 -0.012784  0.241850 -0.003272  0.081134
    11 y       0.383383  0.227959  0.294290  0.086080  0.044294 -0.042672
    11 z       0.073121  0.001928 -0.162059  0.039251 -0.472910 -0.134093
    12 x       0.335362  0.204053  0.085927 -0.422262 -0.190739  0.105337
    12 y      -0.252803  0.082759 -0.224415 -0.127112 -0.067594  0.069629
    12 z      -0.138883  0.234133 -0.357771  0.057952 -0.109233  0.462821


  Frequency     401.6702  415.3955  427.3529  488.6118  505.2449  550.4036
  IR Intensity    0.0138    0.0109    0.0912    0.0348    0.0112    0.1882
     in X         0.0012    0.0002    0.0045    0.0030    0.0021    0.0034
     in Y         0.0052    0.0002    0.0127    0.0232    0.0057    0.0115
     in Z         0.0074    0.0105    0.0741    0.0086    0.0035    0.1733
  Raman Intsty    1.6982    0.6772    0.1726    0.1369    5.3302    0.0224

     1 x      -0.007665  0.077073 -0.123155  0.020944 -0.013670 -0.141412
     1 y      -0.164789  0.136729  0.099191  0.085797  0.091514  0.118510
     1 z      -0.017564  0.051794 -0.071164  0.094843 -0.024759 -0.343554
     2 x       0.087467 -0.154653 -0.041639  0.096925 -0.093589  0.113695
     2 y       0.091485 -0.061588  0.005997  0.137357 -0.116332  0.272154
     2 z       0.306093  0.249812 -0.144073 -0.145515  0.103127 -0.314551
     3 x      -0.006938  0.114382  0.050837 -0.010761  0.016433 -0.040403
     3 y       0.234763 -0.075126  0.127689  0.109675 -0.128692 -0.145893
     3 z      -0.122808 -0.097737 -0.311961  0.247235 -0.198591 -0.344462
     4 x       0.355891 -0.049105 -0.180119  0.125048 -0.210626  0.155701
     4 y       0.084158 -0.003780 -0.042220  0.019589 -0.039897  0.023877
     4 z       0.146375 -0.039078 -0.050343  0.059682 -0.099861  0.111154
     5 x      -0.067614  0.076618  0.015577  0.089724  0.087766  0.010036
     5 y      -0.263480  0.278632  0.083004  0.350370  0.323346 -0.014484
     5 z      -0.070336  0.054640  0.049016  0.076406  0.081084  0.034177
     6 x      -0.140388  0.018662  0.042016 -0.381115 -0.256349 -0.016134
     6 y      -0.151868 -0.251371  0.076881 -0.186635 -0.087024  0.015811
     6 z      -0.120075 -0.468964  0.230824  0.151568  0.185067  0.057510
     7 x      -0.015538 -0.003629  0.264108  0.085293 -0.224329 -0.043886
     7 y       0.047969  0.254816 -0.062450  0.028922 -0.046335 -0.061613
     7 z      -0.151277 -0.403725  0.027544 -0.010944  0.055890  0.068933
     8 x      -0.225960  0.130215 -0.176294 -0.067405  0.168997  0.061325
     8 y       0.263095 -0.134970  0.192008  0.066854 -0.182286 -0.072132
     8 z      -0.069444  0.029218 -0.016602 -0.032782  0.060711  0.053539
     9 x       0.066007 -0.143615 -0.075858  0.296020  0.206839 -0.025364
     9 y      -0.133796 -0.157466 -0.493849 -0.255925 -0.095998 -0.021924
     9 z      -0.069523  0.124928  0.322902 -0.321766 -0.262668  0.050886
    10 x       0.184791  0.033001  0.004774 -0.055513  0.111286  0.092238
    10 y      -0.095704  0.034472 -0.179696 -0.231333  0.147957  0.125902
    10 z       0.378235 -0.013358 -0.116433 -0.229204  0.407724  0.384037
    11 x      -0.067829 -0.072045  0.224053 -0.114155  0.180157 -0.093820
    11 y      -0.023401  0.075191 -0.039093  0.096176 -0.119047  0.098363
    11 z       0.060116  0.336074  0.287827  0.032866 -0.079156  0.130126
    12 x      -0.176187 -0.033957  0.017540 -0.105531  0.044490 -0.058923
    12 y       0.080627 -0.095541  0.187909 -0.284628  0.282211 -0.385479
    12 z      -0.301549  0.137327 -0.106506  0.039941 -0.205528  0.304335


  Frequency     596.9458  652.6674  665.5729  793.5345  812.4582  905.6769
  IR Intensity    0.0008    0.0834    0.0661    0.0159    0.0053    0.0000
     in X         0.0004    0.0018    0.0573    0.0114    0.0001    0.0000
     in Y         0.0002    0.0784    0.0004    0.0008    0.0051    0.0000
     in Z         0.0001    0.0032    0.0084    0.0037    0.0001    0.0000
  Raman Intsty    0.0000    0.0000    0.0001    0.0016    0.0139    2.9082

     1 x      -0.344504 -0.041975  0.557400 -0.075918 -0.162864 -0.149532
     1 y       0.038320  0.078326 -0.103319  0.076918 -0.527313 -0.549006
     1 z       0.234518  0.026663 -0.204092  0.005759 -0.121501 -0.125100
     2 x       0.126028 -0.110924  0.128156  0.529218 -0.303330  0.414533
     2 y      -0.285005  0.511298 -0.193989  0.116462  0.092846  0.083709
     2 z      -0.167366  0.158962 -0.142022  0.204659 -0.081565  0.160798
     3 x       0.254078  0.297038  0.283352  0.309007  0.382460 -0.327588
     3 y       0.216112  0.373763  0.228502 -0.365954 -0.193625  0.339347
     3 z      -0.104175  0.009628 -0.083401  0.060424  0.088228 -0.070163
     4 x       0.120581 -0.144949 -0.021971 -0.408365  0.184899 -0.199452
     4 y       0.032338 -0.054503  0.002778 -0.092015  0.037885 -0.045395
     4 z       0.067024 -0.083066 -0.000081 -0.209597  0.092117 -0.100296
     5 x      -0.002999 -0.035956 -0.022504 -0.009929  0.103729  0.072892
     5 y      -0.027548 -0.151294  0.018163 -0.042527  0.398635  0.281156
     5 z      -0.013817 -0.036353  0.013949 -0.012536  0.094542  0.066725
     6 x       0.270552  0.028092 -0.324960  0.010407  0.112335  0.074313
     6 y       0.130319 -0.048930 -0.122960 -0.006054  0.056903  0.042095
     6 z      -0.090175 -0.083204  0.167833 -0.031015 -0.020305 -0.028715
     7 x      -0.395717 -0.332253 -0.285736 -0.118572 -0.157066  0.089376
     7 y      -0.091818 -0.091795 -0.034321 -0.010473 -0.018558  0.009134
     7 z       0.105687  0.077088  0.066627  0.002122  0.017583 -0.007744
     8 x       0.098113  0.115330  0.002396 -0.245548 -0.192440  0.151854
     8 y      -0.123960 -0.167706 -0.025820  0.291438  0.221556 -0.179333
     8 z       0.039884  0.044696  0.011208 -0.087825 -0.066137  0.052111
     9 x       0.142189 -0.012712 -0.230641  0.027567 -0.055152 -0.038323
     9 y      -0.166563 -0.111064  0.121089  0.005268  0.076619  0.040834
     9 z      -0.127949  0.028483  0.244089 -0.038143  0.039014  0.051041
    10 x      -0.008638 -0.019181 -0.060272 -0.006816 -0.008607  0.012684
    10 y      -0.048343 -0.109338 -0.027165  0.042962  0.032385 -0.017912
    10 z      -0.056739 -0.091612 -0.048567  0.025706 -0.003094 -0.011502
    11 x      -0.299074  0.282830 -0.177300 -0.117328  0.099405 -0.065095
    11 y       0.222849 -0.227400  0.095572  0.076944 -0.064767  0.041196
    11 z       0.174602 -0.150745  0.075085  0.024244 -0.030928  0.015971
    12 x       0.032568 -0.052963 -0.033598 -0.039810  0.012678 -0.023670
    12 y       0.109158 -0.185978  0.054657 -0.059896  0.007802 -0.021689
    12 z      -0.054399  0.062044 -0.018317  0.004299  0.014054  0.003478




--------------------------------------------------------------------------------
  Vibrational properties (for cluster):  Temperature  =       0.000 K
--------------------------------------------------------------------------------
  Zero point energy            =        0.680830 eV
--------------------------------------------------------------------------------

  Phonon density of states : 

--------------------------------------------------------------------------------
 Frequency (cm-1) Density of States                                             
--------------------------------------------------------------------------------
    0.00000 |************************************************************  0.091
   14.15120 |                                                              0.000
   28.30240 |********************                                          0.030
   42.45361 |********************                                          0.030
   56.60481 |                                                              0.000
   70.75601 |                                                              0.000
   84.90721 |                                                              0.000
   99.05842 |********************                                          0.030
  113.20962 |********************                                          0.030
  127.36082 |****************************************                      0.061
  141.51202 |********************                                          0.030
  155.66322 |********************                                          0.030
  169.81443 |                                                              0.000
  183.96563 |                                                              0.000
  198.11683 |********************                                          0.030
  212.26803 |                                                              0.000
  226.41924 |********************                                          0.030
  240.57044 |********************                                          0.030
  254.72164 |********************                                          0.030
  268.87284 |                                                              0.000
  283.02405 |********************                                          0.030
  297.17525 |****************************************                      0.061
  311.32645 |********************                                          0.030
  325.47765 |                                                              0.000
  339.62885 |                                                              0.000
  353.78006 |********************                                          0.030
  367.93126 |********************                                          0.030
  382.08246 |                                                              0.000
  396.23366 |********************                                          0.030
  410.38487 |********************                                          0.030
  424.53607 |********************                                          0.030
  438.68727 |                                                              0.000
  452.83847 |                                                              0.000
  466.98967 |                                                              0.000
  481.14088 |********************                                          0.030
  495.29208 |********************                                          0.030
  509.44328 |                                                              0.000
  523.59448 |                                                              0.000
  537.74569 |********************                                          0.030
  551.89689 |                                                              0.000
  566.04809 |                                                              0.000
  580.19929 |                                                              0.000
  594.35050 |********************                                          0.030
  608.50170 |                                                              0.000
  622.65290 |                                                              0.000
  636.80410 |                                                              0.000
  650.95530 |********************                                          0.030
  665.10651 |********************                                          0.030
  679.25771 |                                                              0.000
  693.40891 |                                                              0.000
  707.56011 |                                                              0.000
  721.71132 |                                                              0.000
  735.86252 |                                                              0.000
  750.01372 |                                                              0.000
  764.16492 |                                                              0.000
  778.31612 |                                                              0.000
  792.46733 |********************                                          0.030
  806.61853 |********************                                          0.030
  820.76973 |                                                              0.000
  834.92093 |                                                              0.000
  849.07214 |                                                              0.000
  863.22334 |                                                              0.000
  877.37454 |                                                              0.000
  891.52574 |********************                                          0.030
--------------------------------------------------------------------------------



  Time to end of optimisation =       0.0356 seconds


  Peak dynamic memory used =       0.65 MB 


  Timing analysis for GULP :

--------------------------------------------------------------------------------
  Task / Subroutine                                          Time (Seconds)
--------------------------------------------------------------------------------
  Calculation of real space energy and derivatives                0.0024
  Calculation of phonons                                          0.0018
  Calculation and manipulation of Hessian matrix                  0.0015
--------------------------------------------------------------------------------
  Total CPU time                                                  0.0357
--------------------------------------------------------------------------------


  Job Finished at 14:40.18 25th May        2022                               

