------------------------------------------------------------
          Invoking FHI-aims ...

          When using FHI-aims, please cite the following reference:

            Volker Blum, Ralf Gehrke, Felix Hanke, Paula Havu,
            Ville Havu, Xinguo Ren, Karsten Reuter, and Matthias Scheffler,
            'Ab Initio Molecular Simulations with Numeric Atom-Centered Orbitals',
            Computer Physics Communications 180, 2175-2196 (2009)

          In addition, many other developments in FHI-aims are likely important for
          your particular application. A partial list of references is given at the end of
          this file. Thank you for giving credit to the authors of these developments.

          For any questions about FHI-aims, please visit our slack channel at

            https://fhi-aims.slack.com

          and our main development and support site at

            https://aims-git.rz-berlin.mpg.de .

          The latter site, in particular, has a wiki to collect information, as well
          as an issue tracker to log discussions, suggest improvements, and report issues
          or bugs. https://aims-git.rz-berlin.mpg.de is also the main development site
          of the project and all new and updated code versions can be obtained there.
          Please send an email to aims-coordinators@fhi-berlin.mpg.de and we will add
          you to these sites. They are for you and everyone is welcome there.

------------------------------------------------------------



  Date     :  20220517, Time     :  120211.504
  Time zero on CPU 1             :   0.377070000000000E-01  s.
  Internal wall clock time zero  :           422020931.504  s.

  FHI-aims created a unique identifier for this run for later identification
  aims_uuid : 0F22C8C5-7172-4141-AF2A-D19657FD5D22

  Build configuration of the current instance of FHI-aims
  -------------------------------------------------------
  FHI-aims version      : 210914
  Commit number         : GITDIR-NOTFOUND
  CMake host system     : Linux-3.10.0-693.17.1.el7.x86_64
  CMake version         : 3.21.1
  Fortran compiler      : /shared/ucl/apps/intel/2018.Update3/impi/2018.3.222/intel64/bin/mpiifort (Intel) version 18.0.3.20180410
  Fortran compiler flags: -O3 -ip -fp-model precise
  C compiler            : /shared/ucl/apps/intel/2018.Update3/compilers_and_libraries_2018.3.222/linux/bin/intel64/icc (Intel) version 18.0.3.20180410
  C compiler flags      : -O3 -ip -fp-model precise -std=gnu99
  ELPA2 kernel          : AVX2
  Using MPI
  Using ScaLAPACK
  Using LibXC
  Using i-PI
  Using RLSY
  Linking against: /shared/ucl/apps/intel/2019.Update5/compilers_and_libraries_2019.5.281/linux/mkl/lib/intel64/libmkl_intel_lp64.so
                   /shared/ucl/apps/intel/2019.Update5/compilers_and_libraries_2019.5.281/linux/mkl/lib/intel64/libmkl_sequential.so
                   /shared/ucl/apps/intel/2019.Update5/compilers_and_libraries_2019.5.281/linux/mkl/lib/intel64/libmkl_core.so
                   /shared/ucl/apps/intel/2019.Update5/compilers_and_libraries_2019.5.281/linux/mkl/lib/intel64/libmkl_blacs_intelmpi_lp64.so
                   /shared/ucl/apps/intel/2019.Update5/compilers_and_libraries_2019.5.281/linux/mkl/lib/intel64/libmkl_scalapack_lp64.so

  Using       24 parallel tasks.
  Task        0 on host node-k98a-019 reporting.
  Task        1 on host node-k98a-019 reporting.
  Task        2 on host node-k98a-019 reporting.
  Task        3 on host node-k98a-019 reporting.
  Task        4 on host node-k98a-019 reporting.
  Task        5 on host node-k98a-019 reporting.
  Task        6 on host node-k98a-019 reporting.
  Task        7 on host node-k98a-019 reporting.
  Task        8 on host node-k98a-019 reporting.
  Task        9 on host node-k98a-019 reporting.
  Task       10 on host node-k98a-019 reporting.
  Task       11 on host node-k98a-019 reporting.
  Task       12 on host node-k98a-019 reporting.
  Task       13 on host node-k98a-019 reporting.
  Task       14 on host node-k98a-019 reporting.
  Task       15 on host node-k98a-019 reporting.
  Task       16 on host node-k98a-019 reporting.
  Task       17 on host node-k98a-019 reporting.
  Task       18 on host node-k98a-019 reporting.
  Task       19 on host node-k98a-019 reporting.
  Task       20 on host node-k98a-019 reporting.
  Task       21 on host node-k98a-019 reporting.
  Task       22 on host node-k98a-019 reporting.
  Task       23 on host node-k98a-019 reporting.

  Performing system and environment tests:
  | Environment variable OMP_NUM_THREADS correctly set to 1.
  | Checking for ScaLAPACK...
  | Testing pdtran()...
  | All pdtran() tests passed.

  Obtaining array dimensions for all initial allocations:
  
  -----------------------------------------------------------------------
  Parsing control.in (first pass over file, find array dimensions only).
  The contents of control.in will be repeated verbatim below
  unless switched off by setting 'verbatim_writeout .false.' .
  in the first line of control.in .
  -----------------------------------------------------------------------
  
  #########################################################################################  Physical model
  #########################################################################################
  xc                 pbesol
  spin               none
  relativistic       atomic_zora scalar
  charge             0.0
  #  SCF convergence
  occupation_type    gaussian 0.01
  mixer              pulay
  n_max_pulay        10
  charge_mix_param   0.5
  sc_accuracy_rho    1E-5
  sc_accuracy_eev    1E-3
  sc_accuracy_etot   1E-6
  sc_accuracy_forces 1E-4
  sc_iter_limit      1500
  #  Relaxation
  #relax_geometry   bfgs 1.e-3
  
  ################################################################################
  #
  #  FHI-aims code project
  #  VB, Fritz-Haber Institut, 2009
  #
  #  Suggested "light" defaults for Al atom (to be pasted into control.in file)
  #  Be sure to double-check any results obtained with these settings for post-processing,
  #  e.g., with the "tight" defaults and larger basis sets.
  #
  ################################################################################
    species        Al
  #     global species definitions
      nucleus             13
      mass                26.9815386
  #
      l_hartree           4
  #
      cut_pot             3.5          1.5  1.0
      basis_dep_cutoff    1e-4
  #
      radial_base         41 5.0
      radial_multiplier   1
      angular_grids       specified
        division   0.6594  110
        division   0.8170  194
        division   0.9059  302
  #      division   1.0363  434
  #      division   1.1443  590
  #      division   1.2621  770
  #      division   2.8177  974
  #      outer_grid   974
        outer_grid   302
  ################################################################################
  #
  #  Definition of "minimal" basis
  #
  ################################################################################
  #     valence basis states
      valence      3  s   2.
      valence      3  p   1.
  #     ion occupancy
      ion_occ      3  s   1.
      ion_occ      2  p   6.
  ################################################################################
  #
  #  Suggested additional basis functions. For production calculations,
  #  uncomment them one after another (the most important basis functions are
  #  listed first).
  #
  #  Constructed for dimers: 2.0 A, 2.5 A, 3.0 A, 3.75 A, 4.5 A
  #
  ################################################################################
  #  "First tier" - improvements: -199.47 meV to -10.63 meV
       ionic 3 d auto
       ionic 3 p auto
  #     hydro 4 f 4.7
       ionic 3 s auto
  #  "Second tier" - improvements: -5.35 meV to -1.57 meV
  #     hydro 5 g 7
  #     hydro 3 d 6
  #     hydro 2 s 11.6
  #     hydro 2 p 0.9
  #  "Third tier" - improvements: -0.63 meV to -0.20 meV
  #     hydro 5 f 7.6
  #     hydro 4 p 7.2
  #     hydro 4 s 3.7
  #     hydro 4 d 7.6
  #  "Fourth tier" - improvements: -0.17 meV to -0.08 meV
  #     hydro 4 d 13.6
  #     hydro 5 g 11.2
  #     hydro 4 d 0.9
  #     hydro 1 s 0.4
  #     hydro 4 p 0.1
  #     hydro 5 f 9.8
  #  Further basis functions that fell out of the optimization - noise level...
  #     hydro 4 p 5
  
  ################################################################################
  #
  #  FHI-aims code project
  #  VB, Fritz-Haber Institut, 2009
  #
  #  Suggested "light" defaults for F atom (to be pasted into control.in file)
  #  Be sure to double-check any results obtained with these settings for post-processing,
  #  e.g., with the "tight" defaults and larger basis sets.
  #
  ################################################################################
    species        F
  #     global species definitions
      nucleus             9
      mass                18.9984032
  #
      l_hartree           4
  #
      cut_pot             3.5  1.5  1.0
      basis_dep_cutoff    1e-4
  #
      radial_base         37 5.0
      radial_multiplier   1
      angular_grids specified
        division   0.4014  110
        division   0.5291  194
        division   0.6019  302
  #      division   0.6814  434
  #      division   0.7989  590
  #      division   0.8965  770
  #      division   1.3427  974
  #      outer_grid   974
        outer_grid   302
  ################################################################################
  #
  #  Definition of "minimal" basis
  #
  ################################################################################
  #     valence basis states
      valence      2  s   2.
      valence      2  p   5.
  #     ion occupancy
      ion_occ      2  s   1.
      ion_occ      2  p   4.
  ################################################################################
  #
  #  Suggested additional basis functions. For production calculations,
  #  uncomment them one after another (the most important basis functions are
  #  listed first).
  #
  #  Constructed for dimers: 1.2 A, 1.418 A, 1.75 A, 2.25 A, 3.25 A
  #
  ################################################################################
  #  "First tier" - improvements: -149.44 meV to -45.88 meV
       hydro 2 p 1.7
       hydro 3 d 7.4
       hydro 3 s 6.8
  #  "Second tier" - improvements: -12.96 meV to -1.56 meV
  #     hydro 4 f 11.2
  #     ionic 2 p auto
  #     hydro 1 s 0.75
  #     hydro 4 d 8.8
  #     hydro 5 g 16.8
  #  "Third tier" - improvements: -0.58 meV to -0.05 meV
  #     hydro 3 p 6.2
  #     hydro 3 s 3.2
  #     hydro 4 f 9.6
  #     hydro 3 s 19.6
  #     hydro 4 d 8.6
  #     hydro 5 g 14.4
  # Further basis functions: -0.05 meV and below
  #     hydro 3 p 4.2
  
  -----------------------------------------------------------------------
  Completed first pass over input file control.in .
  -----------------------------------------------------------------------
  
  
  -----------------------------------------------------------------------
  Parsing geometry.in (first pass over file, find array dimensions only).
  The contents of geometry.in will be repeated verbatim below
  unless switched off by setting 'verbatim_writeout .false.' .
  in the first line of geometry.in .
  -----------------------------------------------------------------------
  
  atom -0.078291813 1.652230772 2.155710020 Al
  atom 2.536359696 2.630493825 1.779651175 Al
  atom 1.361646084 2.650310984 -0.632305654 Al
  atom 0.985230578 3.152412136 2.785964063 F
  atom -1.578293883 2.692141922 2.337588786 F
  atom -0.526213071 -0.110511466 2.470811030 F
  atom 1.839897753 0.888505993 2.041719465 F
  atom 2.933510145 1.796391453 -0.036688416 F
  atom 1.060494609 2.956664133 -2.392526212 F
  atom 1.810837694 4.032974587 0.591806067 F
  atom 4.121785368 3.175532777 2.445152380 F
  atom -0.022988991 1.844154610 0.256421893 F
  
  -----------------------------------------------------------------------
  Completed first pass over input file geometry.in .
  -----------------------------------------------------------------------
  

  Basic array size parameters:
  | Number of species                 :        2
  | Number of atoms                   :       12
  | Max. basis fn. angular momentum   :        2
  | Max. atomic/ionic basis occupied n:        3
  | Max. number of basis fn. types    :        3
  | Max. radial fns per species/type  :        5
  | Max. logarithmic grid size        :     1340
  | Max. radial integration grid size :       41
  | Max. angular integration grid size:      302
  | Max. angular grid division number :        8
  | Radial grid for Hartree potential :     1340
  | Number of spin channels           :        1

------------------------------------------------------------
          Reading file control.in.
------------------------------------------------------------
  XC: Using PBEsol gradient-corrected functionals.
  Spin treatment: No spin polarisation.
  Scalar relativistic treatment of kinetic energy: on-site free-atom approximation to ZORA.
  Charge =   0.000000E+00: Neutral system requested explicitly.
  Occupation type: Gaussian broadening, width =   0.100000E-01 eV.
  Using pulay charge density mixing.
  Pulay mixing - number of memorized iterations:   10
  Charge density mixing - mixing parameter:     0.5000
  Convergence accuracy of self-consistent charge density:  0.1000E-04
  Convergence accuracy of sum of eigenvalues:  0.1000E-02
  Convergence accuracy of total energy:  0.1000E-05
  Convergence accuracy of forces:  0.1000E-03
  Maximum number of s.-c. iterations  :  1500
 
  Reading configuration options for species Al                  .
  | Found nuclear charge :  13.0000
  | Found atomic mass :    26.9815386000000      amu
  | Found l_max for Hartree potential  :   4
  | Found cutoff potl. onset [A], width [A], scale factor :    3.50000    1.50000    1.00000
  | Threshold for basis-dependent cutoff potential is   0.100000E-03
  | Found data for basic radial integration grid :    41 points, outermost radius =    5.000 A
  | Found multiplier for basic radial grid :   1
  | Found angular grid specification: user-specified.
  | Specified grid contains     4 separate shells.
  | Check grid settings after all constraints further below.
  | Found free-atom valence shell :  3 s   2.000
  | Found free-atom valence shell :  3 p   1.000
  | Found free-ion valence shell :  3 s   1.000
  | Found free-ion valence shell :  2 p   6.000
  | Found ionic basis function :  3 d , default cutoff radius.
  | Found ionic basis function :  3 p , default cutoff radius.
  | Found ionic basis function :  3 s , default cutoff radius.
  Species Al                  : Missing cutoff potential type.
  Defaulting to exp(1/x)/(1-x)^2 type cutoff potential.
  Species Al: No 'logarithmic' tag. Using default grid for free atom:
  | Default logarithmic grid data [bohr] : 0.1000E-03 0.1000E+03 0.1012E+01
  | Will include ionic basis functions of  2.0-fold positive Al                   ion.
  Species Al: On-site basis accuracy parameter (for Gram-Schmidt orthonormalisation) not specified.
  Using default value basis_acc =  0.1000000E-03.
  Species Al                  : Using default innermost maximum threshold i_radial=  2 for radial functions.
  Species Al                  : Default cutoff onset for free atom density etc. : 0.35000000E+01 AA.
  Species Al                  : Basic radial grid will be enhanced according to radial_multiplier =   1, to contain    41 grid points.
 
  Reading configuration options for species F                   .
  | Found nuclear charge :   9.0000
  | Found atomic mass :    18.9984032000000      amu
  | Found l_max for Hartree potential  :   4
  | Found cutoff potl. onset [A], width [A], scale factor :    3.50000    1.50000    1.00000
  | Threshold for basis-dependent cutoff potential is   0.100000E-03
  | Found data for basic radial integration grid :    37 points, outermost radius =    5.000 A
  | Found multiplier for basic radial grid :   1
  | Found angular grid specification: user-specified.
  | Specified grid contains     4 separate shells.
  | Check grid settings after all constraints further below.
  | Found free-atom valence shell :  2 s   2.000
  | Found free-atom valence shell :  2 p   5.000
  | Found free-ion valence shell :  2 s   1.000
  | Found free-ion valence shell :  2 p   4.000
  | Found hydrogenic basis function :  2 p   1.700
  | Found hydrogenic basis function :  3 d   7.400
  | Found hydrogenic basis function :  3 s   6.800
  Species F                   : Missing cutoff potential type.
  Defaulting to exp(1/x)/(1-x)^2 type cutoff potential.
  Species F : No 'logarithmic' tag. Using default grid for free atom:
  | Default logarithmic grid data [bohr] : 0.1000E-03 0.1000E+03 0.1012E+01
  Species F : On-site basis accuracy parameter (for Gram-Schmidt orthonormalisation) not specified.
  Using default value basis_acc =  0.1000000E-03.
  Species F                   : Using default innermost maximum threshold i_radial=  2 for radial functions.
  Species F                   : Default cutoff onset for free atom density etc. : 0.35000000E+01 AA.
  Species F                   : Basic radial grid will be enhanced according to radial_multiplier =   1, to contain    37 grid points.
 
  Finished reading input file 'control.in'.
 
------------------------------------------------------------


------------------------------------------------------------
          Reading geometry description geometry.in.
------------------------------------------------------------
  | The smallest distance between any two atoms is         1.80375549 AA.
  | The first atom of this pair is atom number                      2 .
  | The second atom of this pair is atom number                    11 .
  Input structure read successfully.
  The structure contains       12 atoms,  and a total of        120.000 electrons.

  Input geometry:
  | No unit cell requested.
  | Atomic structure:
  |       Atom                x [A]            y [A]            z [A]
  |    1: Species Al           -0.07829181        1.65223077        2.15571002
  |    2: Species Al            2.53635970        2.63049382        1.77965117
  |    3: Species Al            1.36164608        2.65031098       -0.63230565
  |    4: Species F             0.98523058        3.15241214        2.78596406
  |    5: Species F            -1.57829388        2.69214192        2.33758879
  |    6: Species F            -0.52621307       -0.11051147        2.47081103
  |    7: Species F             1.83989775        0.88850599        2.04171946
  |    8: Species F             2.93351015        1.79639145       -0.03668842
  |    9: Species F             1.06049461        2.95666413       -2.39252621
  |   10: Species F             1.81083769        4.03297459        0.59180607
  |   11: Species F             4.12178537        3.17553278        2.44515238
  |   12: Species F            -0.02298899        1.84415461        0.25642189

 
  Finished reading input file 'control.in'.
 

------------------------------------------------------------
          Reading geometry description geometry.in.
------------------------------------------------------------
 
  Consistency checks for stacksize environment parameter are next.
 
  | Maximum stacksize for task 0: unlimited
  | Maximum stacksize for task 1: unlimited
  | Maximum stacksize for task 2: unlimited
  | Maximum stacksize for task 3: unlimited
  | Maximum stacksize for task 4: unlimited
  | Maximum stacksize for task 5: unlimited
  | Maximum stacksize for task 6: unlimited
  | Maximum stacksize for task 7: unlimited
  | Maximum stacksize for task 8: unlimited
  | Maximum stacksize for task 9: unlimited
  | Maximum stacksize for task 10: unlimited
  | Maximum stacksize for task 11: unlimited
  | Maximum stacksize for task 12: unlimited
  | Maximum stacksize for task 13: unlimited
  | Maximum stacksize for task 14: unlimited
  | Maximum stacksize for task 15: unlimited
  | Maximum stacksize for task 16: unlimited
  | Maximum stacksize for task 17: unlimited
  | Maximum stacksize for task 18: unlimited
  | Maximum stacksize for task 19: unlimited
  | Maximum stacksize for task 20: unlimited
  | Maximum stacksize for task 21: unlimited
  | Maximum stacksize for task 22: unlimited
  | Maximum stacksize for task 23: unlimited
  | Current stacksize for task 0: unlimited
  | Current stacksize for task 1: unlimited
  | Current stacksize for task 2: unlimited
  | Current stacksize for task 3: unlimited
  | Current stacksize for task 4: unlimited
  | Current stacksize for task 5: unlimited
  | Current stacksize for task 6: unlimited
  | Current stacksize for task 7: unlimited
  | Current stacksize for task 8: unlimited
  | Current stacksize for task 9: unlimited
  | Current stacksize for task 10: unlimited
  | Current stacksize for task 11: unlimited
  | Current stacksize for task 12: unlimited
  | Current stacksize for task 13: unlimited
  | Current stacksize for task 14: unlimited
  | Current stacksize for task 15: unlimited
  | Current stacksize for task 16: unlimited
  | Current stacksize for task 17: unlimited
  | Current stacksize for task 18: unlimited
  | Current stacksize for task 19: unlimited
  | Current stacksize for task 20: unlimited
  | Current stacksize for task 21: unlimited
  | Current stacksize for task 22: unlimited
  | Current stacksize for task 23: unlimited
 
  Consistency checks for the contents of control.in are next.
 
  MPI_IN_PLACE appears to work with this MPI implementation.
  | Keeping use_mpi_in_place .true. (see manual).
  Target number of points in a grid batch is not set. Defaulting to  100
  Method for grid partitioning is not set. Defaulting to parallel hash+maxmin partitioning.
  Batch size limit is not set. Defaulting to    200
  By default, will store active basis functions for each batch.
  If in need of memory, prune_basis_once .false. can be used to disable this option.
  communication_type for Hartree potential was not specified.
  Defaulting to calc_hartree .
  Pulay mixer: Number of initial linear mixing iterations not set.
  Defaulting to    0 iterations.
  Work space size for distributed Hartree potential not set.
  Defaulting to   0.200000E+03 MB.
  Algorithm-dependent basis array size parameters:
  | n_max_pulay                         :       10
  Presetting      1001 iterations before the initial mixing cycle
  is restarted anyway using the sc_init_iter criterion / keyword.
  Presetting a factor      1.000 between actual scf density residual
  and density convergence criterion sc_accuracy_rho below which sc_init_iter
  takes no effect.
  Geometry relaxation not requested: no relaxation will be performed.
  Forces evaluation will include force correction term due to incomplete self-consistency (default).
  Handling of forces: Unphysical translation and rotation will be removed from forces.
  No accuracy limit for integral partition fn. given. Defaulting to  0.1000E-14.
  No threshold value for u(r) in integrations given. Defaulting to  0.1000E-05.
  No accuracy for occupation numbers given. Defaulting to  0.1000E-12.
  No threshold value for occupation numbers given. Defaulting to  0.0000E+00.
  No accuracy for fermi level given. Defaulting to  0.1000E-19.
  Maximum # of iterations to find E_F not set. Defaulting to  200.
  Preferred method for the eigenvalue solver ('KS_method') not specified in 'control.in'.
  Calling BLACS routine to test compilation state
  Since ScaLAPACK support is enabled, defaulting to ELPA (via ELSI).
  Will not use alltoall communication since running on < 1024 CPUs.
  Threshold for basis singularities not set.
  Default threshold for basis singularities:  0.1000E-04
  partition_type (choice of integration weights) for integrals was not specified.
  | Using a version of the partition function of Stratmann and coworkers ('stratmann_sparse').
  | At each grid point, the set of atoms used to build the partition table is smoothly restricted to
  | only those atoms whose free-atom density would be non-zero at that grid point.
  Partitioning for Hartree potential was not defined. Using partition_type for integrals.
  | Adjusted default value of keyword multip_moments_threshold to:       0.10000000E-11
  | This value may affect high angular momentum components of the Hartree potential in periodic systems.
  No q(lm)/r^(l+1) cutoff set for long-range Hartree potential.
  | Using default value of  0.100000E-09 .
  | Verify using the multipole_threshold keyword.
  Defaulting to new monopole extrapolation.
  Density update method: automatic selection selected.
  Charge integration errors on the 3D integration grid will be compensated
  by explicit normalization and distribution of residual charges.
  Use the "compensate_multipole_errors" flag to change this behaviour.
  Set 'collect_eigenvectors' to be '.true.' for use_density_matrix .false.
 
  Consistency checks for the contents of geometry.in are next.
 
  Number of empty states per atom not set in control.in - providing a guess from actual geometry.
  | Total number of empty states used during s.c.f. cycle:       36
  If you use a very high smearing, use empty_states (per atom!) in control.in to increase this value.

  Structure-dependent array size parameters: 
  | Maximum number of distinct radial functions  :       14
  | Maximum number of basis functions            :      180
  | Number of Kohn-Sham states (occupied + empty):       96
------------------------------------------------------------

------------------------------------------------------------
          Preparing all fixed parts of the calculation.
------------------------------------------------------------
  Determining machine precision:
    2.225073858507201E-308
  Setting up grids for atomic and cluster calculations.

  Creating wave function, potential, and density for free atoms.

  Species: Al

  List of occupied orbitals and eigenvalues:
    n    l              occ      energy [Ha]    energy [eV]
    1    0           2.0000       -55.621123     -1513.5278
    2    0           2.0000        -3.957030      -107.6763
    3    0           2.0000        -0.272233        -7.4078
    2    1           6.0000        -2.540949       -69.1427
    3    1           1.0000        -0.083300        -2.2667


  Species: F

  List of occupied orbitals and eigenvalues:
    n    l              occ      energy [Ha]    energy [eV]
    1    0           2.0000       -24.399611      -663.9472
    2    0           2.0000        -1.098702       -29.8972
    2    1           5.0000        -0.408210       -11.1080


  Adding cutoff potential to free-atom effective potential.
  Creating fixed part of basis set: Ionic, confined, hydrogenic.
 
  Al                   ion:

  List of free ionic orbitals and eigenvalues:
    n    l      energy [Ha]    energy [eV]
    1    0       -56.418846     -1535.2349
    2    0        -4.732717      -128.7838
    3    0        -0.872690       -23.7471
    2    1        -3.317230       -90.2664


  List of ionic basis orbitals and eigenvalues:
    n    l      energy [Ha]    energy [eV]    outer radius [A]
    3    2        -0.346815        -9.4373       4.594041
    3    1        -0.631870       -17.1940       4.538221
    3    0        -0.872657       -23.7462       4.538221

 
  F                    hydrogenic:
 
  List of hydrogenic basis orbitals: 
    n    l      effective z      eigenvalue [eV]  inner max. [A]     outer max. [A]     outer radius [A]   
    2    1         1.700000        -9.7616           1.243167           1.243167           4.598524
    3    2         7.400000       -82.7828           0.642437           0.642437           3.305741
    3    0         6.800000       -69.9026           0.057798           1.022307           3.781556
 
  Creating atomic-like basis functions for current effective potential.

  Species Al                  :

  List of atomic basis orbitals and eigenvalues:
    n    l      energy [Ha]    energy [eV]    outer radius [A]
    1    0       -55.621123     -1513.5278       0.850197
    2    0        -3.957030      -107.6763       3.144911
    3    0        -0.272233        -7.4078       4.594041
    2    1        -2.540949       -69.1427       3.731966
    3    1        -0.083300        -2.2667       4.594041


  Species F                   :

  List of atomic basis orbitals and eigenvalues:
    n    l      energy [Ha]    energy [eV]    outer radius [A]
    1    0       -24.399611      -663.9472       1.258458
    2    0        -1.098702       -29.8972       4.325857
    2    1        -0.408210       -11.1080       4.487453

  Assembling full basis from fixed parts.
  | Species Al :   atomic orbital   1 s accepted.
  | Species Al :   atomic orbital   2 s accepted.
  | Species Al :    ionic orbital   3 s accepted.
  | Species Al :   atomic orbital   3 s accepted.
  | Species Al :   atomic orbital   2 p accepted.
  | Species Al :    ionic orbital   3 p accepted.
  | Species Al :   atomic orbital   3 p accepted.
  | Species Al :    ionic orbital   3 d accepted.
  | Species F :   atomic orbital   1 s accepted.
  | Species F :    hydro orbital   3 s accepted.
  | Species F :   atomic orbital   2 s accepted.
  | Species F :   atomic orbital   2 p accepted.
  | Species F :    hydro orbital   2 p accepted.
  | Species F :    hydro orbital   3 d accepted.
 
  Basis size parameters after reduction:
  | Total number of radial functions:       14
  | Total number of basis functions :      180
 
  Per-task memory consumption for arrays in subroutine allocate_ext:
  |           4.807768MB.
  Testing on-site integration grid accuracy.
  |  Species  Function  <phi|h_atom|phi> (log., in eV)  <phi|h_atom|phi> (rad., in eV)
           1        1              -1513.5277717935              -1513.5271881332
           1        2               -107.6762691836               -107.6762662489
           1        3                 -6.9467474784                 -6.9471269649
           1        4                  5.5771951849                  5.4862107220 ***
           1        5                -69.1427313144                -69.1427312731
           1        6                 -1.5197375330                 -1.5230432022
           1        7                  6.8210948310                  6.5529872240 ***
           1        8                  4.3216540965                  4.2851170187 ***
           2        9               -663.9471986398               -663.9470363334
           2       10                 16.8514011578                 16.8512525338
           2       11                -28.4490593856                -28.4490661472
           2       12                -11.1080115307                -11.1080620173
           2       13                  7.1940182175                  7.1685154137
           2       14                 44.8544281765                 44.8543763625
 * Note: Onsite integrals marked "***" above are less accurate than
 * onsite_accuracy_threshold =    0.03000 eV. Usually, this is harmless.
 * When in doubt, tighten the "radial" and/or "radial_multiplier" flags to check.

  Preparing densities etc. for the partition functions (integrals / Hartree potential).

  Preparations completed.
  max(cpu_time)          :      0.183 s.
  Wall clock time (cpu1) :      0.184 s.
------------------------------------------------------------

------------------------------------------------------------
          Begin self-consistency loop: Initialization.

          Date     :  20220517, Time     :  120211.733
------------------------------------------------------------

  Initializing index lists of integration centers etc. from given atomic structure:
  | Number of centers in hartree potential         :        12
  | Number of centers in hartree multipole         :        12
  | Number of centers in electron density summation:        12
  | Number of centers in basis integrals           :        12
  | Number of centers in integrals                 :        12
  | Number of centers in hamiltonian               :        12
  * Using 24 tasks for Scalapack Eigenvalue solver.
  Detailed listing of tasks and assigned k-points:
  (for non-periodic systems, the "k-point" denotes an internal label only)
   Task     0 k-point     1 on node-k98a-019
   Task     1 k-point     1 on node-k98a-019
   Task     2 k-point     1 on node-k98a-019
   Task     3 k-point     1 on node-k98a-019
   Task     4 k-point     1 on node-k98a-019
   Task     5 k-point     1 on node-k98a-019
   Task     6 k-point     1 on node-k98a-019
   Task     7 k-point     1 on node-k98a-019
   Task     8 k-point     1 on node-k98a-019
   Task     9 k-point     1 on node-k98a-019
   Task    10 k-point     1 on node-k98a-019
   Task    11 k-point     1 on node-k98a-019
   Task    12 k-point     1 on node-k98a-019
   Task    13 k-point     1 on node-k98a-019
   Task    14 k-point     1 on node-k98a-019
   Task    15 k-point     1 on node-k98a-019
   Task    16 k-point     1 on node-k98a-019
   Task    17 k-point     1 on node-k98a-019
   Task    18 k-point     1 on node-k98a-019
   Task    19 k-point     1 on node-k98a-019
   Task    20 k-point     1 on node-k98a-019
   Task    21 k-point     1 on node-k98a-019
   Task    22 k-point     1 on node-k98a-019
   Task    23 k-point     1 on node-k98a-019
  Tasks:    24 split into      6 X      4 BLACS grid
  Calculating block size based on n_basis =          180  max_nprow =            6  max_npcol =            4
  ScaLAPACK block size set to:           16
  Allocating        0.012 MB for ovlp
  Allocating        0.012 MB for ham
  Allocating        0.012 MB for eigenvec
  Required Scalapack workspace - INTEGER:            1  REAL:             1
  Partitioning the integration grid into batches with parallel hashing+maxmin method.
  | Number of batches:     1019
  | Maximal batch size:     196
  | Minimal batch size:      18
  | Average batch size:      90.206
  | Standard deviation of batch sizes:      24.275

  Integration load balanced across    24 MPI tasks.
  Work distribution over tasks is as follows:
  Task     0 has       3773 integration points.
  Task     1 has       3875 integration points.
  Task     2 has       3776 integration points.
  Task     3 has       3779 integration points.
  Task     4 has       3878 integration points.
  Task     5 has       3878 integration points.
  Task     6 has       3779 integration points.
  Task     7 has       3851 integration points.
  Task     8 has       3848 integration points.
  Task     9 has       3838 integration points.
  Task    10 has       3784 integration points.
  Task    11 has       3804 integration points.
  Task    12 has       3855 integration points.
  Task    13 has       3781 integration points.
  Task    14 has       3783 integration points.
  Task    15 has       3921 integration points.
  Task    16 has       3776 integration points.
  Task    17 has       3856 integration points.
  Task    18 has       3786 integration points.
  Task    19 has       3923 integration points.
  Task    20 has       3773 integration points.
  Task    21 has       3874 integration points.
  Task    22 has       3846 integration points.
  Task    23 has       3883 integration points.
  Initializing partition tables, free-atom densities, potentials, etc. across the integration grid (initialize_grid_storage).
  | initialize_grid_storage: Actual outermost partition radius vs. multipole_radius_free
  | (-- VB: in principle, multipole_radius_free should be larger, hence this output)
  | Species        1: Confinement radius =              4.999999999999999 AA, multipole_radius_free =              5.004487022111096 AA.
  | Species        1: outer_partition_radius set to              5.004487022111096 AA .
  | Species        2: Confinement radius =              4.999999999999999 AA, multipole_radius_free =              5.009370088163274 AA.
  | Species        2: outer_partition_radius set to              5.009370088163274 AA .
  | The sparse table of interatomic distances needs          1.64 kbyte instead of         1.15 kbyte of memory.
  | Using the partition_type stratmann_smoother will reduce your memory usage.
  | Net number of integration points:    91920
  | of which are non-zero points    :    85110
  Renormalizing the initial density to the exact electron count on the 3D integration grid.
  | Initial density: Formal number of electrons (from input files) :     120.0000000000
  | Integrated number of electrons on 3D grid     :     119.9997943455
  | Charge integration error                      :      -0.0002056545
  | Normalization factor for density and gradient :       1.0000017138
  Renormalizing the free-atom superposition density to the exact electron count on the 3D integration grid.
  | Formal number of electrons (from input files) :     120.0000000000
  | Integrated number of electrons on 3D grid     :     119.9997943455
  | Charge integration error                      :      -0.0002056545
  | Normalization factor for density and gradient :       1.0000017138
  Obtaining max. number of non-zero basis functions in each batch (get_n_compute_maxes).
  | Maximal number of non-zero basis functions:      165 in task     0
  | Maximal number of non-zero basis functions:      170 in task     1
  | Maximal number of non-zero basis functions:      165 in task     2
  | Maximal number of non-zero basis functions:      166 in task     3
  | Maximal number of non-zero basis functions:      170 in task     4
  | Maximal number of non-zero basis functions:      166 in task     5
  | Maximal number of non-zero basis functions:      165 in task     6
  | Maximal number of non-zero basis functions:      170 in task     7
  | Maximal number of non-zero basis functions:      171 in task     8
  | Maximal number of non-zero basis functions:      171 in task     9
  | Maximal number of non-zero basis functions:      165 in task    10
  | Maximal number of non-zero basis functions:      164 in task    11
  | Maximal number of non-zero basis functions:      170 in task    12
  | Maximal number of non-zero basis functions:      165 in task    13
  | Maximal number of non-zero basis functions:      163 in task    14
  | Maximal number of non-zero basis functions:      170 in task    15
  | Maximal number of non-zero basis functions:      166 in task    16
  | Maximal number of non-zero basis functions:      172 in task    17
  | Maximal number of non-zero basis functions:      172 in task    18
  | Maximal number of non-zero basis functions:      173 in task    19
  | Maximal number of non-zero basis functions:      164 in task    20
  | Maximal number of non-zero basis functions:      165 in task    21
  | Maximal number of non-zero basis functions:      164 in task    22
  | Maximal number of non-zero basis functions:      172 in task    23
  Selecting the method for density update.
  Loop over occupied states selected for charge density update.
  Allocating        0.132 MB for KS_eigenvector
  Integrating Hamiltonian matrix: batch-based integration.
  Time summed over all CPUs for integration: real work        0.759 s, elapsed        0.800 s
  Integrating overlap matrix.
  Time summed over all CPUs for integration: real work        0.288 s, elapsed        0.307 s
  Deallocating overlap matrix.

  Updating Kohn-Sham eigenvalues and eigenvectors using ELSI and the ELPA eigensolver.
  Overlap matrix is not singular
  | Lowest and highest eigenvalues :  0.3159E-02,  0.5735E+01
  Finished singularity check of overlap matrix
  | Time :     0.004 s
  Starting ELPA eigensolver
  Finished Cholesky decomposition
  | Time :     0.003 s
  Finished transformation to standard eigenproblem
  | Time :     0.000 s
  Finished solving standard eigenproblem
  | Time :     0.004 s
  Finished back-transformation of eigenvectors
  | Time :     0.000 s

  Obtaining occupation numbers and chemical potential using ELSI.
  | Chemical potential (Fermi level):    -7.33649219 eV
  Writing Kohn-Sham eigenvalues.

  State    Occupation    Eigenvalue [Ha]    Eigenvalue [eV]
      1       2.00000         -55.485874        -1509.84745
      2       2.00000         -55.484829        -1509.81903
      3       2.00000         -55.483883        -1509.79327
      4       2.00000         -24.368591         -663.10309
      5       2.00000         -24.356631         -662.77766
      6       2.00000         -24.355990         -662.76020
      7       2.00000         -24.353175         -662.68362
      8       2.00000         -24.350839         -662.62005
      9       2.00000         -24.342025         -662.38021
     10       2.00000         -24.341047         -662.35358
     11       2.00000         -24.338540         -662.28536
     12       2.00000         -24.337264         -662.25066
     13       2.00000          -3.951450         -107.52443
     14       2.00000          -3.950178         -107.48983
     15       2.00000          -3.948991         -107.45752
     16       2.00000          -2.544531          -69.24020
     17       2.00000          -2.543549          -69.21348
     18       2.00000          -2.542891          -69.19558
     19       2.00000          -2.542470          -69.18414
     20       2.00000          -2.541794          -69.16573
     21       2.00000          -2.541350          -69.15364
     22       2.00000          -2.541163          -69.14855
     23       2.00000          -2.540832          -69.13955
     24       2.00000          -2.540004          -69.11702
     25       2.00000          -1.193859          -32.48657
     26       2.00000          -1.183287          -32.19888
     27       2.00000          -1.174595          -31.96236
     28       2.00000          -1.170314          -31.84587
     29       2.00000          -1.160742          -31.58538
     30       2.00000          -1.151013          -31.32065
     31       2.00000          -1.149596          -31.28210
     32       2.00000          -1.146733          -31.20420
     33       2.00000          -1.142838          -31.09820
     34       2.00000          -0.563938          -15.34553
     35       2.00000          -0.558816          -15.20616
     36       2.00000          -0.543777          -14.79693
     37       2.00000          -0.522151          -14.20846
     38       2.00000          -0.519909          -14.14744
     39       2.00000          -0.510915          -13.90270
     40       2.00000          -0.507473          -13.80904
     41       2.00000          -0.504002          -13.71459
     42       2.00000          -0.497452          -13.53635
     43       2.00000          -0.494552          -13.45744
     44       2.00000          -0.489979          -13.33300
     45       2.00000          -0.487438          -13.26387
     46       2.00000          -0.479968          -13.06060
     47       2.00000          -0.474872          -12.92192
     48       2.00000          -0.471126          -12.81999
     49       2.00000          -0.466506          -12.69427
     50       2.00000          -0.464972          -12.65254
     51       2.00000          -0.460188          -12.52237
     52       2.00000          -0.453469          -12.33952
     53       2.00000          -0.452607          -12.31606
     54       2.00000          -0.452244          -12.30617
     55       2.00000          -0.451780          -12.29355
     56       2.00000          -0.450114          -12.24823
     57       2.00000          -0.448873          -12.21445
     58       2.00000          -0.445071          -12.11101
     59       2.00000          -0.442386          -12.03794
     60       2.00000          -0.438325          -11.92744
     61       0.00000          -0.143507           -3.90501
     62       0.00000          -0.090568           -2.46449
     63       0.00000          -0.071718           -1.95156
     64       0.00000          -0.035679           -0.97086
     65       0.00000          -0.020656           -0.56209
     66       0.00000           0.001233            0.03355
     67       0.00000           0.026617            0.72428
     68       0.00000           0.032406            0.88181
     69       0.00000           0.049441            1.34537
     70       0.00000           0.077108            2.09821
     71       0.00000           0.077944            2.12096
     72       0.00000           0.116569            3.17202
     73       0.00000           0.148910            4.05206
     74       0.00000           0.161558            4.39622
     75       0.00000           0.171208            4.65880
     76       0.00000           0.178129            4.84714
     77       0.00000           0.195199            5.31164
     78       0.00000           0.198220            5.39383
     79       0.00000           0.209987            5.71405
     80       0.00000           0.218007            5.93228
     81       0.00000           0.225223            6.12862
     82       0.00000           0.226998            6.17694
     83       0.00000           0.235189            6.39981
     84       0.00000           0.241475            6.57086
     85       0.00000           0.258012            7.02086
     86       0.00000           0.267204            7.27099
     87       0.00000           0.269893            7.34416
     88       0.00000           0.275110            7.48612
     89       0.00000           0.282515            7.68762
     90       0.00000           0.295394            8.03807
     91       0.00000           0.298057            8.11055
     92       0.00000           0.327590            8.91417
     93       0.00000           0.343434            9.34531
     94       0.00000           0.356191            9.69246
     95       0.00000           0.371664           10.11348
     96       0.00000           0.385127           10.47984

  Highest occupied state (VBM) at    -11.92743521 eV
  | Occupation number:      2.00000000

  Lowest unoccupied state (CBM) at    -3.90501185 eV
  | Occupation number:      0.00000000

  Overall HOMO-LUMO gap:      8.02242336 eV.
  Calculating total energy contributions from superposition of free atom densities.

  Total energy components:
  | Sum of eigenvalues            :        -887.70754062 Ha      -24155.75121138 eV
  | XC energy correction          :        -144.39675883 Ha       -3929.23572506 eV
  | XC potential correction       :         188.01635854 Ha        5116.18542464 eV
  | Free-atom electrostatic energy:        -781.26615125 Ha      -21259.33363856 eV
  | Hartree energy correction     :           0.00000000 Ha           0.00000000 eV
  | Entropy correction            :           0.00000000 Ha           0.00000000 eV
  | ---------------------------
  | Total energy                  :       -1625.35409216 Ha      -44228.13515036 eV
  | Total energy, T -> 0          :       -1625.35409216 Ha      -44228.13515036 eV  <-- do not rely on this value for anything but (periodic) metals
  | Electronic free energy        :       -1625.35409216 Ha      -44228.13515036 eV

  Derived energy quantities:
  | Kinetic energy                :        1627.74262869 Ha       44293.13053638 eV
  | Electrostatic energy          :       -3108.69996202 Ha      -84592.02996168 eV
  | Energy correction for multipole
  | error in Hartree potential    :           0.00000000 Ha           0.00000000 eV
  | Sum of eigenvalues per atom                           :       -2012.97926762 eV
  | Total energy (T->0) per atom                          :       -3685.67792920 eV  <-- do not rely on this value for anything but (periodic) metals
  | Electronic free energy per atom                       :       -3685.67792920 eV
  Initialize hartree_potential_storage
  Max. number of atoms included in rho_multipole:           12

  End scf initialization - timings             :  max(cpu_time)    wall_clock(cpu1)
  | Time for scf. initialization                :        0.124 s           0.125 s
  | Boundary condition initialization           :        0.000 s           0.000 s
  | Integration                                 :        0.048 s           0.048 s
  | Solution of K.-S. eqns.                     :        0.013 s           0.013 s
  | Grid partitioning                           :        0.040 s           0.040 s
  | Preloading free-atom quantities on grid     :        0.016 s           0.016 s
  | Free-atom superposition energy              :        0.005 s           0.005 s
  | Total energy evaluation                     :        0.000 s           0.000 s

  Partial memory accounting:
  | Current value for overall tracked memory usage:
  |   Minimum:        0.273 MB (on task 23)
  |   Maximum:        0.292 MB (on task  0)
  |   Average:        0.287 MB
  | Peak value for overall tracked memory usage:
  |   Minimum:        1.348 MB (on task 20 after allocating wave)
  |   Maximum:        1.417 MB (on task 17 after allocating wave)
  |   Average:        1.382 MB
  | Largest tracked array allocation so far:
  |   Minimum:        0.245 MB (H_times_psi on task 11)
  |   Maximum:        0.554 MB (all_coords on task 14)
  |   Average:        0.275 MB
  Note:  These values currently only include a subset of arrays which are explicitly tracked.
  The "true" memory usage will be greater.
------------------------------------------------------------
  Evaluating new KS density.
  Integration grid: deviation in total charge (<rho> - N_e) =   4.263256E-14

  Time for density update prior                :  max(cpu_time)    wall_clock(cpu1)
  | self-consistency iterative process          :        0.030 s           0.030 s

------------------------------------------------------------
          Begin self-consistency iteration #    1

  Date     :  20220517, Time     :  120211.888
------------------------------------------------------------
  Pulay mixing of updated and previous charge densities.
  Renormalizing the density to the exact electron count on the 3D integration grid.
  | Formal number of electrons (from input files) :     120.0000000000
  | Integrated number of electrons on 3D grid     :     120.0000000000
  | Charge integration error                      :       0.0000000000
  | Normalization factor for density and gradient :       1.0000000000

  Evaluating partitioned Hartree potential by multipole expansion.
  | Original multipole sum: apparent total charge =   0.830358E-13
  | Sum of charges compensated after spline to logarithmic grids =   0.928240E-04
  | Analytical far-field extrapolation by fixed multipoles:
  | Hartree multipole sum: apparent total charge =   0.818797E-13
  Summing up the Hartree potential.
  Time summed over all CPUs for potential: real work        0.381 s, elapsed        0.397 s
  | RMS charge density error from multipole expansion :   0.108078E-01

  Integrating Hamiltonian matrix: batch-based integration.
  Time summed over all CPUs for integration: real work        0.708 s, elapsed        0.758 s

  Updating Kohn-Sham eigenvalues and eigenvectors using ELSI and the ELPA eigensolver.
  Starting ELPA eigensolver
  Finished transformation to standard eigenproblem
  | Time :     0.001 s
  Finished solving standard eigenproblem
  | Time :     0.003 s
  Finished back-transformation of eigenvectors
  | Time :     0.000 s

  Obtaining occupation numbers and chemical potential using ELSI.
  | Chemical potential (Fermi level):    -7.35983760 eV
  Writing Kohn-Sham eigenvalues.

  State    Occupation    Eigenvalue [Ha]    Eigenvalue [eV]
      1       2.00000         -55.678417        -1515.08682
      2       2.00000         -55.660857        -1514.60898
      3       2.00000         -55.622667        -1513.56979
      4       2.00000         -24.257176         -660.07133
      5       2.00000         -24.230337         -659.34102
      6       2.00000         -24.216326         -658.95977
      7       2.00000         -24.202651         -658.58764
      8       2.00000         -24.184076         -658.08218
      9       2.00000         -24.091083         -655.55171
     10       2.00000         -24.076492         -655.15467
     11       2.00000         -24.033483         -653.98435
     12       2.00000         -24.033073         -653.97320
     13       2.00000          -4.117050         -112.03062
     14       2.00000          -4.099324         -111.54829
     15       2.00000          -4.061114         -110.50853
     16       2.00000          -2.709869          -73.73929
     17       2.00000          -2.709715          -73.73509
     18       2.00000          -2.709630          -73.73278
     19       2.00000          -2.693117          -73.28345
     20       2.00000          -2.691770          -73.24680
     21       2.00000          -2.691092          -73.22834
     22       2.00000          -2.655230          -72.25248
     23       2.00000          -2.654155          -72.22323
     24       2.00000          -2.651856          -72.16069
     25       2.00000          -1.176372          -32.01072
     26       2.00000          -1.155570          -31.44467
     27       2.00000          -1.134663          -30.87574
     28       2.00000          -1.128792          -30.71599
     29       2.00000          -1.104202          -30.04686
     30       2.00000          -1.036139          -28.19478
     31       2.00000          -1.022715          -27.82949
     32       2.00000          -0.986234          -26.83680
     33       2.00000          -0.980176          -26.67195
     34       2.00000          -0.563128          -15.32348
     35       2.00000          -0.552000          -15.02069
     36       2.00000          -0.524225          -14.26489
     37       2.00000          -0.499309          -13.58690
     38       2.00000          -0.491499          -13.37437
     39       2.00000          -0.479619          -13.05109
     40       2.00000          -0.479183          -13.03922
     41       2.00000          -0.473637          -12.88831
     42       2.00000          -0.457114          -12.43871
     43       2.00000          -0.452557          -12.31471
     44       2.00000          -0.435628          -11.85405
     45       2.00000          -0.424600          -11.55396
     46       2.00000          -0.416380          -11.33027
     47       2.00000          -0.409816          -11.15167
     48       2.00000          -0.400286          -10.89235
     49       2.00000          -0.388960          -10.58415
     50       2.00000          -0.383365          -10.43190
     51       2.00000          -0.362862           -9.87397
     52       2.00000          -0.346108           -9.41807
     53       2.00000          -0.345143           -9.39183
     54       2.00000          -0.332068           -9.03604
     55       2.00000          -0.331679           -9.02543
     56       2.00000          -0.327723           -8.91780
     57       2.00000          -0.301118           -8.19384
     58       2.00000          -0.298409           -8.12012
     59       2.00000          -0.289594           -7.88026
     60       2.00000          -0.279584           -7.60787
     61       0.00000          -0.163717           -4.45496
     62       0.00000          -0.102728           -2.79537
     63       0.00000          -0.069982           -1.90431
     64       0.00000          -0.066170           -1.80057
     65       0.00000          -0.053801           -1.46400
     66       0.00000          -0.021690           -0.59022
     67       0.00000           0.020662            0.56224
     68       0.00000           0.027446            0.74684
     69       0.00000           0.036757            1.00021
     70       0.00000           0.066204            1.80149
     71       0.00000           0.089697            2.44079
     72       0.00000           0.097390            2.65012
     73       0.00000           0.144469            3.93119
     74       0.00000           0.155197            4.22311
     75       0.00000           0.159240            4.33315
     76       0.00000           0.162524            4.42249
     77       0.00000           0.182446            4.96461
     78       0.00000           0.191198            5.20276
     79       0.00000           0.199464            5.42769
     80       0.00000           0.213211            5.80177
     81       0.00000           0.218777            5.95322
     82       0.00000           0.223993            6.09516
     83       0.00000           0.232891            6.33729
     84       0.00000           0.233499            6.35384
     85       0.00000           0.245090            6.66923
     86       0.00000           0.249001            6.77566
     87       0.00000           0.255513            6.95286
     88       0.00000           0.267137            7.26916
     89       0.00000           0.283045            7.70205
     90       0.00000           0.283901            7.72535
     91       0.00000           0.291483            7.93167
     92       0.00000           0.327452            8.91042
     93       0.00000           0.351488            9.56448
     94       0.00000           0.363921            9.90279
     95       0.00000           0.381191           10.37273
     96       0.00000           0.386542           10.51835

  Highest occupied state (VBM) at     -7.60786902 eV
  | Occupation number:      2.00000000

  Lowest unoccupied state (CBM) at    -4.45495971 eV
  | Occupation number:      0.00000000

  Overall HOMO-LUMO gap:      3.15290930 eV.

  Total energy components:
  | Sum of eigenvalues            :        -883.00204135 Ha      -24027.70806155 eV
  | XC energy correction          :        -145.68267617 Ha       -3964.22731631 eV
  | XC potential correction       :         189.70651948 Ha        5162.17704372 eV
  | Free-atom electrostatic energy:        -781.26615125 Ha      -21259.33363856 eV
  | Hartree energy correction     :          -4.89267376 Ha        -133.13642688 eV
  | Entropy correction            :          -0.00000000 Ha          -0.00000000 eV
  | ---------------------------
  | Total energy                  :       -1625.13702306 Ha      -44222.22839958 eV
  | Total energy, T -> 0          :       -1625.13702306 Ha      -44222.22839958 eV  <-- do not rely on this value for anything but (periodic) metals
  | Electronic free energy        :       -1625.13702306 Ha      -44222.22839958 eV

  Derived energy quantities:
  | Kinetic energy                :        1633.86559410 Ha       44459.74490232 eV
  | Electrostatic energy          :       -3113.31994098 Ha      -84717.74598559 eV
  | Energy correction for multipole
  | error in Hartree potential    :           0.03203322 Ha           0.87166828 eV
  | Sum of eigenvalues per atom                           :       -2002.30900513 eV
  | Total energy (T->0) per atom                          :       -3685.18569997 eV  <-- do not rely on this value for anything but (periodic) metals
  | Electronic free energy per atom                       :       -3685.18569997 eV
  Evaluating new KS density.
  Integration grid: deviation in total charge (<rho> - N_e) =   8.526513E-14

  Self-consistency convergence accuracy:
  | Change of charge density      :  0.5904E+00
  | Change of sum of eigenvalues  :  0.1280E+03 eV
  | Change of total energy        :  0.5907E+01 eV


------------------------------------------------------------
  End self-consistency iteration #     1       :  max(cpu_time)    wall_clock(cpu1)
  | Time for this iteration                     :        0.085 s           0.085 s
  | Charge density update                       :        0.029 s           0.029 s
  | Density mixing                              :        0.000 s           0.001 s
  | Hartree multipole update                    :        0.001 s           0.001 s
  | Hartree multipole summation                 :        0.017 s           0.017 s
  | Integration                                 :        0.032 s           0.032 s
  | Solution of K.-S. eqns.                     :        0.005 s           0.005 s
  | Total energy evaluation                     :        0.000 s           0.000 s

  Partial memory accounting:
  | Current value for overall tracked memory usage:
  |   Minimum:        0.273 MB (on task 23)
  |   Maximum:        0.292 MB (on task  0)
  |   Average:        0.287 MB
  | Peak value for overall tracked memory usage:
  |   Minimum:        1.348 MB (on task 20 after allocating wave)
  |   Maximum:        1.417 MB (on task 17 after allocating wave)
  |   Average:        1.382 MB
  | Largest tracked array allocation so far:
  |   Minimum:        0.731 MB (gradient_basis_wave on task 14)
  |   Maximum:        0.776 MB (gradient_basis_wave on task 19)
  |   Average:        0.752 MB
  Note:  These values currently only include a subset of arrays which are explicitly tracked.
  The "true" memory usage will be greater.
------------------------------------------------------------

------------------------------------------------------------
          Begin self-consistency iteration #    2

  Date     :  20220517, Time     :  120211.977
------------------------------------------------------------
  Pulay mixing of updated and previous charge densities.
  Renormalizing the density to the exact electron count on the 3D integration grid.
  | Formal number of electrons (from input files) :     120.0000000000
  | Integrated number of electrons on 3D grid     :     120.0000000000
  | Charge integration error                      :       0.0000000000
  | Normalization factor for density and gradient :       1.0000000000

  Evaluating partitioned Hartree potential by multipole expansion.
  | Original multipole sum: apparent total charge =   0.914682E-13
  | Sum of charges compensated after spline to logarithmic grids =   0.550662E-04
  | Analytical far-field extrapolation by fixed multipoles:
  | Hartree multipole sum: apparent total charge =   0.915635E-13
  Summing up the Hartree potential.
  Time summed over all CPUs for potential: real work        0.380 s, elapsed        0.395 s
  | RMS charge density error from multipole expansion :   0.125906E-01

  Integrating Hamiltonian matrix: batch-based integration.
  Time summed over all CPUs for integration: real work        0.707 s, elapsed        0.756 s

  Updating Kohn-Sham eigenvalues and eigenvectors using ELSI and the ELPA eigensolver.
  Starting ELPA eigensolver
  Finished transformation to standard eigenproblem
  | Time :     0.000 s
  Finished solving standard eigenproblem
  | Time :     0.003 s
  Finished back-transformation of eigenvectors
  | Time :     0.001 s

  Obtaining occupation numbers and chemical potential using ELSI.
  | Chemical potential (Fermi level):    -7.63187071 eV
  Highest occupied state (VBM) at     -8.67179998 eV
  | Occupation number:      2.00000000

  Lowest unoccupied state (CBM) at    -4.68035988 eV
  | Occupation number:      0.00000000

  Overall HOMO-LUMO gap:      3.99144009 eV.

  Checking to see if s.c.f. parameters should be adjusted.

  Total energy components:
  | Sum of eigenvalues            :        -885.88764602 Ha      -24106.22935966 eV
  | XC energy correction          :        -145.21078270 Ha       -3951.38644151 eV
  | XC potential correction       :         189.08571285 Ha        5145.28403585 eV
  | Free-atom electrostatic energy:        -781.26615125 Ha      -21259.33363856 eV
  | Hartree energy correction     :          -1.79863741 Ha         -48.94341416 eV
  | Entropy correction            :           0.00000000 Ha           0.00000000 eV
  | ---------------------------
  | Total energy                  :       -1625.07750453 Ha      -44220.60881804 eV
  | Total energy, T -> 0          :       -1625.07750453 Ha      -44220.60881804 eV  <-- do not rely on this value for anything but (periodic) metals
  | Electronic free energy        :       -1625.07750453 Ha      -44220.60881804 eV

  Derived energy quantities:
  | Kinetic energy                :        1630.09773159 Ha       44357.21614697 eV
  | Electrostatic energy          :       -3109.96445343 Ha      -84626.43852349 eV
  | Energy correction for multipole
  | error in Hartree potential    :           0.03565638 Ha           0.97025950 eV
  | Sum of eigenvalues per atom                           :       -2008.85244664 eV
  | Total energy (T->0) per atom                          :       -3685.05073484 eV  <-- do not rely on this value for anything but (periodic) metals
  | Electronic free energy per atom                       :       -3685.05073484 eV
  Evaluating new KS density.
  Integration grid: deviation in total charge (<rho> - N_e) =   5.684342E-14

  Self-consistency convergence accuracy:
  | Change of charge density      :  0.4579E+00
  | Change of sum of eigenvalues  : -0.7852E+02 eV
  | Change of total energy        :  0.1620E+01 eV


------------------------------------------------------------
  End self-consistency iteration #     2       :  max(cpu_time)    wall_clock(cpu1)
  | Time for this iteration                     :        0.088 s           0.087 s
  | Charge density update                       :        0.029 s           0.029 s
  | Density mixing                              :        0.004 s           0.004 s
  | Hartree multipole update                    :        0.001 s           0.001 s
  | Hartree multipole summation                 :        0.017 s           0.017 s
  | Integration                                 :        0.032 s           0.032 s
  | Solution of K.-S. eqns.                     :        0.004 s           0.004 s
  | Total energy evaluation                     :        0.000 s           0.000 s

  Partial memory accounting:
  | Current value for overall tracked memory usage:
  |   Minimum:        0.274 MB (on task 23)
  |   Maximum:        0.293 MB (on task  0)
  |   Average:        0.288 MB
  | Peak value for overall tracked memory usage:
  |   Minimum:        1.348 MB (on task 20 after allocating wave)
  |   Maximum:        1.417 MB (on task 17 after allocating wave)
  |   Average:        1.382 MB
  | Largest tracked array allocation so far:
  |   Minimum:        0.731 MB (gradient_basis_wave on task 14)
  |   Maximum:        0.776 MB (gradient_basis_wave on task 19)
  |   Average:        0.752 MB
  Note:  These values currently only include a subset of arrays which are explicitly tracked.
  The "true" memory usage will be greater.
------------------------------------------------------------

------------------------------------------------------------
          Begin self-consistency iteration #    3

  Date     :  20220517, Time     :  120212.070
------------------------------------------------------------
  Pulay mixing of updated and previous charge densities.
  Renormalizing the density to the exact electron count on the 3D integration grid.
  | Formal number of electrons (from input files) :     120.0000000000
  | Integrated number of electrons on 3D grid     :     120.0000000000
  | Charge integration error                      :       0.0000000000
  | Normalization factor for density and gradient :       1.0000000000

  Evaluating partitioned Hartree potential by multipole expansion.
  | Original multipole sum: apparent total charge =   0.120574E-12
  | Sum of charges compensated after spline to logarithmic grids =   0.687223E-04
  | Analytical far-field extrapolation by fixed multipoles:
  | Hartree multipole sum: apparent total charge =   0.124119E-12
  Summing up the Hartree potential.
  Time summed over all CPUs for potential: real work        0.379 s, elapsed        0.395 s
  | RMS charge density error from multipole expansion :   0.171307E-01

  Integrating Hamiltonian matrix: batch-based integration.
  Time summed over all CPUs for integration: real work        0.707 s, elapsed        0.757 s

  Updating Kohn-Sham eigenvalues and eigenvectors using ELSI and the ELPA eigensolver.
  Starting ELPA eigensolver
  Finished transformation to standard eigenproblem
  | Time :     0.000 s
  Finished solving standard eigenproblem
  | Time :     0.003 s
  Finished back-transformation of eigenvectors
  | Time :     0.000 s

  Obtaining occupation numbers and chemical potential using ELSI.
  | Chemical potential (Fermi level):    -7.60209847 eV
  Highest occupied state (VBM) at     -8.27604947 eV
  | Occupation number:      2.00000000

  Lowest unoccupied state (CBM) at    -4.92291889 eV
  | Occupation number:      0.00000000

  Overall HOMO-LUMO gap:      3.35313058 eV.

  Total energy components:
  | Sum of eigenvalues            :        -886.84173738 Ha      -24132.19150659 eV
  | XC energy correction          :        -145.17501782 Ha       -3950.41322961 eV
  | XC potential correction       :         189.03751514 Ha        5143.97250937 eV
  | Free-atom electrostatic energy:        -781.26615125 Ha      -21259.33363856 eV
  | Hartree energy correction     :          -0.83101285 Ha         -22.61301026 eV
  | Entropy correction            :           0.00000000 Ha           0.00000000 eV
  | ---------------------------
  | Total energy                  :       -1625.07640417 Ha      -44220.57887565 eV
  | Total energy, T -> 0          :       -1625.07640417 Ha      -44220.57887565 eV  <-- do not rely on this value for anything but (periodic) metals
  | Electronic free energy        :       -1625.07640417 Ha      -44220.57887565 eV

  Derived energy quantities:
  | Kinetic energy                :        1628.42984552 Ha       44311.83065783 eV
  | Electrostatic energy          :       -3108.33123187 Ha      -84581.99630387 eV
  | Energy correction for multipole
  | error in Hartree potential    :           0.04789707 Ha           1.30334551 eV
  | Sum of eigenvalues per atom                           :       -2011.01595888 eV
  | Total energy (T->0) per atom                          :       -3685.04823964 eV  <-- do not rely on this value for anything but (periodic) metals
  | Electronic free energy per atom                       :       -3685.04823964 eV
  Evaluating new KS density.
  Integration grid: deviation in total charge (<rho> - N_e) =   1.421085E-14

  Self-consistency convergence accuracy:
  | Change of charge density      :  0.1233E+00
  | Change of sum of eigenvalues  : -0.2596E+02 eV
  | Change of total energy        :  0.2994E-01 eV


------------------------------------------------------------
  End self-consistency iteration #     3       :  max(cpu_time)    wall_clock(cpu1)
  | Time for this iteration                     :        0.087 s           0.085 s
  | Charge density update                       :        0.029 s           0.029 s
  | Density mixing                              :        0.004 s           0.001 s
  | Hartree multipole update                    :        0.001 s           0.002 s
  | Hartree multipole summation                 :        0.017 s           0.016 s
  | Integration                                 :        0.032 s           0.032 s
  | Solution of K.-S. eqns.                     :        0.004 s           0.005 s
  | Total energy evaluation                     :        0.000 s           0.000 s

  Partial memory accounting:
  | Current value for overall tracked memory usage:
  |   Minimum:        0.274 MB (on task 23)
  |   Maximum:        0.293 MB (on task  0)
  |   Average:        0.288 MB
  | Peak value for overall tracked memory usage:
  |   Minimum:        1.348 MB (on task 20 after allocating wave)
  |   Maximum:        1.417 MB (on task 17 after allocating wave)
  |   Average:        1.382 MB
  | Largest tracked array allocation so far:
  |   Minimum:        0.731 MB (gradient_basis_wave on task 14)
  |   Maximum:        0.776 MB (gradient_basis_wave on task 19)
  |   Average:        0.752 MB
  Note:  These values currently only include a subset of arrays which are explicitly tracked.
  The "true" memory usage will be greater.
------------------------------------------------------------

------------------------------------------------------------
          Begin self-consistency iteration #    4

  Date     :  20220517, Time     :  120212.158
------------------------------------------------------------
  Pulay mixing of updated and previous charge densities.
  Renormalizing the density to the exact electron count on the 3D integration grid.
  | Formal number of electrons (from input files) :     120.0000000000
  | Integrated number of electrons on 3D grid     :     120.0000000000
  | Charge integration error                      :       0.0000000000
  | Normalization factor for density and gradient :       1.0000000000

  Evaluating partitioned Hartree potential by multipole expansion.
  | Original multipole sum: apparent total charge =   0.169957E-12
  | Sum of charges compensated after spline to logarithmic grids =   0.740152E-04
  | Analytical far-field extrapolation by fixed multipoles:
  | Hartree multipole sum: apparent total charge =   0.171455E-12
  Summing up the Hartree potential.
  Time summed over all CPUs for potential: real work        0.380 s, elapsed        0.395 s
  | RMS charge density error from multipole expansion :   0.191379E-01

  Integrating Hamiltonian matrix: batch-based integration.
  Time summed over all CPUs for integration: real work        0.708 s, elapsed        0.756 s

  Updating Kohn-Sham eigenvalues and eigenvectors using ELSI and the ELPA eigensolver.
  Starting ELPA eigensolver
  Finished transformation to standard eigenproblem
  | Time :     0.000 s
  Finished solving standard eigenproblem
  | Time :     0.003 s
  Finished back-transformation of eigenvectors
  | Time :     0.000 s

  Obtaining occupation numbers and chemical potential using ELSI.
  | Chemical potential (Fermi level):    -7.60343518 eV
  Highest occupied state (VBM) at     -8.28066614 eV
  | Occupation number:      2.00000000

  Lowest unoccupied state (CBM) at    -4.90162684 eV
  | Occupation number:      0.00000000

  Overall HOMO-LUMO gap:      3.37903931 eV.

  Total energy components:
  | Sum of eigenvalues            :        -886.95971791 Ha      -24135.40192013 eV
  | XC energy correction          :        -145.15912241 Ha       -3949.98069364 eV
  | XC potential correction       :         189.01598467 Ha        5143.38663557 eV
  | Free-atom electrostatic energy:        -781.26615125 Ha      -21259.33363856 eV
  | Hartree energy correction     :          -0.70526451 Ha         -19.19122373 eV
  | Entropy correction            :           0.00000000 Ha           0.00000000 eV
  | ---------------------------
  | Total energy                  :       -1625.07427141 Ha      -44220.52084049 eV
  | Total energy, T -> 0          :       -1625.07427141 Ha      -44220.52084049 eV  <-- do not rely on this value for anything but (periodic) metals
  | Electronic free energy        :       -1625.07427141 Ha      -44220.52084049 eV

  Derived energy quantities:
  | Kinetic energy                :        1627.77679707 Ha       44294.06030512 eV
  | Electrostatic energy          :       -3107.69194607 Ha      -84564.60045197 eV
  | Energy correction for multipole
  | error in Hartree potential    :           0.05285778 Ha           1.43833332 eV
  | Sum of eigenvalues per atom                           :       -2011.28349334 eV
  | Total energy (T->0) per atom                          :       -3685.04340337 eV  <-- do not rely on this value for anything but (periodic) metals
  | Electronic free energy per atom                       :       -3685.04340337 eV
  Evaluating new KS density.
  Integration grid: deviation in total charge (<rho> - N_e) =   2.842171E-14

  Self-consistency convergence accuracy:
  | Change of charge density      :  0.8201E-01
  | Change of sum of eigenvalues  : -0.3210E+01 eV
  | Change of total energy        :  0.5804E-01 eV


------------------------------------------------------------
  End self-consistency iteration #     4       :  max(cpu_time)    wall_clock(cpu1)
  | Time for this iteration                     :        0.087 s           0.088 s
  | Charge density update                       :        0.029 s           0.029 s
  | Density mixing                              :        0.004 s           0.004 s
  | Hartree multipole update                    :        0.001 s           0.002 s
  | Hartree multipole summation                 :        0.017 s           0.016 s
  | Integration                                 :        0.032 s           0.032 s
  | Solution of K.-S. eqns.                     :        0.004 s           0.004 s
  | Total energy evaluation                     :        0.000 s           0.000 s

  Partial memory accounting:
  | Current value for overall tracked memory usage:
  |   Minimum:        0.274 MB (on task 23)
  |   Maximum:        0.293 MB (on task  0)
  |   Average:        0.288 MB
  | Peak value for overall tracked memory usage:
  |   Minimum:        1.348 MB (on task 20 after allocating wave)
  |   Maximum:        1.417 MB (on task 17 after allocating wave)
  |   Average:        1.382 MB
  | Largest tracked array allocation so far:
  |   Minimum:        0.731 MB (gradient_basis_wave on task 14)
  |   Maximum:        0.776 MB (gradient_basis_wave on task 19)
  |   Average:        0.752 MB
  Note:  These values currently only include a subset of arrays which are explicitly tracked.
  The "true" memory usage will be greater.
------------------------------------------------------------

------------------------------------------------------------
          Begin self-consistency iteration #    5

  Date     :  20220517, Time     :  120212.252
------------------------------------------------------------
  Pulay mixing of updated and previous charge densities.
  Renormalizing the density to the exact electron count on the 3D integration grid.
  | Formal number of electrons (from input files) :     120.0000000000
  | Integrated number of electrons on 3D grid     :     120.0000000000
  | Charge integration error                      :      -0.0000000000
  | Normalization factor for density and gradient :       1.0000000000

  Evaluating partitioned Hartree potential by multipole expansion.
  | Original multipole sum: apparent total charge =   0.785602E-13
  | Sum of charges compensated after spline to logarithmic grids =   0.747790E-04
  | Analytical far-field extrapolation by fixed multipoles:
  | Hartree multipole sum: apparent total charge =   0.789987E-13
  Summing up the Hartree potential.
  Time summed over all CPUs for potential: real work        0.380 s, elapsed        0.395 s
  | RMS charge density error from multipole expansion :   0.189673E-01

  Integrating Hamiltonian matrix: batch-based integration.
  Time summed over all CPUs for integration: real work        0.708 s, elapsed        0.756 s

  Updating Kohn-Sham eigenvalues and eigenvectors using ELSI and the ELPA eigensolver.
  Starting ELPA eigensolver
  Finished transformation to standard eigenproblem
  | Time :     0.000 s
  Finished solving standard eigenproblem
  | Time :     0.003 s
  Finished back-transformation of eigenvectors
  | Time :     0.001 s

  Obtaining occupation numbers and chemical potential using ELSI.
  | Chemical potential (Fermi level):    -7.59649063 eV
  Highest occupied state (VBM) at     -8.36811020 eV
  | Occupation number:      2.00000000

  Lowest unoccupied state (CBM) at    -4.83726835 eV
  | Occupation number:      0.00000000

  Overall HOMO-LUMO gap:      3.53084186 eV.

  Total energy components:
  | Sum of eigenvalues            :        -886.77125353 Ha      -24130.27354340 eV
  | XC energy correction          :        -145.15645106 Ha       -3949.90800236 eV
  | XC potential correction       :         189.01263337 Ha        5143.29544209 eV
  | Free-atom electrostatic energy:        -781.26615125 Ha      -21259.33363856 eV
  | Hartree energy correction     :          -0.89291768 Ha         -24.29752627 eV
  | Entropy correction            :           0.00000000 Ha           0.00000000 eV
[...]
   Total forces(   7)            : -0.287025E+00  0.250498E+01 -0.157820E+00
  atom #    8
   Hellmann-Feynman              :  0.764659E+00 -0.816323E+00  0.540779E+00
   Ionic forces                  :  0.000000E+00  0.000000E+00  0.000000E+00
   Multipole                     :  0.409072E+00 -0.281712E+00 -0.211666E-01
   Hartree pot. SCF incomplete   :  0.472956E-05 -0.391737E-05 -0.487176E-05
   Pulay + GGA                   : -0.310849E+01  0.266686E+01 -0.304987E+00
   ----------------------------------------------------------------
   Total forces(   8)            : -0.193476E+01  0.156882E+01  0.214620E+00
  atom #    9
   Hellmann-Feynman              : -0.562552E+00  0.548567E+00 -0.319792E+01
   Ionic forces                  :  0.000000E+00  0.000000E+00  0.000000E+00
   Multipole                     : -0.154342E+00  0.147595E+00 -0.863873E+00
   Hartree pot. SCF incomplete   : -0.223562E-05  0.113947E-06 -0.201988E-05
   Pulay + GGA                   :  0.134648E+01 -0.127645E+01  0.751693E+01
   ----------------------------------------------------------------
   Total forces(   9)            :  0.629585E+00 -0.580287E+00  0.345513E+01
  atom #   10
   Hellmann-Feynman              : -0.355530E+00  0.722672E+00  0.687435E+00
   Ionic forces                  :  0.000000E+00  0.000000E+00  0.000000E+00
   Multipole                     :  0.217108E-01  0.481116E+00  0.123031E+00
   Hartree pot. SCF incomplete   : -0.205309E-05  0.864084E-05 -0.366689E-05
   Pulay + GGA                   :  0.339087E+00 -0.350732E+01 -0.161071E+01
   ----------------------------------------------------------------
   Total forces(  10)            :  0.526559E-02 -0.230352E+01 -0.800244E+00
  atom #   11
   Hellmann-Feynman              :  0.309637E+01  0.108859E+01  0.115774E+01
   Ionic forces                  :  0.000000E+00  0.000000E+00  0.000000E+00
   Multipole                     :  0.746238E+00  0.301071E+00  0.245022E+00
   Hartree pot. SCF incomplete   :  0.246581E-05  0.108515E-05  0.186441E-05
   Pulay + GGA                   : -0.672801E+01 -0.240532E+01 -0.260730E+01
   ----------------------------------------------------------------
   Total forces(  11)            : -0.288539E+01 -0.101566E+01 -0.120454E+01
  atom #   12
   Hellmann-Feynman              : -0.639433E-01 -0.122441E+00 -0.135983E+00
   Ionic forces                  :  0.000000E+00  0.000000E+00  0.000000E+00
   Multipole                     : -0.365397E+00 -0.258615E+00  0.185300E+00
   Hartree pot. SCF incomplete   : -0.459365E-05 -0.934014E-06 -0.233985E-05
   Pulay + GGA                   :  0.189939E+01  0.107045E+01 -0.388389E+00
   ----------------------------------------------------------------
   Total forces(  12)            :  0.147005E+01  0.689397E+00 -0.339075E+00


  Self-consistency convergence accuracy:
  | Change of charge density      :  0.1095E-05
  | Change of sum of eigenvalues  : -0.3609E-04 eV
  | Change of total energy        :  0.6461E-07 eV
  | Change of forces              :  0.2084E-05 eV/A

  Writing Kohn-Sham eigenvalues.

  State    Occupation    Eigenvalue [Ha]    Eigenvalue [eV]
      1       2.00000         -55.668960        -1514.82948
      2       2.00000         -55.642018        -1514.09634
      3       2.00000         -55.597652        -1512.88908
      4       2.00000         -24.320720         -661.80045
      5       2.00000         -24.314465         -661.63026
      6       2.00000         -24.306449         -661.41214
      7       2.00000         -24.281083         -660.72189
      8       2.00000         -24.271814         -660.46965
      9       2.00000         -24.245184         -659.74502
     10       2.00000         -24.218121         -659.00860
     11       2.00000         -24.167108         -657.62048
     12       2.00000         -24.163972         -657.53513
     13       2.00000          -4.121500         -112.15171
     14       2.00000          -4.093804         -111.39807
     15       2.00000          -4.048561         -110.16695
     16       2.00000          -2.714516          -73.86575
     17       2.00000          -2.713457          -73.83692
     18       2.00000          -2.711290          -73.77796
     19       2.00000          -2.686935          -73.11523
     20       2.00000          -2.685358          -73.07231
     21       2.00000          -2.683874          -73.03191
     22       2.00000          -2.643367          -71.92967
     23       2.00000          -2.640072          -71.84001
     24       2.00000          -2.636793          -71.75078
     25       2.00000          -1.195413          -32.52883
     26       2.00000          -1.182141          -32.16770
     27       2.00000          -1.164360          -31.68384
     28       2.00000          -1.148402          -31.24959
     29       2.00000          -1.126578          -30.65574
     30       2.00000          -1.091762          -29.70834
     31       2.00000          -1.065802          -29.00196
     32       2.00000          -1.013927          -27.59036
     33       2.00000          -1.008936          -27.45456
     34       2.00000          -0.582009          -15.83728
     35       2.00000          -0.568805          -15.47798
     36       2.00000          -0.545494          -14.84365
     37       2.00000          -0.521129          -14.18064
     38       2.00000          -0.516887          -14.06520
     39       2.00000          -0.499928          -13.60374
     40       2.00000          -0.497873          -13.54782
     41       2.00000          -0.494970          -13.46882
     42       2.00000          -0.481526          -13.10300
     43       2.00000          -0.475534          -12.93994
     44       2.00000          -0.461903          -12.56902
     45       2.00000          -0.452372          -12.30967
     46       2.00000          -0.450398          -12.25595
     47       2.00000          -0.437788          -11.91282
     48       2.00000          -0.432836          -11.77808
     49       2.00000          -0.422992          -11.51020
     50       2.00000          -0.411647          -11.20147
     51       2.00000          -0.397492          -10.81630
     52       2.00000          -0.396431          -10.78744
     53       2.00000          -0.385158          -10.48068
     54       2.00000          -0.371500          -10.10903
     55       2.00000          -0.370989          -10.09512
     56       2.00000          -0.356174           -9.69199
     57       2.00000          -0.325721           -8.86331
     58       2.00000          -0.322497           -8.77558
     59       2.00000          -0.316172           -8.60349
     60       2.00000          -0.306542           -8.34143
     61       0.00000          -0.177834           -4.83910
     62       0.00000          -0.115899           -3.15377
     63       0.00000          -0.076876           -2.09192
     64       0.00000          -0.070518           -1.91888
     65       0.00000          -0.062217           -1.69302
     66       0.00000          -0.028160           -0.76626
     67       0.00000           0.015587            0.42416
     68       0.00000           0.021897            0.59585
     69       0.00000           0.034867            0.94879
     70       0.00000           0.064610            1.75814
     71       0.00000           0.086777            2.36132
     72       0.00000           0.094544            2.57269
     73       0.00000           0.135474            3.68644
     74       0.00000           0.147724            4.01977
     75       0.00000           0.151091            4.11138
     76       0.00000           0.158167            4.30394
     77       0.00000           0.177045            4.81764
     78       0.00000           0.184987            5.03375
     79       0.00000           0.197567            5.37607
     80       0.00000           0.210077            5.71648
     81       0.00000           0.214593            5.83938
     82       0.00000           0.217880            5.92883
     83       0.00000           0.226675            6.16815
     84       0.00000           0.230282            6.26630
     85       0.00000           0.241107            6.56087
     86       0.00000           0.245239            6.67329
     87       0.00000           0.248971            6.77485
     88       0.00000           0.260093            7.07749
     89       0.00000           0.280109            7.62216
     90       0.00000           0.283108            7.70377
     91       0.00000           0.286294            7.79046
     92       0.00000           0.325263            8.85086
     93       0.00000           0.344427            9.37235
     94       0.00000           0.357744            9.73470
     95       0.00000           0.369931           10.06634
     96       0.00000           0.377739           10.27881

  Highest occupied state (VBM) at     -8.34143479 eV
  | Occupation number:      2.00000000

  Lowest unoccupied state (CBM) at    -4.83910220 eV
  | Occupation number:      0.00000000

  Overall HOMO-LUMO gap:      3.50233259 eV.
  | Chemical Potential                          :    -7.59355235 eV

  Self-consistency cycle converged.


------------------------------------------------------------
  End self-consistency iteration #    13       :  max(cpu_time)    wall_clock(cpu1)
  | Time for this iteration                     :        0.277 s           0.275 s
  | Charge density & force component update     :        0.154 s           0.153 s
  | Density mixing                              :        0.005 s           0.003 s
  | Hartree multipole update                    :        0.001 s           0.001 s
  | Hartree multipole summation                 :        0.048 s           0.048 s
  | Hartree pot. SCF incomplete forces          :        0.032 s           0.032 s
  | Integration                                 :        0.032 s           0.032 s
  | Solution of K.-S. eqns.                     :        0.004 s           0.004 s
  | Total energy evaluation                     :        0.000 s           0.000 s

  Partial memory accounting:
  | Current value for overall tracked memory usage:
  |   Minimum:        0.274 MB (on task 23)
  |   Maximum:        0.293 MB (on task  0)
  |   Average:        0.289 MB
  | Peak value for overall tracked memory usage:
  |   Minimum:        2.999 MB (on task 14 after allocating hessian_basis_wave)
  |   Maximum:        3.140 MB (on task 19 after allocating hessian_basis_wave)
  |   Average:        3.065 MB
  | Largest tracked array allocation so far:
  |   Minimum:        1.462 MB (hessian_basis_wave on task 14)
  |   Maximum:        1.552 MB (hessian_basis_wave on task 19)
  |   Average:        1.504 MB
  Note:  These values currently only include a subset of arrays which are explicitly tracked.
  The "true" memory usage will be greater.
------------------------------------------------------------
  Removing unitary transformations (pure translations, rotations) from forces on atoms.
  Atomic forces before filtering:
  | Net force on center of mass :  -0.781294E-02 -0.782238E-02 -0.509576E-03 eV/A
  | Net torque on center of mass:  -0.357458E-02  0.102682E-02  0.308747E-02 eV
  Atomic forces after filtering:
  | Net force on center of mass :   0.535218E-15 -0.178406E-15  0.000000E+00 eV/A
  | Net torque on center of mass:  -0.113290E-14  0.245462E-14 -0.660859E-15 eV

  Energy and forces in a compact form:
  | Total energy uncorrected      :         -0.442205169520006E+05 eV
  | Total energy corrected        :         -0.442205169520006E+05 eV  <-- do not rely on this value for anything but (periodic) metals
  | Electronic free energy        :         -0.442205169520006E+05 eV
  Total atomic forces (unitary forces cleaned) [eV/Ang]:
  |    1         -0.330169238554705E+01         -0.159791644933003E+01          0.132724008465605E+01
  |    2          0.247621793436223E+01          0.425964488120727E+00          0.189944548853685E+01
  |    3         -0.122490365269525E+00          0.517283045973596E+00         -0.257207709438859E+01
  |    4          0.897115536130100E+00         -0.160906747463750E+01         -0.110876282593509E+01
  |    5          0.235394740168495E+01         -0.162980845438048E+01         -0.283815956781046E+00
  |    6          0.695192092716519E+00          0.302590170951025E+01         -0.430456070194920E+00
  |    7         -0.286486299213431E+00          0.250549965879418E+01         -0.157904078782259E+00
  |    8         -0.193414669069944E+01          0.156944204333797E+01          0.214620364561610E+00
  |    9          0.630293318449710E+00         -0.579301392050884E+00          0.345523698156071E+01
  |   10          0.605760842642779E-02         -0.230286620354821E+01         -0.800041184127352E+00
  |   11         -0.288467306317692E+01         -0.101535925535197E+01         -0.120441290459542E+01
  |   12          0.147066491213644E+01          0.690228283562364E+00         -0.339072804510544E+00

  ------------------------------------ 
  Start decomposition of the XC Energy 
  ------------------------------------ 
  X and C from original XC functional choice 
  Hartree-Fock Energy :          0.000000000 Ha              0.000000000 eV
  X Energy            :       -140.204884499 Ha          -3815.169020878 eV
  C Energy            :         -4.955348821 Ha           -134.841902095 eV
  Total XC Energy     :       -145.160233320 Ha          -3950.010922973 eV
  ------------------------------------ 
  LDA X and C from self-consistent density 
  X Energy LDA        :       -132.792828151 Ha          -3613.476705663 eV
  C Energy LDA        :         -8.827518815 Ha           -240.209008644 eV
  ------------------------------------ 
  End decomposition of the XC Energy 
  ------------------------------------ 

------------------------------------------------------------

------------------------------------------------------------------------------
  Final output of selected total energy values:

  The following output summarizes some interesting total energy values
  at the end of a run (AFTER all relaxation, molecular dynamics, etc.).

  | Total energy of the DFT / Hartree-Fock s.c.f. calculation      :         -44220.516952001 eV
  | Final zero-broadening corrected energy (caution - metals only) :         -44220.516952001 eV
  | For reference only, the value of 1 Hartree used in FHI-aims is :             27.211384500 eV

  Before relying on these values, please be sure to understand exactly which
  total energy value is referred to by a given number. Different objects may
  all carry the same name 'total energy'. Definitions:

  Total energy of the DFT / Hartree-Fock s.c.f. calculation:
  | Note that this energy does not include ANY quantities calculated after the
  | s.c.f. cycle, in particular not ANY RPA, MP2, etc. many-body perturbation terms.

  Final zero-broadening corrected energy:
  | For metallic systems only, a broadening of the occupation numbers at the Fermi
  | level can be extrapolated back to zero broadening by an electron-gas inspired
  | formula. For all systems that are not real metals, this value can be
  | meaningless and should be avoided.

------------------------------------------------------------------------------
  Methods described in the following list of references were used in this FHI-aims run.
  If you publish the results, please make sure to cite these reference if they apply.
  FHI-aims is an academic code, and for our developers (often, Ph.D. students
  and postdocs), scientific credit in the community is essential.
  Thank you for helping us!

  For any use of FHI-aims, please cite:

    Volker Blum, Ralf Gehrke, Felix Hanke, Paula Havu, Ville Havu,
    Xinguo Ren, Karsten Reuter, and Matthias Scheffler
    'Ab initio molecular simulations with numeric atom-centered orbitals'
    Computer Physics Communications 180, 2175-2196 (2009)
    http://dx.doi.org/10.1016/j.cpc.2009.06.022


  The ELSI infrastructure was used in your run to solve the Kohn-Sham electronic structure.
  Please check out http://elsi-interchange.org to learn more.
  If scalability is important for your project, please acknowledge ELSI by citing:

    V. W-z. Yu, F. Corsetti, A. Garcia, W. P. Huhn, M. Jacquelin, W. Jia,
    B. Lange, L. Lin, J. Lu, W. Mi, A. Seifitokaldani, A. Vazquez-Mayagoitia,
    C. Yang, H. Yang, and V. Blum
    'ELSI: A unified software interface for Kohn-Sham electronic structure solvers'
    Computer Physics Communications 222, 267-285 (2018).
    http://dx.doi.org/10.1016/j.cpc.2017.09.007


  For the real-space grid partitioning and parallelization used in this calculation, please cite:

    Ville Havu, Volker Blum, Paula Havu, and Matthias Scheffler,
    'Efficient O(N) integration for all-electron electronic structure calculation'
    'using numerically tabulated basis functions'
    Journal of Computational Physics 228, 8367-8379 (2009).
    http://dx.doi.org/10.1016/j.jcp.2009.08.008

  Of course, there are many other important community references, e.g., those cited in the
  above references. Our list is limited to references that describe implementations in the
  FHI-aims code. The reason is purely practical (length of this list) - please credit others as well.

------------------------------------------------------------
          Leaving FHI-aims.
          Date     :  20220517, Time     :  120213.470

          Computational steps:
          | Number of self-consistency cycles          :           13
          | Number of SCF (re)initializations          :            1

          Detailed time accounting                     :  max(cpu_time)    wall_clock(cpu1)
          | Total time                                  :        1.906 s           1.966 s
          | Preparation time                            :        0.183 s           0.184 s
          | Boundary condition initalization            :        0.000 s           0.000 s
          | Grid partitioning                           :        0.040 s           0.040 s
          | Preloading free-atom quantities on grid     :        0.016 s           0.016 s
          | Free-atom superposition energy              :        0.005 s           0.005 s
          | Total time for integrations                 :        0.464 s           0.462 s
          | Total time for solution of K.-S. equations  :        0.067 s           0.068 s
          | Total time for density & force components   :        0.657 s           0.655 s
          | Total time for mixing                       :        0.058 s           0.032 s
          | Total time for Hartree multipole update     :        0.017 s           0.018 s
          | Total time for Hartree multipole sum        :        0.281 s           0.280 s
          | Total time for total energy evaluation      :        0.002 s           0.001 s
          | Total time NSC force correction             :        0.064 s           0.064 s
          | Total time for scaled ZORA corrections      :        0.000 s           0.000 s

          Partial memory accounting:
          | Residual value for overall tracked memory usage across tasks:     0.000000 MB (should be 0.000000 MB)
          | Peak values for overall tracked memory usage:
          |   Minimum:        2.999 MB (on task 14 after allocating hessian_basis_wave)
          |   Maximum:        3.140 MB (on task 19 after allocating hessian_basis_wave)
          |   Average:        3.065 MB
          | Largest tracked array allocation:
          |   Minimum:        1.462 MB (hessian_basis_wave on task 14)
          |   Maximum:        1.552 MB (hessian_basis_wave on task 19)
          |   Average:        1.504 MB
          Note:  These values currently only include a subset of arrays which are explicitly tracked.
          The "true" memory usage will be greater.

          Have a nice day.
------------------------------------------------------------
