********************************************************************************
*                       GENERAL UTILITY LATTICE PROGRAM                        *
*                                 Julian Gale                                  *
*                       Curtin Institute for Computation                       *
*                           Department of Chemistry                            *
*                    Curtin University, Western Australia                      *
********************************************************************************
* Version = 5.1.1 * Last modified =  24th November 2018                        *
********************************************************************************
*  optimise     - perform optimisation run                                     *
*  conp         - constant pressure calculation                                *
*  shell        - only shells and radii to be optimised                        *
*  phonon       - calculate phonons for final geometry                         *
*  eigenvectors - output phonon eigenvectors                                   *
********************************************************************************

  Job Started  at 14:39.16 25th May        2022                               

  Number of CPUs =     1

  Host name      = login03                                 


  Total number of configurations input =      1

********************************************************************************
*  Input for Configuration =   1                                               *
********************************************************************************

  Formula = Al3F9                                                       

  Number of irreducible atoms/shells =      21


  Total number atoms/shells =      21

  Dimensionality = 0               :  Cluster


  Charge on cluster =  -0.000000


  Initial cluster dipoles : x =      0.718431 e.Angs
                            y =      0.197623 e.Angs
                            z =     -0.835321 e.Angs

  Temperature of configuration =  0.000     K 

  Symmetry number =      1

  Cartesian coordinates of cluster :

--------------------------------------------------------------------------------
   No.  Atomic       x           y          z         Charge      Occupancy
        Label      (Angs)      (Angs)     (Angs)        (e)         (Frac)  
--------------------------------------------------------------------------------
      1 Al    c     -0.0775      1.6293      2.1548     3.00000    1.000000    
      2 Al    c      2.5144      2.5838      1.7518     3.00000    1.000000    
      3 Al    c      1.3551      2.6786     -0.6618     3.00000    1.000000    
      4 F     c      1.0172      3.0336      2.8851     0.59000    1.000000    
      5 F     c     -1.5783      2.6773      2.0150     0.59000    1.000000    
      6 F     c     -0.4600      0.0577      3.0347     0.59000    1.000000    
      7 F     c      1.7789      0.8481      1.8263     0.59000    1.000000    
      8 F     c      2.9966      1.9175     -0.1089     0.59000    1.000000    
      9 F     c      1.1147      3.1130     -2.3986     0.59000    1.000000    
     10 F     c      1.6847      3.9972      0.6743     0.59000    1.000000    
     11 F     c      4.0999      3.0754      2.4743     0.59000    1.000000    
     12 F     c      0.0036      1.7578      0.1675     0.59000    1.000000    
     13 F     s      1.0172 *    3.0336 *    2.8851 *  -1.59000    1.000000    
     14 F     s     -1.5783 *    2.6773 *    2.0150 *  -1.59000    1.000000    
     15 F     s     -0.4600 *    0.0577 *    3.0347 *  -1.59000    1.000000    
     16 F     s      1.7789 *    0.8481 *    1.8263 *  -1.59000    1.000000    
     17 F     s      2.9966 *    1.9175 *   -0.1089 *  -1.59000    1.000000    
     18 F     s      1.1147 *    3.1130 *   -2.3986 *  -1.59000    1.000000    
     19 F     s      1.6847 *    3.9972 *    0.6743 *  -1.59000    1.000000    
     20 F     s      4.0999 *    3.0754 *    2.4743 *  -1.59000    1.000000    
     21 F     s      0.0036 *    1.7578 *    0.1675 *  -1.59000    1.000000    
--------------------------------------------------------------------------------


  Brillouin zone sampling points :

--------------------------------------------------------------------------------
  Point number          x          y          z            Weight
--------------------------------------------------------------------------------
        1           0.000000   0.000000   0.000000     1.00000000
--------------------------------------------------------------------------------


********************************************************************************
*  General input information                                                   *
********************************************************************************

  Species output for all configurations : 

--------------------------------------------------------------------------------
  Species    Type    Atomic    Atomic    Charge       Radii (Angs)     Library
                     Number     Mass       (e)     Cova   Ionic  VDW   Symbol
--------------------------------------------------------------------------------
    Al       Core       13      26.98   3.000000   1.350  0.000  2.050          
    F        Core        9      19.00   0.590000   0.710  0.000  1.300          
    F        Shell       9       0.00  -1.590000   0.710  0.000  1.300          
--------------------------------------------------------------------------------


  Accuracy factor for short range sums = 12.000

  Time limit = Infinity

  Maximum range for interatomic potentials =    100000.000000 Angstroms

  General interatomic potentials :

--------------------------------------------------------------------------------
Atom  Types   Potential      Parameter       Value         Units   Cutoffs(Ang)
  1     2                                                            Min /  Max 
--------------------------------------------------------------------------------
Al   c F    s Buckingham    Buckingham A     3760.0008    eV        0.000 10.000
                            Buckingham rho  0.22200000    Ang       
                            Buckingham C     0.0000000    eV*Ang^6  
--------------------------------------------------------------------------------
F    s F    s Buck 4 range  Buck4 A          1127.7000    eV        0.000 12.000
                            Buck4 rho       0.27530000    Ang       
                            Buck4 C          15.830000    eV*Ang^6  
                            Buck4 minimum    2.7900000    Ang       
--------------------------------------------------------------------------------
F    c F    s Spring (c-s)  Spring k 2       20.770000    eV*Ang^-2 0.000  0.800
                            Spring k 4       0.0000000    eV*Ang^-4 
--------------------------------------------------------------------------------

********************************************************************************
*  Output for configuration   1                                                *
********************************************************************************


  Components of energy : 

--------------------------------------------------------------------------------
  Interatomic potentials     =          10.16959948 eV    
  Monopole - monopole (real) =        -177.98788729 eV    
--------------------------------------------------------------------------------
  Total lattice energy       =        -167.81828781 eV    
--------------------------------------------------------------------------------
  Total lattice energy       =          -16191.8994 kJ/mol
--------------------------------------------------------------------------------


  Number of variables =       27

  Maximum number of calculations  =          2000
  Maximum Hessian update interval =            10
  Maximum step size               =   1.000000000
  Maximum parameter tolerance     =   0.000001000
  Maximum function  tolerance     =   0.000010000
  Maximum gradient  tolerance     =   0.000000010
  Maximum gradient  component     =   0.010000000

  Symmetry not applied to optimisation

  Newton-Raphson optimiser to be used

  BFGS hessian update to be used

  Lower half triangular hessian to be used

  Minimiser to switch to RFO
  When gradient norm is less than     0.010000

  Shell only optimisation

  Start of cluster optimisation :

  Cycle:      0 Energy:      -167.818288  Gnorm:      1.495585  CPU:    0.005
  ** Hessian calculated **
  Cycle:      1 Energy:      -184.902342  Gnorm:      0.591950  CPU:    0.007
  ** Hessian calculated **
  Cycle:      2 Energy:      -186.368736  Gnorm:      0.032794  CPU:    0.009
  Cycle:      3 Energy:      -186.374883  Gnorm:      0.005204  CPU:    0.011
  ** Hessian has required structure
  Cycle:      4 Energy:      -186.375049  Gnorm:      0.001427  CPU:    0.013
  ** Hessian has required structure
  Cycle:      5 Energy:      -186.375066  Gnorm:      0.000520  CPU:    0.015
  ** Hessian has required structure
  Cycle:      6 Energy:      -186.375067  Gnorm:      0.000296  CPU:    0.017
  ** Hessian has required structure
  Cycle:      7 Energy:      -186.375068  Gnorm:      0.000186  CPU:    0.019
  ** Hessian has required structure
  Cycle:      8 Energy:      -186.375068  Gnorm:      0.000104  CPU:    0.020
  ** Hessian has required structure
  Cycle:      9 Energy:      -186.375068  Gnorm:      0.000060  CPU:    0.022
  ** Hessian has required structure
  Cycle:     10 Energy:      -186.375068  Gnorm:      0.000045  CPU:    0.024
  ** Hessian has required structure
  Cycle:     11 Energy:      -186.375068  Gnorm:      0.000033  CPU:    0.025
  ** Hessian has required structure
  Cycle:     12 Energy:      -186.375068  Gnorm:      0.000000  CPU:    0.028
  ** Hessian has required structure
  Cycle:     13 Energy:      -186.375068  Gnorm:      0.000000  CPU:    0.029
  ** Hessian has required structure
  Cycle:     14 Energy:      -186.375068  Gnorm:      0.000000  CPU:    0.031
  ** Hessian has required structure
  Cycle:     15 Energy:      -186.375068  Gnorm:      0.000000  CPU:    0.033
  ** Hessian has required structure
  Cycle:     16 Energy:      -186.375068  Gnorm:      0.000000  CPU:    0.035
  ** Hessian has required structure
  Cycle:     17 Energy:      -186.375068  Gnorm:      0.000000  CPU:    0.037
  ** Hessian calculated **

  XYZ File written as 004/1/sp_mod_-40/sp_mod_-40_eig.xyz



  **** Optimisation achieved ****


  Final energy =    -186.37506821 eV
  Final Gnorm  =       0.00000006

  Components of energy : 

--------------------------------------------------------------------------------
  Interatomic potentials     =          37.46115976 eV    
  Monopole - monopole (real) =        -223.83622797 eV    
--------------------------------------------------------------------------------
  Total lattice energy       =        -186.37506821 eV    
--------------------------------------------------------------------------------
  Total lattice energy       =          -17982.3451 kJ/mol
--------------------------------------------------------------------------------

  Final cartesian coordinates of atoms :

--------------------------------------------------------------------------------
   No.  Atomic        x           y          z          Radius
        Label       (Angs)      (Angs)     (Angs)       (Angs) 
--------------------------------------------------------------------------------
     1  Al    c    -0.077489    1.629312    2.154765    0.000000
     2  Al    c     2.514360    2.583780    1.751792    0.000000
     3  Al    c     1.355061    2.678618   -0.661770    0.000000
     4  F     c     1.017220    3.033561    2.885094    0.000000
     5  F     c    -1.578342    2.677337    2.015013    0.000000
     6  F     c    -0.460010    0.057723    3.034681    0.000000
     7  F     c     1.778917    0.848081    1.826345    0.000000
     8  F     c     2.996645    1.917504   -0.108852    0.000000
     9  F     c     1.114709    3.112958   -2.398625    0.000000
    10  F     c     1.684712    3.997159    0.674300    0.000000
    11  F     c     4.099933    3.075402    2.474270    0.000000
    12  F     c     0.003582    1.757784    0.167457    0.000000
    13  F     s     1.071440    2.845073    2.696374    0.000000
    14  F     s    -1.359341    2.529419    2.031057    0.000000
    15  F     s    -0.398554    0.295044    2.896025    0.000000
    16  F     s     1.733882    1.116412    1.828239    0.000000
    17  F     s     2.766411    2.056055   -0.040231    0.000000
    18  F     s     1.153614    3.042773   -2.120892    0.000000
    19  F     s     1.723016    3.719260    0.615192    0.000000
    20  F     s     3.850018    2.997879    2.359506    0.000000
    21  F     s     0.204303    1.869286    0.208565    0.000000
--------------------------------------------------------------------------------


  Final Cartesian derivatives :

--------------------------------------------------------------------------------
   No.  Atomic          x             y             z           Radius
        Label       (eV/Angs)     (eV/Angs)    (eV/Angs)      (eV/Angs)
--------------------------------------------------------------------------------
      1 Al    c       0.000000      0.000000      0.000000      0.000000
      2 Al    c       0.000000      0.000000      0.000000      0.000000
      3 Al    c       0.000000      0.000000      0.000000      0.000000
      4 F     c       0.000000      0.000000      0.000000      0.000000
      5 F     c       0.000000      0.000000      0.000000      0.000000
      6 F     c       0.000000      0.000000      0.000000      0.000000
      7 F     c       0.000000      0.000000      0.000000      0.000000
      8 F     c       0.000000      0.000000      0.000000      0.000000
      9 F     c       0.000000      0.000000      0.000000      0.000000
     10 F     c       0.000000      0.000000      0.000000      0.000000
     11 F     c       0.000000      0.000000      0.000000      0.000000
     12 F     c       0.000000      0.000000      0.000000      0.000000
     13 F     s       0.000000     -0.000000     -0.000000      0.000000
     14 F     s       0.000000      0.000000      0.000000      0.000000
     15 F     s      -0.000000      0.000000      0.000000      0.000000
     16 F     s      -0.000000      0.000000      0.000000      0.000000
     17 F     s       0.000000      0.000000      0.000000      0.000000
     18 F     s       0.000000     -0.000000      0.000001      0.000000
     19 F     s       0.000000      0.000000      0.000000      0.000000
     20 F     s      -0.000001     -0.000001     -0.000000      0.000000
     21 F     s       0.000000     -0.000000     -0.000000      0.000000
--------------------------------------------------------------------------------
  Maximum abs         0.000001      0.000001      0.000001      0.000000
--------------------------------------------------------------------------------


  Born effective charge tensors : 

-------------------------------------------------------------------------------
  Atom             x           y             z
-------------------------------------------------------------------------------
    1 Al    x       1.3475      0.1866     -0.1226
            y       0.1682      0.7428      0.1815
            z      -0.2254      0.1357      1.5917
-------------------------------------------------------------------------------
    2 Al    x       0.7892     -0.2463     -0.1990
            y      -0.2361      1.0183     -0.0147
            z      -0.1066      0.0389      1.5792
-------------------------------------------------------------------------------
    3 Al    x       1.0465     -0.0023     -0.0614
            y       0.0125      1.1658      0.0917
            z      -0.0409      0.1018      0.5774
-------------------------------------------------------------------------------
    4 F     x      -0.3671      0.0137      0.0426
            y      -0.0952     -0.3385      0.0025
            z       0.0107      0.0107     -0.3563
-------------------------------------------------------------------------------
    5 F     x      -0.2383     -0.2579      0.0595
            y      -0.2340     -0.3494     -0.0271
            z       0.0668     -0.0097     -0.5574
-------------------------------------------------------------------------------
    6 F     x      -0.5342      0.0708     -0.0371
            y       0.0728     -0.1411     -0.2159
            z      -0.0101     -0.2108     -0.4177
-------------------------------------------------------------------------------
    7 F     x      -0.6006      0.1186      0.0044
            y       0.1892     -0.2177      0.0185
            z       0.0026      0.0061     -0.4441
-------------------------------------------------------------------------------
    8 F     x      -0.2147     -0.0533      0.1562
            y      -0.0523     -0.3027     -0.1277
            z       0.0404     -0.0445     -0.5856
-------------------------------------------------------------------------------
    9 F     x      -0.5253     -0.0246      0.0790
            y      -0.0324     -0.5073     -0.1461
            z       0.0957     -0.1302      0.0449
-------------------------------------------------------------------------------
   10 F     x      -0.3435      0.0155     -0.0117
            y       0.0385     -0.3089      0.1444
            z       0.0135      0.0453     -0.3242
-------------------------------------------------------------------------------
   11 F     x      -0.0687      0.1449      0.2235
            y       0.1449     -0.4895      0.0693
            z       0.2234      0.0724     -0.4648
-------------------------------------------------------------------------------
   12 F     x      -0.2909      0.0342     -0.1333
            y       0.0238     -0.2719      0.0235
            z      -0.0703     -0.0156     -0.6432
-------------------------------------------------------------------------------




  Moment of inertia tensor (10^-46 x kgm^2): 

-------------------------------------------------------------------------------
                x           y           z           Principal axis system
-------------------------------------------------------------------------------
       x        141.51      -20.49       11.77          113.539466
       y        -20.49      190.75       21.93          149.731560
       z         11.77       21.93      133.49          202.476732
-------------------------------------------------------------------------------
  Centre of mass (Ang) =     1.209797     2.282333     1.144591
-------------------------------------------------------------------------------


  Vibrational Frequency Calculation : 

--------------------------------------------------------------------------------

  Frequencies (cm-1) and Eigenvectors : 

  Frequency      -0.0000    0.0000    0.0000    9.7422   13.8307   20.4386
  IR Intensity    0.0000    0.0000    0.0000    0.0003    0.0004    0.0004
     in X         0.0000    0.0000    0.0000    0.0001    0.0002    0.0000
     in Y         0.0000    0.0000    0.0000    0.0002    0.0000    0.0003
     in Z         0.0000    0.0000    0.0000    0.0001    0.0001    0.0000
  Raman Intsty    0.0000    0.0000    0.0000    0.0000    0.0000    0.0002

     1 x      -0.024863  0.023397  0.325459 -0.093409  0.090095  0.144699
     1 y      -0.004271 -0.326398  0.023138 -0.150343 -0.065842 -0.251218
     1 z      -0.326271  0.002490 -0.025104 -0.188071  0.091413  0.009244
     2 x      -0.024863  0.023397  0.325459 -0.072848  0.083930 -0.042756
     2 y      -0.004271 -0.326398  0.023138 -0.080079 -0.161019  0.224000
     2 z      -0.326271  0.002490 -0.025104  0.148415 -0.134628 -0.014227
     3 x      -0.024863  0.023397  0.325459  0.173265 -0.197499 -0.108197
     3 y      -0.004271 -0.326398  0.023138  0.244437  0.230525  0.053254
     3 z      -0.326271  0.002490 -0.025104  0.047669  0.019183  0.006313
     4 x      -0.020864  0.019634  0.273119 -0.149884  0.212764 -0.071952
     4 y      -0.003584 -0.273907  0.019417 -0.182300 -0.172259 -0.069880
     4 z      -0.273800  0.002089 -0.021067  0.053088  0.090902  0.039433
     5 x      -0.020864  0.019634  0.273119 -0.089941  0.100800 -0.013653
     5 y      -0.003584 -0.273907  0.019417 -0.152055  0.007466 -0.400618
     5 z      -0.273800  0.002089 -0.021067 -0.216600  0.286855  0.037670
     6 x      -0.020864  0.019634  0.273119 -0.108916  0.102329  0.329297
     6 y      -0.003584 -0.273907  0.019417 -0.167666 -0.084846 -0.274638
     6 z      -0.273800  0.002089 -0.021067 -0.244093  0.036300 -0.016070
     7 x      -0.020864  0.019634  0.273119 -0.071227 -0.014380  0.221509
     7 y      -0.003584 -0.273907  0.019417 -0.076343 -0.106211  0.074249
     7 z      -0.273800  0.002089 -0.021067 -0.125239 -0.219186 -0.042817
     8 x      -0.020864  0.019634  0.273119  0.095432 -0.151197  0.040411
     8 y      -0.003584 -0.273907  0.019417  0.135124  0.042500  0.299887
     8 z      -0.273800  0.002089 -0.021067  0.098376 -0.226881 -0.031373
     9 x      -0.020864  0.019634  0.273119  0.313062 -0.306551 -0.177944
     9 y      -0.003584 -0.273907  0.019417  0.411639  0.414891  0.047482
     9 z      -0.273800  0.002089 -0.021067  0.068451  0.090902  0.018010
    10 x      -0.020864  0.019634  0.273119  0.041087  0.040012 -0.290487
    10 y      -0.003584 -0.273907  0.019417  0.058074  0.029808  0.069380
    10 z      -0.273800  0.002089 -0.021067  0.212040  0.127343  0.030831
    11 x      -0.020864  0.019634  0.273119 -0.118264  0.167930 -0.093293
    11 y      -0.003584 -0.273907  0.019417 -0.159378 -0.303910  0.410607
    11 z      -0.273800  0.002089 -0.021067  0.312789 -0.212137 -0.037308
    12 x      -0.020864  0.019634  0.273119  0.080300 -0.123733  0.063565
    12 y      -0.003584 -0.273907  0.019417  0.116203  0.168193 -0.187496
    12 z      -0.273800  0.002089 -0.021067 -0.168361  0.054537  0.000040


  Frequency      55.7015   60.5440   93.2929  115.8127  135.7595  141.8156
  IR Intensity    0.0033    0.0018    0.0036    0.0136    0.0195    0.0010
     in X         0.0000    0.0008    0.0004    0.0031    0.0020    0.0004
     in Y         0.0016    0.0010    0.0031    0.0074    0.0166    0.0004
     in Z         0.0017    0.0000    0.0001    0.0031    0.0009    0.0002
  Raman Intsty    0.0072    0.0002    0.0141    0.0004    0.0380    0.0026

     1 x       0.042252 -0.053285 -0.025443  0.005557 -0.054626 -0.119833
     1 y       0.082781  0.076922  0.040076 -0.075466  0.067432 -0.019971
     1 z      -0.058264 -0.176850 -0.076302  0.139403 -0.051790 -0.078109
     2 x       0.019463  0.097872  0.050190 -0.063828  0.057094  0.038535
     2 y       0.040895 -0.024878 -0.093160 -0.023065 -0.097563 -0.284807
     2 z       0.073853  0.099303  0.033185 -0.027432  0.014178  0.013833
     3 x      -0.053089  0.025967  0.019612 -0.052381  0.100667  0.043076
     3 y      -0.165891 -0.000386 -0.040833 -0.054269 -0.239681  0.330267
     3 z       0.038517  0.116875  0.019742 -0.020878 -0.037432  0.096827
     4 x       0.176956 -0.016798 -0.042940  0.004644  0.074740  0.050598
     4 y      -0.205449 -0.021017  0.019650  0.018450 -0.168106 -0.295428
     4 z       0.365949 -0.049860 -0.096825  0.041446  0.089851  0.058065
     5 x       0.257103  0.004831  0.021498  0.067551 -0.069012 -0.100965
     5 y       0.376350  0.197297  0.053516  0.022591  0.043380 -0.018084
     5 z      -0.094789  0.204182 -0.442795  0.135162  0.096660 -0.186894
     6 x      -0.142146 -0.153734 -0.098261 -0.176472  0.150762 -0.123361
     6 y       0.088513 -0.218674  0.193025 -0.149129  0.088522  0.126186
     6 z      -0.103575 -0.714508  0.172941 -0.101697  0.088034  0.170214
     7 x      -0.072878  0.170447  0.123216 -0.041925 -0.045185  0.026587
     7 y       0.048502 -0.027642 -0.081957 -0.038001 -0.039464 -0.243881
     7 z      -0.274894  0.166587  0.262385  0.231301 -0.318967 -0.012312
     8 x       0.122818  0.008867  0.010436 -0.163944  0.046866  0.005539
     8 y       0.212844 -0.049380 -0.086044 -0.239341 -0.294541  0.127768
     8 z      -0.000554  0.014470 -0.031090  0.081176 -0.111800 -0.007470
     9 x       0.070877 -0.323372 -0.386597  0.493471 -0.088528 -0.011317
     9 y      -0.056755 -0.109424  0.426452  0.357383  0.205962 -0.356854
     9 z       0.037164  0.119661  0.188578  0.009619  0.095742 -0.069610
    10 x      -0.412371  0.126676  0.035977 -0.061996  0.224109  0.083894
    10 y      -0.175542  0.005551 -0.085205 -0.051533 -0.191531  0.083600
    10 z       0.171396  0.052035  0.038357 -0.027635 -0.073185  0.260526
    11 x       0.059113  0.058995  0.041263  0.045600 -0.249119  0.005934
    11 y       0.033290  0.154287  0.054760  0.328264  0.522000  0.343892
    11 z      -0.030489  0.017125 -0.059553 -0.482332  0.255616 -0.330163
    12 x      -0.069751  0.040014  0.242548 -0.035072 -0.167533  0.108638
    12 y      -0.271447  0.007443 -0.382280 -0.066601  0.155295  0.202427
    12 z      -0.134684  0.143442 -0.004145  0.004410 -0.032525  0.078854


  Frequency     154.8344  183.1301  207.3446  222.4846  238.5534  251.4054
  IR Intensity    0.0109    0.0132    0.0086    0.0069    0.0138    0.0335
     in X         0.0001    0.0081    0.0006    0.0006    0.0059    0.0180
     in Y         0.0005    0.0004    0.0045    0.0062    0.0001    0.0094
     in Z         0.0102    0.0047    0.0034    0.0002    0.0078    0.0061
  Raman Intsty    0.0202    0.0209    0.0078    0.0690    0.0077    0.0012

     1 x      -0.133179 -0.156698  0.135696 -0.018172 -0.099751 -0.147727
     1 y       0.105168  0.261051  0.003422  0.234319 -0.005354  0.141208
     1 z      -0.145734 -0.141185 -0.094417  0.243060 -0.161339  0.105457
     2 x      -0.017787  0.188152  0.109210 -0.022094 -0.233703 -0.101315
     2 y       0.154013 -0.218284  0.061076  0.006837 -0.065656  0.032077
     2 z       0.237629 -0.088315  0.059308 -0.112973  0.102094  0.008065
     3 x       0.186319 -0.181221 -0.268060  0.011082  0.193559 -0.118088
     3 y      -0.225800 -0.009241  0.105436 -0.081491  0.104701  0.125628
     3 z       0.100207  0.121907  0.158009 -0.218031 -0.183202  0.065927
     4 x      -0.167410  0.000365  0.071658  0.196126 -0.192898  0.004737
     4 y       0.022627  0.035968  0.014455 -0.107747 -0.064884 -0.067833
     4 z       0.134366 -0.327982  0.062582  0.408849  0.086509  0.278278
     5 x      -0.327513 -0.328578  0.157644 -0.233451  0.137759 -0.184173
     5 y      -0.202719  0.029614  0.001425 -0.153640  0.362404  0.068371
     5 z      -0.081597  0.187961 -0.483224 -0.248372  0.139429 -0.002955
     6 x       0.200658  0.295857  0.291440  0.029776  0.549041  0.231458
     6 y       0.064377  0.190884 -0.042351 -0.015158 -0.044254 -0.062235
     6 z      -0.041029 -0.049081 -0.105237 -0.188718  0.045426 -0.104251
     7 x      -0.064350  0.169367  0.083457  0.111483 -0.019870 -0.203708
     7 y       0.182772 -0.119865  0.066938  0.033093 -0.116032  0.115260
     7 z      -0.140926  0.050453  0.055848  0.309458  0.230904 -0.231322
     8 x       0.169828 -0.013509 -0.425092  0.039493 -0.053877 -0.168068
     8 y      -0.052733  0.126147 -0.288223  0.001779 -0.155761 -0.043311
     8 z       0.101241 -0.163782  0.087467 -0.283930  0.112246 -0.077826
     9 x      -0.079404  0.326866  0.080519  0.021293 -0.095989  0.104003
     9 y       0.027722  0.046084 -0.118806  0.056703  0.017252 -0.064435
     9 z       0.182493  0.060320  0.050295 -0.182661 -0.168707 -0.010572
    10 x       0.013693 -0.226730  0.025651 -0.147233 -0.190581  0.380363
    10 y      -0.107492 -0.120503  0.065724 -0.160370 -0.064062  0.210891
    10 z       0.067964  0.184801  0.115722 -0.031175  0.067018 -0.101674
    11 x       0.357512  0.033210  0.091784 -0.081699 -0.145457 -0.054412
    11 y      -0.120350 -0.021149  0.018123 -0.088370 -0.085239 -0.034015
    11 z      -0.429945  0.105194  0.115231  0.082310 -0.088325 -0.060591
    12 x      -0.145141 -0.078380 -0.349471  0.098990  0.178578  0.327286
    12 y       0.146017 -0.207130  0.080213  0.243446  0.110428 -0.478889
    12 z      -0.021482  0.080328 -0.045137  0.239037 -0.135592  0.097074


  Frequency     265.9680  269.4430  296.9252  298.9929  364.8270  380.2100
  IR Intensity    0.0486    0.0411    0.0132    0.0194    0.0226    0.0187
     in X         0.0095    0.0391    0.0000    0.0004    0.0012    0.0033
     in Y         0.0163    0.0005    0.0000    0.0049    0.0029    0.0006
     in Z         0.0229    0.0016    0.0132    0.0140    0.0185    0.0147
  Raman Intsty    0.0726    0.0382    0.6283    0.0787    1.2703    0.6304

     1 x       0.097011 -0.147904  0.024061  0.025244 -0.318278  0.039314
     1 y       0.017345 -0.166067  0.034158 -0.086663 -0.005079 -0.114396
     1 z      -0.314609 -0.180710 -0.059291  0.082096  0.375646 -0.284173
     2 x       0.065479 -0.116492 -0.045320 -0.035399  0.181648 -0.026488
     2 y       0.170703  0.201162  0.043057  0.108369  0.105384  0.082674
     2 z       0.086266  0.054942 -0.137088  0.162173 -0.176362 -0.209289
     3 x       0.040436 -0.133761  0.055755  0.036954  0.132736  0.082778
     3 y       0.157777 -0.156419 -0.052105  0.074149  0.069073 -0.005405
     3 z      -0.124749  0.042830  0.046047 -0.015227  0.008585  0.210254
     4 x       0.058325 -0.260409  0.077671 -0.317713  0.051273  0.131463
     4 y      -0.180748 -0.362721 -0.066051  0.246036 -0.281989 -0.151877
     4 z       0.216618  0.065847 -0.112955 -0.092777 -0.192040 -0.031740
     5 x      -0.145378  0.083062 -0.020174  0.128820 -0.206093  0.093907
     5 y      -0.242295  0.233886 -0.000906  0.042711  0.232060 -0.060144
     5 z       0.336041 -0.006894 -0.071032 -0.024148 -0.056674  0.039223
     6 x      -0.239853 -0.047427 -0.029724 -0.119834 -0.044983  0.037249
     6 y       0.317140  0.023863  0.081587 -0.080313 -0.315364  0.060150
     6 z       0.057280  0.170889 -0.038279  0.055934  0.123327  0.018280
     7 x       0.226052  0.452125  0.160224  0.077909  0.180202 -0.380349
     7 y       0.110349  0.006076 -0.077491  0.138428  0.256859  0.212836
     7 z       0.063930  0.072796 -0.376989 -0.258989 -0.013753  0.266154
     8 x      -0.261595  0.004374 -0.091034 -0.091085  0.067239  0.215503
     8 y      -0.273302  0.162469 -0.256089 -0.240294 -0.217507 -0.225788
     8 z       0.021931 -0.210712  0.370133 -0.499578  0.030987 -0.367644
     9 x      -0.026131  0.172200  0.014489  0.058490 -0.056751  0.055074
     9 y      -0.020342  0.036913  0.058546 -0.072460 -0.030837 -0.078318
     9 z      -0.172817  0.055333  0.092781 -0.059612  0.011450  0.314310
    10 x      -0.075874  0.203919 -0.365983 -0.063256 -0.140337 -0.163707
    10 y       0.030603  0.096469  0.180847 -0.227429  0.153022  0.292421
    10 z       0.036647 -0.255232 -0.144104  0.386760  0.071171  0.042221
    11 x       0.123273  0.010096 -0.074646  0.061711  0.156398 -0.135550
    11 y      -0.022301 -0.110720 -0.078844  0.025222  0.011895 -0.027353
    11 z       0.116046 -0.020773 -0.020473  0.024571  0.077790 -0.015245
    12 x       0.099368 -0.143482  0.288072  0.233023 -0.002308  0.032485
    12 y      -0.131202  0.058339  0.128480  0.053876 -0.009977  0.022315
    12 z      -0.254919  0.227581  0.480058  0.194905 -0.299963  0.071920


  Frequency     389.1442  450.5237  486.5558  519.0204  540.0464  574.5336
  IR Intensity    0.0120    0.0439    0.0286    0.0178    0.0427    0.0849
     in X         0.0009    0.0006    0.0258    0.0014    0.0009    0.0052
     in Y         0.0046    0.0015    0.0024    0.0009    0.0024    0.0197
     in Z         0.0065    0.0418    0.0004    0.0155    0.0394    0.0600
  Raman Intsty    0.0133    2.7564    0.0033    2.3937    0.0632    0.1113

     1 x       0.097353  0.060253 -0.211334 -0.055704  0.055740  0.002355
     1 y       0.139573  0.014219 -0.200229 -0.089011  0.115570  0.056125
     1 z       0.170767 -0.031991 -0.281299 -0.156399  0.217219  0.149065
     2 x      -0.239505 -0.073216 -0.166449 -0.000351 -0.235735 -0.154558
     2 y      -0.003397  0.122234  0.099642  0.027113  0.285397 -0.059317
     2 z      -0.137222 -0.324226  0.172570  0.028056  0.324750  0.411290
     3 x       0.120396 -0.067094  0.038873 -0.040381  0.150443 -0.043980
     3 y       0.014152 -0.062852 -0.007103 -0.045075 -0.283197  0.444186
     3 z       0.128913 -0.048982  0.023349 -0.108228 -0.097429  0.122592
     4 x      -0.031708  0.025045  0.634098  0.086935  0.228579  0.150169
     4 y       0.239943 -0.203053  0.302667  0.140362 -0.285781 -0.166303
     4 z       0.168464 -0.155224 -0.027597  0.071248 -0.381889 -0.217051
     5 x      -0.009378  0.065268 -0.196062 -0.072956  0.052710  0.097697
     5 y      -0.047510 -0.035911  0.123051  0.062308 -0.071454 -0.087743
     5 z       0.008495  0.024021 -0.021067 -0.016945 -0.014115 -0.018941
     6 x      -0.030987  0.009991 -0.042366 -0.012347  0.042377  0.026154
     6 y       0.091341  0.098888 -0.251249 -0.096824  0.144251  0.116079
     6 z      -0.080687 -0.039859  0.170231  0.071686 -0.116677 -0.087322
     7 x       0.429600  0.050825  0.144166 -0.020001 -0.113685  0.060108
     7 y      -0.235697  0.403877  0.052910 -0.099137 -0.249712  0.197489
     7 z      -0.102175  0.039753 -0.008387 -0.004154  0.012685 -0.028807
     8 x       0.166475  0.020537 -0.137529  0.360143 -0.222527  0.305176
     8 y      -0.161001  0.061944  0.084884 -0.183467  0.094150 -0.179000
     8 z      -0.089209  0.296628 -0.040868  0.054589 -0.132404 -0.037038
     9 x       0.008655 -0.014511  0.028987 -0.057102 -0.011295 -0.006644
     9 y      -0.076192  0.017382 -0.021164  0.138112  0.018347  0.006971
     9 z       0.204664 -0.087612  0.091070 -0.510273 -0.065075 -0.119589
    10 x       0.034227  0.283206  0.045101  0.040175  0.044119 -0.076883
    10 y       0.223346 -0.291194 -0.160741  0.339797  0.229850 -0.232091
    10 z       0.147991  0.436533  0.014868  0.274272  0.212174 -0.308426
    11 x      -0.367082 -0.327472 -0.147973  0.100503  0.015925 -0.139432
    11 y      -0.133446 -0.107612 -0.044983  0.034927 -0.006199 -0.052599
    11 z      -0.173765 -0.141002 -0.057246  0.048254 -0.013202 -0.087194
    12 x      -0.173877 -0.017490  0.075435 -0.310434 -0.000988 -0.182565
    12 y      -0.079919 -0.032027  0.042953 -0.208605 -0.013792 -0.128308
    12 z      -0.277371  0.109612 -0.019262  0.293231 -0.031227  0.090544


  Frequency     608.0186  678.9370  712.2619  768.9147  814.7571  882.2989
  IR Intensity    0.0596    0.0814    0.0259    0.0128    0.0076    0.0001
     in X         0.0053    0.0601    0.0242    0.0003    0.0013    0.0001
     in Y         0.0508    0.0116    0.0001    0.0116    0.0001    0.0000
     in Z         0.0035    0.0097    0.0017    0.0009    0.0062    0.0000
  Raman Intsty    0.0065    0.2012    0.0021    0.0020    0.1157    1.1909

     1 x       0.066163  0.216659  0.646778  0.142795  0.169636 -0.146746
     1 y      -0.009135  0.070803  0.093614 -0.665937  0.150646 -0.099263
     1 z      -0.004575 -0.039255 -0.068792  0.236392 -0.057845  0.040239
     2 x      -0.116267  0.068323  0.116734 -0.082323 -0.506374  0.473990
     2 y       0.554615  0.089283 -0.048062 -0.089014 -0.254820  0.159088
     2 z      -0.233764 -0.134475  0.230076 -0.049490 -0.042791  0.233270
     3 x      -0.210733  0.616874 -0.207813  0.059698 -0.117975 -0.147766
     3 y       0.232461  0.235016 -0.095634  0.011196  0.085160  0.105130
     3 z       0.066866 -0.078053  0.049789 -0.036402 -0.479477 -0.603388
     4 x       0.012676 -0.079528 -0.087049  0.032326  0.038571 -0.021028
     4 y      -0.051744 -0.045400 -0.113436  0.066864 -0.041891  0.021374
     4 z      -0.013196  0.011256 -0.073753  0.019767 -0.054231  0.023146
     5 x      -0.139127 -0.142137 -0.417941 -0.316855 -0.026420  0.021742
     5 y       0.087944  0.095654  0.261816  0.243882  0.010458 -0.008801
     5 z      -0.010001 -0.020047 -0.032381 -0.034578  0.003905  0.001061
     6 x       0.011805 -0.045154 -0.075111  0.100231 -0.023994  0.015136
     6 y      -0.015903 -0.146284 -0.223428  0.446062 -0.103346  0.055203
     6 z       0.004201  0.081275  0.121088 -0.245930  0.053713 -0.027618
     7 x      -0.134217 -0.074745 -0.042218  0.006437  0.071907 -0.047150
     7 y      -0.475107 -0.058288  0.047984  0.083940  0.147431 -0.089623
     7 z       0.022307  0.006198  0.007585  0.000058 -0.005403 -0.004736
     8 x       0.226551 -0.271686  0.070969 -0.018290  0.102514  0.088047
     8 y      -0.139671  0.114592 -0.031865  0.017259 -0.028933 -0.046403
     8 z       0.060112 -0.050074 -0.012967 -0.010880  0.049226  0.047134
     9 x       0.019653 -0.009213 -0.002680 -0.001761  0.052488  0.047767
     9 y      -0.041531 -0.028506  0.016411 -0.007059 -0.088942 -0.084923
     9 z       0.087283  0.084866 -0.056330  0.028021  0.359686  0.339999
    10 x       0.077848 -0.033061 -0.012077 -0.003365  0.038938  0.000455
    10 y      -0.330049 -0.127559  0.072176  0.005720  0.057986  0.079392
    10 z      -0.000446 -0.068708 -0.014096  0.004872  0.080137  0.061988
    11 x       0.174919 -0.049326 -0.207720  0.091189  0.340447 -0.266680
    11 y       0.027163 -0.018474 -0.057234  0.035867  0.108936 -0.082912
    11 z       0.082697 -0.012011 -0.101560  0.043342  0.151226 -0.120168
    12 x       0.060715 -0.369835  0.111635 -0.033112 -0.052597 -0.052161
    12 y       0.011874 -0.256553  0.087255 -0.006249 -0.039042 -0.039874
    12 z      -0.028625  0.267278 -0.089108  0.015987  0.053025  0.072291




--------------------------------------------------------------------------------
  Vibrational properties (for cluster):  Temperature  =       0.000 K
--------------------------------------------------------------------------------
  Zero point energy            =        0.691964 eV
--------------------------------------------------------------------------------

  Phonon density of states : 

--------------------------------------------------------------------------------
 Frequency (cm-1) Density of States                                             
--------------------------------------------------------------------------------
    0.00000 |************************************************************  0.086
   13.78592 |****************************************                      0.057
   27.57184 |                                                              0.000
   41.35776 |                                                              0.000
   55.14368 |****************************************                      0.057
   68.92961 |                                                              0.000
   82.71553 |********************                                          0.029
   96.50145 |                                                              0.000
  110.28737 |********************                                          0.029
  124.07329 |********************                                          0.029
  137.85921 |********************                                          0.029
  151.64513 |********************                                          0.029
  165.43105 |                                                              0.000
  179.21697 |********************                                          0.029
  193.00290 |                                                              0.000
  206.78882 |********************                                          0.029
  220.57474 |********************                                          0.029
  234.36066 |********************                                          0.029
  248.14658 |********************                                          0.029
  261.93250 |****************************************                      0.057
  275.71842 |                                                              0.000
  289.50434 |****************************************                      0.057
  303.29026 |                                                              0.000
  317.07619 |                                                              0.000
  330.86211 |                                                              0.000
  344.64803 |                                                              0.000
  358.43395 |********************                                          0.029
  372.21987 |********************                                          0.029
  386.00579 |********************                                          0.029
  399.79171 |                                                              0.000
  413.57763 |                                                              0.000
  427.36355 |                                                              0.000
  441.14948 |********************                                          0.029
  454.93540 |                                                              0.000
  468.72132 |                                                              0.000
  482.50724 |********************                                          0.029
  496.29316 |                                                              0.000
  510.07908 |********************                                          0.029
  523.86500 |                                                              0.000
  537.65092 |********************                                          0.029
  551.43684 |                                                              0.000
  565.22277 |********************                                          0.029
  579.00869 |                                                              0.000
  592.79461 |                                                              0.000
  606.58053 |********************                                          0.029
  620.36645 |                                                              0.000
  634.15237 |                                                              0.000
  647.93829 |                                                              0.000
  661.72421 |                                                              0.000
  675.51013 |********************                                          0.029
  689.29606 |                                                              0.000
  703.08198 |********************                                          0.029
  716.86790 |                                                              0.000
  730.65382 |                                                              0.000
  744.43974 |                                                              0.000
  758.22566 |********************                                          0.029
  772.01158 |                                                              0.000
  785.79750 |                                                              0.000
  799.58343 |                                                              0.000
  813.36935 |********************                                          0.029
  827.15527 |                                                              0.000
  840.94119 |                                                              0.000
  854.72711 |                                                              0.000
  868.51303 |********************                                          0.029
--------------------------------------------------------------------------------



  Time to end of optimisation =       0.0466 seconds


  Peak dynamic memory used =       0.65 MB 


  Timing analysis for GULP :

--------------------------------------------------------------------------------
  Task / Subroutine                                          Time (Seconds)
--------------------------------------------------------------------------------
  Calculation of real space energy and derivatives                0.0030
  Calculation of phonons                                          0.0015
  Calculation and manipulation of Hessian matrix                  0.0019
--------------------------------------------------------------------------------
  Total CPU time                                                  0.0466
--------------------------------------------------------------------------------


  Job Finished at 14:39.17 25th May        2022                               

