------------------------------------------------------------
          Invoking FHI-aims ...

          When using FHI-aims, please cite the following reference:

            Volker Blum, Ralf Gehrke, Felix Hanke, Paula Havu,
            Ville Havu, Xinguo Ren, Karsten Reuter, and Matthias Scheffler,
            'Ab Initio Molecular Simulations with Numeric Atom-Centered Orbitals',
            Computer Physics Communications 180, 2175-2196 (2009)

          In addition, many other developments in FHI-aims are likely important for
          your particular application. A partial list of references is given at the end of
          this file. Thank you for giving credit to the authors of these developments.

          For any questions about FHI-aims, please visit our slack channel at

            https://fhi-aims.slack.com

          and our main development and support site at

            https://aims-git.rz-berlin.mpg.de .

          The latter site, in particular, has a wiki to collect information, as well
          as an issue tracker to log discussions, suggest improvements, and report issues
          or bugs. https://aims-git.rz-berlin.mpg.de is also the main development site
          of the project and all new and updated code versions can be obtained there.
          Please send an email to aims-coordinators@fhi-berlin.mpg.de and we will add
          you to these sites. They are for you and everyone is welcome there.

------------------------------------------------------------



  Date     :  20220517, Time     :  110121.871
  Time zero on CPU 1             :   0.449480000000000E-01  s.
  Internal wall clock time zero  :           422017281.871  s.

  FHI-aims created a unique identifier for this run for later identification
  aims_uuid : 60BA9B37-891D-46B1-A5DA-28CF3AD3B9DB

  Build configuration of the current instance of FHI-aims
  -------------------------------------------------------
  FHI-aims version      : 210914
  Commit number         : GITDIR-NOTFOUND
  CMake host system     : Linux-3.10.0-693.17.1.el7.x86_64
  CMake version         : 3.21.1
  Fortran compiler      : /shared/ucl/apps/intel/2018.Update3/impi/2018.3.222/intel64/bin/mpiifort (Intel) version 18.0.3.20180410
  Fortran compiler flags: -O3 -ip -fp-model precise
  C compiler            : /shared/ucl/apps/intel/2018.Update3/compilers_and_libraries_2018.3.222/linux/bin/intel64/icc (Intel) version 18.0.3.20180410
  C compiler flags      : -O3 -ip -fp-model precise -std=gnu99
  ELPA2 kernel          : AVX2
  Using MPI
  Using ScaLAPACK
  Using LibXC
  Using i-PI
  Using RLSY
  Linking against: /shared/ucl/apps/intel/2019.Update5/compilers_and_libraries_2019.5.281/linux/mkl/lib/intel64/libmkl_intel_lp64.so
                   /shared/ucl/apps/intel/2019.Update5/compilers_and_libraries_2019.5.281/linux/mkl/lib/intel64/libmkl_sequential.so
                   /shared/ucl/apps/intel/2019.Update5/compilers_and_libraries_2019.5.281/linux/mkl/lib/intel64/libmkl_core.so
                   /shared/ucl/apps/intel/2019.Update5/compilers_and_libraries_2019.5.281/linux/mkl/lib/intel64/libmkl_blacs_intelmpi_lp64.so
                   /shared/ucl/apps/intel/2019.Update5/compilers_and_libraries_2019.5.281/linux/mkl/lib/intel64/libmkl_scalapack_lp64.so

  Using       24 parallel tasks.
  Task        0 on host node-k98a-011 reporting.
  Task        1 on host node-k98a-011 reporting.
  Task        2 on host node-k98a-011 reporting.
  Task        3 on host node-k98a-011 reporting.
  Task        4 on host node-k98a-011 reporting.
  Task        5 on host node-k98a-011 reporting.
  Task        6 on host node-k98a-011 reporting.
  Task        7 on host node-k98a-011 reporting.
  Task        8 on host node-k98a-011 reporting.
  Task        9 on host node-k98a-011 reporting.
  Task       10 on host node-k98a-011 reporting.
  Task       11 on host node-k98a-011 reporting.
  Task       12 on host node-k98a-011 reporting.
  Task       13 on host node-k98a-011 reporting.
  Task       14 on host node-k98a-011 reporting.
  Task       15 on host node-k98a-011 reporting.
  Task       16 on host node-k98a-011 reporting.
  Task       17 on host node-k98a-011 reporting.
  Task       18 on host node-k98a-011 reporting.
  Task       19 on host node-k98a-011 reporting.
  Task       20 on host node-k98a-011 reporting.
  Task       21 on host node-k98a-011 reporting.
  Task       22 on host node-k98a-011 reporting.
  Task       23 on host node-k98a-011 reporting.

  Performing system and environment tests:
  | Environment variable OMP_NUM_THREADS correctly set to 1.
  | Checking for ScaLAPACK...
  | Testing pdtran()...
  | All pdtran() tests passed.

  Obtaining array dimensions for all initial allocations:
  
  -----------------------------------------------------------------------
  Parsing control.in (first pass over file, find array dimensions only).
  The contents of control.in will be repeated verbatim below
  unless switched off by setting 'verbatim_writeout .false.' .
  in the first line of control.in .
  -----------------------------------------------------------------------
  
  #########################################################################################  Physical model
  #########################################################################################
  xc                 pbesol
  spin               none
  relativistic       atomic_zora scalar
  charge             0.0
  #  SCF convergence
  occupation_type    gaussian 0.01
  mixer              pulay
  n_max_pulay        10
  charge_mix_param   0.5
  sc_accuracy_rho    1E-5
  sc_accuracy_eev    1E-3
  sc_accuracy_etot   1E-6
  sc_accuracy_forces 1E-4
  sc_iter_limit      1500
  #  Relaxation
  #relax_geometry   bfgs 1.e-3
  
  ################################################################################
  #
  #  FHI-aims code project
  #  VB, Fritz-Haber Institut, 2009
  #
  #  Suggested "light" defaults for Al atom (to be pasted into control.in file)
  #  Be sure to double-check any results obtained with these settings for post-processing,
  #  e.g., with the "tight" defaults and larger basis sets.
  #
  ################################################################################
    species        Al
  #     global species definitions
      nucleus             13
      mass                26.9815386
  #
      l_hartree           4
  #
      cut_pot             3.5          1.5  1.0
      basis_dep_cutoff    1e-4
  #
      radial_base         41 5.0
      radial_multiplier   1
      angular_grids       specified
        division   0.6594  110
        division   0.8170  194
        division   0.9059  302
  #      division   1.0363  434
  #      division   1.1443  590
  #      division   1.2621  770
  #      division   2.8177  974
  #      outer_grid   974
        outer_grid   302
  ################################################################################
  #
  #  Definition of "minimal" basis
  #
  ################################################################################
  #     valence basis states
      valence      3  s   2.
      valence      3  p   1.
  #     ion occupancy
      ion_occ      3  s   1.
      ion_occ      2  p   6.
  ################################################################################
  #
  #  Suggested additional basis functions. For production calculations,
  #  uncomment them one after another (the most important basis functions are
  #  listed first).
  #
  #  Constructed for dimers: 2.0 A, 2.5 A, 3.0 A, 3.75 A, 4.5 A
  #
  ################################################################################
  #  "First tier" - improvements: -199.47 meV to -10.63 meV
       ionic 3 d auto
       ionic 3 p auto
  #     hydro 4 f 4.7
       ionic 3 s auto
  #  "Second tier" - improvements: -5.35 meV to -1.57 meV
  #     hydro 5 g 7
  #     hydro 3 d 6
  #     hydro 2 s 11.6
  #     hydro 2 p 0.9
  #  "Third tier" - improvements: -0.63 meV to -0.20 meV
  #     hydro 5 f 7.6
  #     hydro 4 p 7.2
  #     hydro 4 s 3.7
  #     hydro 4 d 7.6
  #  "Fourth tier" - improvements: -0.17 meV to -0.08 meV
  #     hydro 4 d 13.6
  #     hydro 5 g 11.2
  #     hydro 4 d 0.9
  #     hydro 1 s 0.4
  #     hydro 4 p 0.1
  #     hydro 5 f 9.8
  #  Further basis functions that fell out of the optimization - noise level...
  #     hydro 4 p 5
  
  ################################################################################
  #
  #  FHI-aims code project
  #  VB, Fritz-Haber Institut, 2009
  #
  #  Suggested "light" defaults for F atom (to be pasted into control.in file)
  #  Be sure to double-check any results obtained with these settings for post-processing,
  #  e.g., with the "tight" defaults and larger basis sets.
  #
  ################################################################################
    species        F
  #     global species definitions
      nucleus             9
      mass                18.9984032
  #
      l_hartree           4
  #
      cut_pot             3.5  1.5  1.0
      basis_dep_cutoff    1e-4
  #
      radial_base         37 5.0
      radial_multiplier   1
      angular_grids specified
        division   0.4014  110
        division   0.5291  194
        division   0.6019  302
  #      division   0.6814  434
  #      division   0.7989  590
  #      division   0.8965  770
  #      division   1.3427  974
  #      outer_grid   974
        outer_grid   302
  ################################################################################
  #
  #  Definition of "minimal" basis
  #
  ################################################################################
  #     valence basis states
      valence      2  s   2.
      valence      2  p   5.
  #     ion occupancy
      ion_occ      2  s   1.
      ion_occ      2  p   4.
  ################################################################################
  #
  #  Suggested additional basis functions. For production calculations,
  #  uncomment them one after another (the most important basis functions are
  #  listed first).
  #
  #  Constructed for dimers: 1.2 A, 1.418 A, 1.75 A, 2.25 A, 3.25 A
  #
  ################################################################################
  #  "First tier" - improvements: -149.44 meV to -45.88 meV
       hydro 2 p 1.7
       hydro 3 d 7.4
       hydro 3 s 6.8
  #  "Second tier" - improvements: -12.96 meV to -1.56 meV
  #     hydro 4 f 11.2
  #     ionic 2 p auto
  #     hydro 1 s 0.75
  #     hydro 4 d 8.8
  #     hydro 5 g 16.8
  #  "Third tier" - improvements: -0.58 meV to -0.05 meV
  #     hydro 3 p 6.2
  #     hydro 3 s 3.2
  #     hydro 4 f 9.6
  #     hydro 3 s 19.6
  #     hydro 4 d 8.6
  #     hydro 5 g 14.4
  # Further basis functions: -0.05 meV and below
  #     hydro 3 p 4.2
  
  -----------------------------------------------------------------------
  Completed first pass over input file control.in .
  -----------------------------------------------------------------------
  
  
  -----------------------------------------------------------------------
  Parsing geometry.in (first pass over file, find array dimensions only).
  The contents of geometry.in will be repeated verbatim below
  unless switched off by setting 'verbatim_writeout .false.' .
  in the first line of geometry.in .
  -----------------------------------------------------------------------
  
  atom 1.282913262 0.050324516 2.441326237 Al
  atom 1.321521600 1.231271800 -0.091179400 Al
  atom -0.317257985 0.836399764 -2.320123073 Al
  atom -1.668843804 -0.369930944 -2.215432077 F
  atom 2.139330192 -0.504430354 0.824939513 F
  atom 0.051725384 1.822502854 -3.797757994 F
  atom -0.518141826 2.006994481 -0.822369895 F
  atom 2.692735753 2.519456509 -0.339332244 F
  atom 1.268351423 -0.076568072 -1.766731577 F
  atom 0.352835271 1.579130223 1.769301502 F
  atom 2.545817130 0.597294619 3.623633809 F
  atom 0.019975159 -1.199554859 2.809793986 F
  
  -----------------------------------------------------------------------
  Completed first pass over input file geometry.in .
  -----------------------------------------------------------------------
  

  Basic array size parameters:
  | Number of species                 :        2
  | Number of atoms                   :       12
  | Max. basis fn. angular momentum   :        2
  | Max. atomic/ionic basis occupied n:        3
  | Max. number of basis fn. types    :        3
  | Max. radial fns per species/type  :        5
  | Max. logarithmic grid size        :     1340
  | Max. radial integration grid size :       41
  | Max. angular integration grid size:      302
  | Max. angular grid division number :        8
  | Radial grid for Hartree potential :     1340
  | Number of spin channels           :        1

------------------------------------------------------------
          Reading file control.in.
------------------------------------------------------------
  XC: Using PBEsol gradient-corrected functionals.
  Spin treatment: No spin polarisation.
  Scalar relativistic treatment of kinetic energy: on-site free-atom approximation to ZORA.
  Charge =   0.000000E+00: Neutral system requested explicitly.
  Occupation type: Gaussian broadening, width =   0.100000E-01 eV.
  Using pulay charge density mixing.
  Pulay mixing - number of memorized iterations:   10
  Charge density mixing - mixing parameter:     0.5000
  Convergence accuracy of self-consistent charge density:  0.1000E-04
  Convergence accuracy of sum of eigenvalues:  0.1000E-02
  Convergence accuracy of total energy:  0.1000E-05
  Convergence accuracy of forces:  0.1000E-03
  Maximum number of s.-c. iterations  :  1500
 
  Reading configuration options for species Al                  .
  | Found nuclear charge :  13.0000
  | Found atomic mass :    26.9815386000000      amu
  | Found l_max for Hartree potential  :   4
  | Found cutoff potl. onset [A], width [A], scale factor :    3.50000    1.50000    1.00000
  | Threshold for basis-dependent cutoff potential is   0.100000E-03
  | Found data for basic radial integration grid :    41 points, outermost radius =    5.000 A
  | Found multiplier for basic radial grid :   1
  | Found angular grid specification: user-specified.
  | Specified grid contains     4 separate shells.
  | Check grid settings after all constraints further below.
  | Found free-atom valence shell :  3 s   2.000
  | Found free-atom valence shell :  3 p   1.000
  | Found free-ion valence shell :  3 s   1.000
  | Found free-ion valence shell :  2 p   6.000
  | Found ionic basis function :  3 d , default cutoff radius.
  | Found ionic basis function :  3 p , default cutoff radius.
  | Found ionic basis function :  3 s , default cutoff radius.
  Species Al                  : Missing cutoff potential type.
  Defaulting to exp(1/x)/(1-x)^2 type cutoff potential.
  Species Al: No 'logarithmic' tag. Using default grid for free atom:
  | Default logarithmic grid data [bohr] : 0.1000E-03 0.1000E+03 0.1012E+01
  | Will include ionic basis functions of  2.0-fold positive Al                   ion.
  Species Al: On-site basis accuracy parameter (for Gram-Schmidt orthonormalisation) not specified.
  Using default value basis_acc =  0.1000000E-03.
  Species Al                  : Using default innermost maximum threshold i_radial=  2 for radial functions.
  Species Al                  : Default cutoff onset for free atom density etc. : 0.35000000E+01 AA.
  Species Al                  : Basic radial grid will be enhanced according to radial_multiplier =   1, to contain    41 grid points.
 
  Reading configuration options for species F                   .
  | Found nuclear charge :   9.0000
  | Found atomic mass :    18.9984032000000      amu
  | Found l_max for Hartree potential  :   4
  | Found cutoff potl. onset [A], width [A], scale factor :    3.50000    1.50000    1.00000
  | Threshold for basis-dependent cutoff potential is   0.100000E-03
  | Found data for basic radial integration grid :    37 points, outermost radius =    5.000 A
  | Found multiplier for basic radial grid :   1
  | Found angular grid specification: user-specified.
  | Specified grid contains     4 separate shells.
  | Check grid settings after all constraints further below.
  | Found free-atom valence shell :  2 s   2.000
  | Found free-atom valence shell :  2 p   5.000
  | Found free-ion valence shell :  2 s   1.000
  | Found free-ion valence shell :  2 p   4.000
  | Found hydrogenic basis function :  2 p   1.700
  | Found hydrogenic basis function :  3 d   7.400
  | Found hydrogenic basis function :  3 s   6.800
  Species F                   : Missing cutoff potential type.
  Defaulting to exp(1/x)/(1-x)^2 type cutoff potential.
  Species F : No 'logarithmic' tag. Using default grid for free atom:
  | Default logarithmic grid data [bohr] : 0.1000E-03 0.1000E+03 0.1012E+01
  Species F : On-site basis accuracy parameter (for Gram-Schmidt orthonormalisation) not specified.
  Using default value basis_acc =  0.1000000E-03.
  Species F                   : Using default innermost maximum threshold i_radial=  2 for radial functions.
  Species F                   : Default cutoff onset for free atom density etc. : 0.35000000E+01 AA.
  Species F                   : Basic radial grid will be enhanced according to radial_multiplier =   1, to contain    37 grid points.
 
  Finished reading input file 'control.in'.
 
------------------------------------------------------------


------------------------------------------------------------
          Reading geometry description geometry.in.
------------------------------------------------------------
  | The smallest distance between any two atoms is         1.81437399 AA.
  | The first atom of this pair is atom number                      3 .
  | The second atom of this pair is atom number                     6 .
  Input structure read successfully.
  The structure contains       12 atoms,  and a total of        120.000 electrons.

  Input geometry:
  | No unit cell requested.
  | Atomic structure:
  |       Atom                x [A]            y [A]            z [A]
  |    1: Species Al            1.28291326        0.05032452        2.44132624
  |    2: Species Al            1.32152160        1.23127180       -0.09117940
  |    3: Species Al           -0.31725799        0.83639976       -2.32012307
  |    4: Species F            -1.66884380       -0.36993094       -2.21543208
  |    5: Species F             2.13933019       -0.50443035        0.82493951
  |    6: Species F             0.05172538        1.82250285       -3.79775799
  |    7: Species F            -0.51814183        2.00699448       -0.82236990
  |    8: Species F             2.69273575        2.51945651       -0.33933224
  |    9: Species F             1.26835142       -0.07656807       -1.76673158
  |   10: Species F             0.35283527        1.57913022        1.76930150
  |   11: Species F             2.54581713        0.59729462        3.62363381
  |   12: Species F             0.01997516       -1.19955486        2.80979399

 
  Finished reading input file 'control.in'.
 

------------------------------------------------------------
          Reading geometry description geometry.in.
------------------------------------------------------------
 
  Consistency checks for stacksize environment parameter are next.
 
  | Maximum stacksize for task 0: unlimited
  | Maximum stacksize for task 1: unlimited
  | Maximum stacksize for task 2: unlimited
  | Maximum stacksize for task 3: unlimited
  | Maximum stacksize for task 4: unlimited
  | Maximum stacksize for task 5: unlimited
  | Maximum stacksize for task 6: unlimited
  | Maximum stacksize for task 7: unlimited
  | Maximum stacksize for task 8: unlimited
  | Maximum stacksize for task 9: unlimited
  | Maximum stacksize for task 10: unlimited
  | Maximum stacksize for task 11: unlimited
  | Maximum stacksize for task 12: unlimited
  | Maximum stacksize for task 13: unlimited
  | Maximum stacksize for task 14: unlimited
  | Maximum stacksize for task 15: unlimited
  | Maximum stacksize for task 16: unlimited
  | Maximum stacksize for task 17: unlimited
  | Maximum stacksize for task 18: unlimited
  | Maximum stacksize for task 19: unlimited
  | Maximum stacksize for task 20: unlimited
  | Maximum stacksize for task 21: unlimited
  | Maximum stacksize for task 22: unlimited
  | Maximum stacksize for task 23: unlimited
  | Current stacksize for task 0: unlimited
  | Current stacksize for task 1: unlimited
  | Current stacksize for task 2: unlimited
  | Current stacksize for task 3: unlimited
  | Current stacksize for task 4: unlimited
  | Current stacksize for task 5: unlimited
  | Current stacksize for task 6: unlimited
  | Current stacksize for task 7: unlimited
  | Current stacksize for task 8: unlimited
  | Current stacksize for task 9: unlimited
  | Current stacksize for task 10: unlimited
  | Current stacksize for task 11: unlimited
  | Current stacksize for task 12: unlimited
  | Current stacksize for task 13: unlimited
  | Current stacksize for task 14: unlimited
  | Current stacksize for task 15: unlimited
  | Current stacksize for task 16: unlimited
  | Current stacksize for task 17: unlimited
  | Current stacksize for task 18: unlimited
  | Current stacksize for task 19: unlimited
  | Current stacksize for task 20: unlimited
  | Current stacksize for task 21: unlimited
  | Current stacksize for task 22: unlimited
  | Current stacksize for task 23: unlimited
 
  Consistency checks for the contents of control.in are next.
 
  MPI_IN_PLACE appears to work with this MPI implementation.
  | Keeping use_mpi_in_place .true. (see manual).
  Target number of points in a grid batch is not set. Defaulting to  100
  Method for grid partitioning is not set. Defaulting to parallel hash+maxmin partitioning.
  Batch size limit is not set. Defaulting to    200
  By default, will store active basis functions for each batch.
  If in need of memory, prune_basis_once .false. can be used to disable this option.
  communication_type for Hartree potential was not specified.
  Defaulting to calc_hartree .
  Pulay mixer: Number of initial linear mixing iterations not set.
  Defaulting to    0 iterations.
  Work space size for distributed Hartree potential not set.
  Defaulting to   0.200000E+03 MB.
  Algorithm-dependent basis array size parameters:
  | n_max_pulay                         :       10
  Presetting      1001 iterations before the initial mixing cycle
  is restarted anyway using the sc_init_iter criterion / keyword.
  Presetting a factor      1.000 between actual scf density residual
  and density convergence criterion sc_accuracy_rho below which sc_init_iter
  takes no effect.
  Geometry relaxation not requested: no relaxation will be performed.
  Forces evaluation will include force correction term due to incomplete self-consistency (default).
  Handling of forces: Unphysical translation and rotation will be removed from forces.
  No accuracy limit for integral partition fn. given. Defaulting to  0.1000E-14.
  No threshold value for u(r) in integrations given. Defaulting to  0.1000E-05.
  No accuracy for occupation numbers given. Defaulting to  0.1000E-12.
  No threshold value for occupation numbers given. Defaulting to  0.0000E+00.
  No accuracy for fermi level given. Defaulting to  0.1000E-19.
  Maximum # of iterations to find E_F not set. Defaulting to  200.
  Preferred method for the eigenvalue solver ('KS_method') not specified in 'control.in'.
  Calling BLACS routine to test compilation state
  Since ScaLAPACK support is enabled, defaulting to ELPA (via ELSI).
  Will not use alltoall communication since running on < 1024 CPUs.
  Threshold for basis singularities not set.
  Default threshold for basis singularities:  0.1000E-04
  partition_type (choice of integration weights) for integrals was not specified.
  | Using a version of the partition function of Stratmann and coworkers ('stratmann_sparse').
  | At each grid point, the set of atoms used to build the partition table is smoothly restricted to
  | only those atoms whose free-atom density would be non-zero at that grid point.
  Partitioning for Hartree potential was not defined. Using partition_type for integrals.
  | Adjusted default value of keyword multip_moments_threshold to:       0.10000000E-11
  | This value may affect high angular momentum components of the Hartree potential in periodic systems.
  No q(lm)/r^(l+1) cutoff set for long-range Hartree potential.
  | Using default value of  0.100000E-09 .
  | Verify using the multipole_threshold keyword.
  Defaulting to new monopole extrapolation.
  Density update method: automatic selection selected.
  Charge integration errors on the 3D integration grid will be compensated
  by explicit normalization and distribution of residual charges.
  Use the "compensate_multipole_errors" flag to change this behaviour.
  Set 'collect_eigenvectors' to be '.true.' for use_density_matrix .false.
 
  Consistency checks for the contents of geometry.in are next.
 
  Number of empty states per atom not set in control.in - providing a guess from actual geometry.
  | Total number of empty states used during s.c.f. cycle:       36
  If you use a very high smearing, use empty_states (per atom!) in control.in to increase this value.

  Structure-dependent array size parameters: 
  | Maximum number of distinct radial functions  :       14
  | Maximum number of basis functions            :      180
  | Number of Kohn-Sham states (occupied + empty):       96
------------------------------------------------------------

------------------------------------------------------------
          Preparing all fixed parts of the calculation.
------------------------------------------------------------
  Determining machine precision:
    2.225073858507201E-308
  Setting up grids for atomic and cluster calculations.

  Creating wave function, potential, and density for free atoms.

  Species: Al

  List of occupied orbitals and eigenvalues:
    n    l              occ      energy [Ha]    energy [eV]
    1    0           2.0000       -55.621123     -1513.5278
    2    0           2.0000        -3.957030      -107.6763
    3    0           2.0000        -0.272233        -7.4078
    2    1           6.0000        -2.540949       -69.1427
    3    1           1.0000        -0.083300        -2.2667


  Species: F

  List of occupied orbitals and eigenvalues:
    n    l              occ      energy [Ha]    energy [eV]
    1    0           2.0000       -24.399611      -663.9472
    2    0           2.0000        -1.098702       -29.8972
    2    1           5.0000        -0.408210       -11.1080


  Adding cutoff potential to free-atom effective potential.
  Creating fixed part of basis set: Ionic, confined, hydrogenic.
 
  Al                   ion:

  List of free ionic orbitals and eigenvalues:
    n    l      energy [Ha]    energy [eV]
    1    0       -56.418846     -1535.2349
    2    0        -4.732717      -128.7838
    3    0        -0.872690       -23.7471
    2    1        -3.317230       -90.2664


  List of ionic basis orbitals and eigenvalues:
    n    l      energy [Ha]    energy [eV]    outer radius [A]
    3    2        -0.346815        -9.4373       4.594041
    3    1        -0.631870       -17.1940       4.538221
    3    0        -0.872657       -23.7462       4.538221

 
  F                    hydrogenic:
 
  List of hydrogenic basis orbitals: 
    n    l      effective z      eigenvalue [eV]  inner max. [A]     outer max. [A]     outer radius [A]   
    2    1         1.700000        -9.7616           1.243167           1.243167           4.598524
    3    2         7.400000       -82.7828           0.642437           0.642437           3.305741
    3    0         6.800000       -69.9026           0.057798           1.022307           3.781556
 
  Creating atomic-like basis functions for current effective potential.

  Species Al                  :

  List of atomic basis orbitals and eigenvalues:
    n    l      energy [Ha]    energy [eV]    outer radius [A]
    1    0       -55.621123     -1513.5278       0.850197
    2    0        -3.957030      -107.6763       3.144911
    3    0        -0.272233        -7.4078       4.594041
    2    1        -2.540949       -69.1427       3.731966
    3    1        -0.083300        -2.2667       4.594041


  Species F                   :

  List of atomic basis orbitals and eigenvalues:
    n    l      energy [Ha]    energy [eV]    outer radius [A]
    1    0       -24.399611      -663.9472       1.258458
    2    0        -1.098702       -29.8972       4.325857
    2    1        -0.408210       -11.1080       4.487453

  Assembling full basis from fixed parts.
  | Species Al :   atomic orbital   1 s accepted.
  | Species Al :   atomic orbital   2 s accepted.
  | Species Al :    ionic orbital   3 s accepted.
  | Species Al :   atomic orbital   3 s accepted.
  | Species Al :   atomic orbital   2 p accepted.
  | Species Al :    ionic orbital   3 p accepted.
  | Species Al :   atomic orbital   3 p accepted.
  | Species Al :    ionic orbital   3 d accepted.
  | Species F :   atomic orbital   1 s accepted.
  | Species F :    hydro orbital   3 s accepted.
  | Species F :   atomic orbital   2 s accepted.
  | Species F :   atomic orbital   2 p accepted.
  | Species F :    hydro orbital   2 p accepted.
  | Species F :    hydro orbital   3 d accepted.
 
  Basis size parameters after reduction:
  | Total number of radial functions:       14
  | Total number of basis functions :      180
 
  Per-task memory consumption for arrays in subroutine allocate_ext:
  |           4.807768MB.
  Testing on-site integration grid accuracy.
  |  Species  Function  <phi|h_atom|phi> (log., in eV)  <phi|h_atom|phi> (rad., in eV)
           1        1              -1513.5277717935              -1513.5271881332
           1        2               -107.6762691836               -107.6762662489
           1        3                 -6.9467474784                 -6.9471269649
           1        4                  5.5771951849                  5.4862107220 ***
           1        5                -69.1427313144                -69.1427312731
           1        6                 -1.5197375330                 -1.5230432022
           1        7                  6.8210948310                  6.5529872240 ***
           1        8                  4.3216540965                  4.2851170187 ***
           2        9               -663.9471986398               -663.9470363334
           2       10                 16.8514011578                 16.8512525338
           2       11                -28.4490593856                -28.4490661472
           2       12                -11.1080115307                -11.1080620173
           2       13                  7.1940182175                  7.1685154137
           2       14                 44.8544281765                 44.8543763625
 * Note: Onsite integrals marked "***" above are less accurate than
 * onsite_accuracy_threshold =    0.03000 eV. Usually, this is harmless.
 * When in doubt, tighten the "radial" and/or "radial_multiplier" flags to check.

  Preparing densities etc. for the partition functions (integrals / Hartree potential).

  Preparations completed.
  max(cpu_time)          :      0.185 s.
  Wall clock time (cpu1) :      0.186 s.
------------------------------------------------------------

------------------------------------------------------------
          Begin self-consistency loop: Initialization.

          Date     :  20220517, Time     :  110130.066
------------------------------------------------------------

  Initializing index lists of integration centers etc. from given atomic structure:
  | Number of centers in hartree potential         :        12
  | Number of centers in hartree multipole         :        12
  | Number of centers in electron density summation:        12
  | Number of centers in basis integrals           :        12
  | Number of centers in integrals                 :        12
  | Number of centers in hamiltonian               :        12
  * Using 24 tasks for Scalapack Eigenvalue solver.
  Detailed listing of tasks and assigned k-points:
  (for non-periodic systems, the "k-point" denotes an internal label only)
   Task     0 k-point     1 on node-k98a-011
   Task     1 k-point     1 on node-k98a-011
   Task     2 k-point     1 on node-k98a-011
   Task     3 k-point     1 on node-k98a-011
   Task     4 k-point     1 on node-k98a-011
   Task     5 k-point     1 on node-k98a-011
   Task     6 k-point     1 on node-k98a-011
   Task     7 k-point     1 on node-k98a-011
   Task     8 k-point     1 on node-k98a-011
   Task     9 k-point     1 on node-k98a-011
   Task    10 k-point     1 on node-k98a-011
   Task    11 k-point     1 on node-k98a-011
   Task    12 k-point     1 on node-k98a-011
   Task    13 k-point     1 on node-k98a-011
   Task    14 k-point     1 on node-k98a-011
   Task    15 k-point     1 on node-k98a-011
   Task    16 k-point     1 on node-k98a-011
   Task    17 k-point     1 on node-k98a-011
   Task    18 k-point     1 on node-k98a-011
   Task    19 k-point     1 on node-k98a-011
   Task    20 k-point     1 on node-k98a-011
   Task    21 k-point     1 on node-k98a-011
   Task    22 k-point     1 on node-k98a-011
   Task    23 k-point     1 on node-k98a-011
  Tasks:    24 split into      6 X      4 BLACS grid
  Calculating block size based on n_basis =          180  max_nprow =            6  max_npcol =            4
  ScaLAPACK block size set to:           16
  Allocating        0.012 MB for ovlp
  Allocating        0.012 MB for ham
  Allocating        0.012 MB for eigenvec
  Required Scalapack workspace - INTEGER:            1  REAL:             1
  Partitioning the integration grid into batches with parallel hashing+maxmin method.
  | Number of batches:     1079
  | Maximal batch size:     199
  | Minimal batch size:      24
  | Average batch size:      85.190
  | Standard deviation of batch sizes:      25.512

  Integration load balanced across    24 MPI tasks.
  Work distribution over tasks is as follows:
  Task     0 has       3792 integration points.
  Task     1 has       3934 integration points.
  Task     2 has       3831 integration points.
  Task     3 has       3789 integration points.
  Task     4 has       3842 integration points.
  Task     5 has       3832 integration points.
  Task     6 has       3939 integration points.
  Task     7 has       3837 integration points.
  Task     8 has       3875 integration points.
  Task     9 has       3804 integration points.
  Task    10 has       3799 integration points.
  Task    11 has       3811 integration points.
  Task    12 has       3806 integration points.
  Task    13 has       3878 integration points.
  Task    14 has       3860 integration points.
  Task    15 has       3785 integration points.
  Task    16 has       3804 integration points.
  Task    17 has       3806 integration points.
  Task    18 has       3800 integration points.
  Task    19 has       3868 integration points.
  Task    20 has       3808 integration points.
  Task    21 has       3776 integration points.
  Task    22 has       3806 integration points.
  Task    23 has       3838 integration points.
  Initializing partition tables, free-atom densities, potentials, etc. across the integration grid (initialize_grid_storage).
  | initialize_grid_storage: Actual outermost partition radius vs. multipole_radius_free
  | (-- VB: in principle, multipole_radius_free should be larger, hence this output)
  | Species        1: Confinement radius =              4.999999999999999 AA, multipole_radius_free =              5.004487022111096 AA.
  | Species        1: outer_partition_radius set to              5.004487022111096 AA .
  | Species        2: Confinement radius =              4.999999999999999 AA, multipole_radius_free =              5.009370088163274 AA.
  | Species        2: outer_partition_radius set to              5.009370088163274 AA .
  | The sparse table of interatomic distances needs          1.64 kbyte instead of         1.15 kbyte of memory.
  | Using the partition_type stratmann_smoother will reduce your memory usage.
  | Net number of integration points:    91920
  | of which are non-zero points    :    86212
  Renormalizing the initial density to the exact electron count on the 3D integration grid.
  | Initial density: Formal number of electrons (from input files) :     120.0000000000
  | Integrated number of electrons on 3D grid     :     120.0000345834
  | Charge integration error                      :       0.0000345834
  | Normalization factor for density and gradient :       0.9999997118
  Renormalizing the free-atom superposition density to the exact electron count on the 3D integration grid.
  | Formal number of electrons (from input files) :     120.0000000000
  | Integrated number of electrons on 3D grid     :     120.0000345834
  | Charge integration error                      :       0.0000345834
  | Normalization factor for density and gradient :       0.9999997118
  Obtaining max. number of non-zero basis functions in each batch (get_n_compute_maxes).
  | Maximal number of non-zero basis functions:      163 in task     0
  | Maximal number of non-zero basis functions:      158 in task     1
  | Maximal number of non-zero basis functions:      157 in task     2
  | Maximal number of non-zero basis functions:      154 in task     3
  | Maximal number of non-zero basis functions:      158 in task     4
  | Maximal number of non-zero basis functions:      159 in task     5
  | Maximal number of non-zero basis functions:      159 in task     6
  | Maximal number of non-zero basis functions:      159 in task     7
  | Maximal number of non-zero basis functions:      161 in task     8
  | Maximal number of non-zero basis functions:      158 in task     9
  | Maximal number of non-zero basis functions:      163 in task    10
  | Maximal number of non-zero basis functions:      159 in task    11
  | Maximal number of non-zero basis functions:      164 in task    12
  | Maximal number of non-zero basis functions:      163 in task    13
  | Maximal number of non-zero basis functions:      159 in task    14
  | Maximal number of non-zero basis functions:      160 in task    15
  | Maximal number of non-zero basis functions:      160 in task    16
  | Maximal number of non-zero basis functions:      164 in task    17
  | Maximal number of non-zero basis functions:      156 in task    18
  | Maximal number of non-zero basis functions:      159 in task    19
  | Maximal number of non-zero basis functions:      159 in task    20
  | Maximal number of non-zero basis functions:      159 in task    21
  | Maximal number of non-zero basis functions:      165 in task    22
  | Maximal number of non-zero basis functions:      153 in task    23
  Selecting the method for density update.
  Loop over occupied states selected for charge density update.
  Allocating        0.132 MB for KS_eigenvector
  Integrating Hamiltonian matrix: batch-based integration.
  Time summed over all CPUs for integration: real work        0.674 s, elapsed        0.722 s
  Integrating overlap matrix.
  Time summed over all CPUs for integration: real work        0.259 s, elapsed        0.274 s
  Deallocating overlap matrix.

  Updating Kohn-Sham eigenvalues and eigenvectors using ELSI and the ELPA eigensolver.
  Overlap matrix is not singular
  | Lowest and highest eigenvalues :  0.4564E-02,  0.4616E+01
  Finished singularity check of overlap matrix
  | Time :     0.003 s
  Starting ELPA eigensolver
  Finished Cholesky decomposition
  | Time :     0.003 s
  Finished transformation to standard eigenproblem
  | Time :     0.000 s
  Finished solving standard eigenproblem
  | Time :     0.004 s
  Finished back-transformation of eigenvectors
  | Time :     0.000 s

  Obtaining occupation numbers and chemical potential using ELSI.
  | Chemical potential (Fermi level):    -7.85580426 eV
  Writing Kohn-Sham eigenvalues.

  State    Occupation    Eigenvalue [Ha]    Eigenvalue [eV]
      1       2.00000         -55.483822        -1509.79163
      2       2.00000         -55.483822        -1509.79162
      3       2.00000         -55.483043        -1509.77041
      4       2.00000         -24.345908         -662.48586
      5       2.00000         -24.345908         -662.48586
      6       2.00000         -24.345908         -662.48585
      7       2.00000         -24.345908         -662.48585
      8       2.00000         -24.340756         -662.34567
      9       2.00000         -24.340756         -662.34567
     10       2.00000         -24.340726         -662.34485
     11       2.00000         -24.340726         -662.34485
     12       2.00000         -24.332051         -662.10879
     13       2.00000          -3.948848         -107.45363
     14       2.00000          -3.948848         -107.45361
     15       2.00000          -3.947148         -107.40736
     16       2.00000          -2.541302          -69.15235
     17       2.00000          -2.541301          -69.15232
     18       2.00000          -2.541001          -69.14415
     19       2.00000          -2.540979          -69.14356
     20       2.00000          -2.539819          -69.11200
     21       2.00000          -2.539818          -69.11197
     22       2.00000          -2.539230          -69.09598
     23       2.00000          -2.538988          -69.08937
     24       2.00000          -2.538134          -69.06615
     25       2.00000          -1.165890          -31.72549
     26       2.00000          -1.161363          -31.60231
     27       2.00000          -1.159036          -31.53898
     28       2.00000          -1.154877          -31.42580
     29       2.00000          -1.149861          -31.28931
     30       2.00000          -1.149513          -31.27985
     31       2.00000          -1.148063          -31.24039
     32       2.00000          -1.148055          -31.24017
     33       2.00000          -1.136821          -30.93448
     34       2.00000          -0.533148          -14.50770
     35       2.00000          -0.527772          -14.36139
     36       2.00000          -0.523595          -14.24773
     37       2.00000          -0.505444          -13.75383
     38       2.00000          -0.497790          -13.54555
     39       2.00000          -0.491582          -13.37664
     40       2.00000          -0.489837          -13.32915
     41       2.00000          -0.489493          -13.31978
     42       2.00000          -0.484185          -13.17534
     43       2.00000          -0.478746          -13.02735
     44       2.00000          -0.474292          -12.90614
     45       2.00000          -0.473888          -12.89514
     46       2.00000          -0.466886          -12.70461
     47       2.00000          -0.465826          -12.67578
     48       2.00000          -0.464702          -12.64520
     49       2.00000          -0.460539          -12.53190
     50       2.00000          -0.458784          -12.48414
     51       2.00000          -0.454976          -12.38052
     52       2.00000          -0.454333          -12.36304
     53       2.00000          -0.452311          -12.30802
     54       2.00000          -0.449794          -12.23951
     55       2.00000          -0.448041          -12.19182
     56       2.00000          -0.446392          -12.14694
     57       2.00000          -0.445657          -12.12694
     58       2.00000          -0.444973          -12.10834
     59       2.00000          -0.440881          -11.99698
     60       2.00000          -0.440779          -11.99422
     61       0.00000          -0.170185           -4.63098
     62       0.00000          -0.111123           -3.02382
     63       0.00000          -0.079321           -2.15844
     64       0.00000          -0.042801           -1.16468
     65       0.00000          -0.032164           -0.87524
     66       0.00000          -0.021627           -0.58851
     67       0.00000           0.003489            0.09494
     68       0.00000           0.032428            0.88242
     69       0.00000           0.033582            0.91382
     70       0.00000           0.039870            1.08493
     71       0.00000           0.075997            2.06799
     72       0.00000           0.109477            2.97902
     73       0.00000           0.131329            3.57364
     74       0.00000           0.155311            4.22624
     75       0.00000           0.162672            4.42653
     76       0.00000           0.168225            4.57763
     77       0.00000           0.174340            4.74404
     78       0.00000           0.178088            4.84602
     79       0.00000           0.191659            5.21530
     80       0.00000           0.201408            5.48059
     81       0.00000           0.203644            5.54143
     82       0.00000           0.216082            5.87988
     83       0.00000           0.226889            6.17396
     84       0.00000           0.231335            6.29494
     85       0.00000           0.239828            6.52604
     86       0.00000           0.242653            6.60294
     87       0.00000           0.267384            7.27589
     88       0.00000           0.274871            7.47961
     89       0.00000           0.276461            7.52289
     90       0.00000           0.294873            8.02391
     91       0.00000           0.295717            8.04688
     92       0.00000           0.307356            8.36359
     93       0.00000           0.337352            9.17982
     94       0.00000           0.347183            9.44734
     95       0.00000           0.363538            9.89237
     96       0.00000           0.365792            9.95371

  Highest occupied state (VBM) at    -11.99421761 eV
  | Occupation number:      2.00000000

  Lowest unoccupied state (CBM) at    -4.63098264 eV
  | Occupation number:      0.00000000

  Overall HOMO-LUMO gap:      7.36323497 eV.
  Calculating total energy contributions from superposition of free atom densities.

  Total energy components:
  | Sum of eigenvalues            :        -886.74575234 Ha      -24129.57962061 eV
  | XC energy correction          :        -144.22954091 Ha       -3924.68549398 eV
  | XC potential correction       :         187.78796025 Ha        5109.97039077 eV
  | Free-atom electrostatic energy:        -782.12490861 Ha      -21282.70161508 eV
  | Hartree energy correction     :           0.00000000 Ha           0.00000000 eV
  | Entropy correction            :           0.00000000 Ha           0.00000000 eV
  | ---------------------------
  | Total energy                  :       -1625.31224161 Ha      -44226.99633890 eV
  | Total energy, T -> 0          :       -1625.31224161 Ha      -44226.99633890 eV  <-- do not rely on this value for anything but (periodic) metals
  | Electronic free energy        :       -1625.31224161 Ha      -44226.99633890 eV

  Derived energy quantities:
  | Kinetic energy                :        1627.38714397 Ha       44283.45730494 eV
  | Electrostatic energy          :       -3108.46984467 Ha      -84585.76814986 eV
  | Energy correction for multipole
  | error in Hartree potential    :           0.00000000 Ha           0.00000000 eV
  | Sum of eigenvalues per atom                           :       -2010.79830172 eV
  | Total energy (T->0) per atom                          :       -3685.58302824 eV  <-- do not rely on this value for anything but (periodic) metals
  | Electronic free energy per atom                       :       -3685.58302824 eV
  Initialize hartree_potential_storage
  Max. number of atoms included in rho_multipole:           12

  End scf initialization - timings             :  max(cpu_time)    wall_clock(cpu1)
  | Time for scf. initialization                :        0.109 s           0.109 s
  | Boundary condition initialization           :        0.000 s           0.000 s
  | Integration                                 :        0.043 s           0.043 s
  | Solution of K.-S. eqns.                     :        0.012 s           0.012 s
  | Grid partitioning                           :        0.033 s           0.034 s
  | Preloading free-atom quantities on grid     :        0.014 s           0.014 s
  | Free-atom superposition energy              :        0.005 s           0.005 s
  | Total energy evaluation                     :        0.000 s           0.000 s

  Partial memory accounting:
  | Current value for overall tracked memory usage:
  |   Minimum:        0.273 MB (on task 23)
  |   Maximum:        0.292 MB (on task  0)
  |   Average:        0.287 MB
  | Peak value for overall tracked memory usage:
  |   Minimum:        1.276 MB (on task 23 after allocating wave)
  |   Maximum:        1.372 MB (on task 12 after allocating wave)
  |   Average:        1.336 MB
  | Largest tracked array allocation so far:
  |   Minimum:        0.232 MB (H_times_psi on task 23)
  |   Maximum:        0.439 MB (all_coords on task 10)
  |   Average:        0.265 MB
  Note:  These values currently only include a subset of arrays which are explicitly tracked.
  The "true" memory usage will be greater.
------------------------------------------------------------
  Evaluating new KS density.
  Integration grid: deviation in total charge (<rho> - N_e) =   8.526513E-14

  Time for density update prior                :  max(cpu_time)    wall_clock(cpu1)
  | self-consistency iterative process          :        0.027 s           0.027 s

------------------------------------------------------------
          Begin self-consistency iteration #    1

  Date     :  20220517, Time     :  110130.202
------------------------------------------------------------
  Pulay mixing of updated and previous charge densities.
  Renormalizing the density to the exact electron count on the 3D integration grid.
  | Formal number of electrons (from input files) :     120.0000000000
  | Integrated number of electrons on 3D grid     :     120.0000000000
  | Charge integration error                      :       0.0000000000
  | Normalization factor for density and gradient :       1.0000000000

  Evaluating partitioned Hartree potential by multipole expansion.
  | Original multipole sum: apparent total charge =  -0.317557E-13
  | Sum of charges compensated after spline to logarithmic grids =   0.817828E-04
  | Analytical far-field extrapolation by fixed multipoles:
  | Hartree multipole sum: apparent total charge =  -0.324198E-13
  Summing up the Hartree potential.
  Time summed over all CPUs for potential: real work        0.381 s, elapsed        0.394 s
  | RMS charge density error from multipole expansion :   0.106096E-01

  Integrating Hamiltonian matrix: batch-based integration.
  Time summed over all CPUs for integration: real work        0.627 s, elapsed        0.657 s

  Updating Kohn-Sham eigenvalues and eigenvectors using ELSI and the ELPA eigensolver.
  Starting ELPA eigensolver
  Finished transformation to standard eigenproblem
  | Time :     0.000 s
  Finished solving standard eigenproblem
  | Time :     0.004 s
  Finished back-transformation of eigenvectors
  | Time :     0.000 s

  Obtaining occupation numbers and chemical potential using ELSI.
  | Chemical potential (Fermi level):    -8.20792130 eV
  Writing Kohn-Sham eigenvalues.

  State    Occupation    Eigenvalue [Ha]    Eigenvalue [eV]
      1       2.00000         -55.725223        -1516.36046
      2       2.00000         -55.640626        -1514.05846
      3       2.00000         -55.640625        -1514.05845
      4       2.00000         -24.219109         -659.03548
      5       2.00000         -24.219108         -659.03546
      6       2.00000         -24.219107         -659.03544
      7       2.00000         -24.219107         -659.03544
      8       2.00000         -24.078873         -655.21947
      9       2.00000         -24.070665         -654.99613
     10       2.00000         -24.070665         -654.99612
     11       2.00000         -24.070212         -654.98378
     12       2.00000         -24.070210         -654.98374
     13       2.00000          -4.155859         -113.08669
     14       2.00000          -4.080588         -111.03844
     15       2.00000          -4.080586         -111.03840
     16       2.00000          -2.750381          -74.84167
     17       2.00000          -2.747901          -74.77420
     18       2.00000          -2.747739          -74.76979
     19       2.00000          -2.674525          -72.77754
     20       2.00000          -2.674524          -72.77750
     21       2.00000          -2.673263          -72.74318
     22       2.00000          -2.673262          -72.74317
     23       2.00000          -2.671733          -72.70154
     24       2.00000          -2.671730          -72.70148
     25       2.00000          -1.139145          -30.99771
     26       2.00000          -1.132725          -30.82300
     27       2.00000          -1.129366          -30.73162
     28       2.00000          -1.124051          -30.58699
     29       2.00000          -1.019876          -27.75223
     30       2.00000          -1.019277          -27.73593
     31       2.00000          -1.019268          -27.73569
     32       2.00000          -1.015275          -27.62703
     33       2.00000          -1.015262          -27.62667
     34       2.00000          -0.534959          -14.55698
     35       2.00000          -0.512703          -13.95137
     36       2.00000          -0.512491          -13.94559
     37       2.00000          -0.489583          -13.32222
     38       2.00000          -0.468112          -12.73799
     39       2.00000          -0.456938          -12.43392
     40       2.00000          -0.452334          -12.30864
     41       2.00000          -0.445841          -12.13194
     42       2.00000          -0.437411          -11.90256
     43       2.00000          -0.435125          -11.84036
     44       2.00000          -0.431388          -11.73867
     45       2.00000          -0.419549          -11.41650
     46       2.00000          -0.395682          -10.76705
     47       2.00000          -0.389836          -10.60796
     48       2.00000          -0.385375          -10.48659
     49       2.00000          -0.365242           -9.93873
     50       2.00000          -0.364927           -9.93017
     51       2.00000          -0.334909           -9.11333
     52       2.00000          -0.334311           -9.09707
     53       2.00000          -0.332744           -9.05443
     54       2.00000          -0.331061           -9.00862
     55       2.00000          -0.329415           -8.96384
     56       2.00000          -0.328731           -8.94521
     57       2.00000          -0.322108           -8.76501
     58       2.00000          -0.322074           -8.76407
     59       2.00000          -0.319606           -8.69691
     60       2.00000          -0.319142           -8.68430
     61       0.00000          -0.208651           -5.67769
     62       0.00000          -0.125537           -3.41604
     63       0.00000          -0.086539           -2.35484
     64       0.00000          -0.082119           -2.23458
     65       0.00000          -0.052362           -1.42483
     66       0.00000          -0.050511           -1.37448
     67       0.00000          -0.001285           -0.03495
     68       0.00000          -0.001235           -0.03362
     69       0.00000           0.012046            0.32778
     70       0.00000           0.021916            0.59636
     71       0.00000           0.049555            1.34846
     72       0.00000           0.078123            2.12584
     73       0.00000           0.109165            2.97054
     74       0.00000           0.141275            3.84428
     75       0.00000           0.150685            4.10036
     76       0.00000           0.159822            4.34898
     77       0.00000           0.168839            4.59435
     78       0.00000           0.178659            4.86157
     79       0.00000           0.179576            4.88651
     80       0.00000           0.186812            5.08340
     81       0.00000           0.198664            5.40593
     82       0.00000           0.213126            5.79944
     83       0.00000           0.214186            5.82830
     84       0.00000           0.214975            5.84977
     85       0.00000           0.221614            6.03042
     86       0.00000           0.226582            6.16560
     87       0.00000           0.245804            6.68866
     88       0.00000           0.248176            6.75322
     89       0.00000           0.259656            7.06560
     90       0.00000           0.267867            7.28904
     91       0.00000           0.290902            7.91585
     92       0.00000           0.302778            8.23900
     93       0.00000           0.322696            8.78102
     94       0.00000           0.347953            9.46828
     95       0.00000           0.352109            9.58138
     96       0.00000           0.355561            9.67531

  Highest occupied state (VBM) at     -8.68429659 eV
  | Occupation number:      2.00000000

  Lowest unoccupied state (CBM) at    -5.67769059 eV
  | Occupation number:      0.00000000

  Overall HOMO-LUMO gap:      3.00660599 eV.

  Total energy components:
  | Sum of eigenvalues            :        -882.46292177 Ha      -24013.03787116 eV
  | XC energy correction          :        -145.54598632 Ha       -3960.50779629 eV
  | XC potential correction       :         189.51883338 Ha        5157.06984506 eV
  | Free-atom electrostatic energy:        -782.12490861 Ha      -21282.70161508 eV
  | Hartree energy correction     :          -4.48070462 Ha        -121.92617626 eV
  | Entropy correction            :           0.00000000 Ha           0.00000000 eV
  | ---------------------------
  | Total energy                  :       -1625.09568794 Ha      -44221.10361374 eV
  | Total energy, T -> 0          :       -1625.09568794 Ha      -44221.10361374 eV  <-- do not rely on this value for anything but (periodic) metals
  | Electronic free energy        :       -1625.09568794 Ha      -44221.10361374 eV

  Derived energy quantities:
  | Kinetic energy                :        1633.52810999 Ha       44450.56149252 eV
  | Electrostatic energy          :       -3113.07781160 Ha      -84711.15730997 eV
  | Energy correction for multipole
  | error in Hartree potential    :           0.03710372 Ha           1.00964368 eV
  | Sum of eigenvalues per atom                           :       -2001.08648926 eV
  | Total energy (T->0) per atom                          :       -3685.09196781 eV  <-- do not rely on this value for anything but (periodic) metals
  | Electronic free energy per atom                       :       -3685.09196781 eV
  Evaluating new KS density.
  Integration grid: deviation in total charge (<rho> - N_e) =   2.842171E-14

  Self-consistency convergence accuracy:
  | Change of charge density      :  0.5996E+00
  | Change of sum of eigenvalues  :  0.1165E+03 eV
  | Change of total energy        :  0.5893E+01 eV


------------------------------------------------------------
  End self-consistency iteration #     1       :  max(cpu_time)    wall_clock(cpu1)
  | Time for this iteration                     :        0.077 s           0.078 s
  | Charge density update                       :        0.025 s           0.025 s
  | Density mixing                              :        0.001 s           0.001 s
  | Hartree multipole update                    :        0.001 s           0.001 s
  | Hartree multipole summation                 :        0.017 s           0.017 s
  | Integration                                 :        0.028 s           0.028 s
  | Solution of K.-S. eqns.                     :        0.004 s           0.004 s
  | Total energy evaluation                     :        0.000 s           0.000 s

  Partial memory accounting:
  | Current value for overall tracked memory usage:
  |   Minimum:        0.273 MB (on task 23)
  |   Maximum:        0.292 MB (on task  0)
  |   Average:        0.287 MB
  | Peak value for overall tracked memory usage:
  |   Minimum:        1.276 MB (on task 23 after allocating wave)
  |   Maximum:        1.372 MB (on task 12 after allocating wave)
  |   Average:        1.336 MB
  | Largest tracked array allocation so far:
  |   Minimum:        0.697 MB (gradient_basis_wave on task 23)
  |   Maximum:        0.752 MB (gradient_basis_wave on task 22)
  |   Average:        0.727 MB
  Note:  These values currently only include a subset of arrays which are explicitly tracked.
  The "true" memory usage will be greater.
------------------------------------------------------------

------------------------------------------------------------
          Begin self-consistency iteration #    2

  Date     :  20220517, Time     :  110130.285
------------------------------------------------------------
  Pulay mixing of updated and previous charge densities.
  Renormalizing the density to the exact electron count on the 3D integration grid.
  | Formal number of electrons (from input files) :     120.0000000000
  | Integrated number of electrons on 3D grid     :     120.0000000000
  | Charge integration error                      :       0.0000000000
  | Normalization factor for density and gradient :       1.0000000000

  Evaluating partitioned Hartree potential by multipole expansion.
  | Original multipole sum: apparent total charge =  -0.429722E-13
  | Sum of charges compensated after spline to logarithmic grids =   0.394888E-04
  | Analytical far-field extrapolation by fixed multipoles:
  | Hartree multipole sum: apparent total charge =  -0.438578E-13
  Summing up the Hartree potential.
  Time summed over all CPUs for potential: real work        0.380 s, elapsed        0.392 s
  | RMS charge density error from multipole expansion :   0.120857E-01

  Integrating Hamiltonian matrix: batch-based integration.
  Time summed over all CPUs for integration: real work        0.627 s, elapsed        0.660 s

  Updating Kohn-Sham eigenvalues and eigenvectors using ELSI and the ELPA eigensolver.
  Starting ELPA eigensolver
  Finished transformation to standard eigenproblem
  | Time :     0.000 s
  Finished solving standard eigenproblem
  | Time :     0.003 s
  Finished back-transformation of eigenvectors
  | Time :     0.000 s

  Obtaining occupation numbers and chemical potential using ELSI.
  | Chemical potential (Fermi level):    -8.36476080 eV
  Highest occupied state (VBM) at     -9.78467135 eV
  | Occupation number:      2.00000000

  Lowest unoccupied state (CBM) at    -5.90141034 eV
  | Occupation number:      0.00000000

  Overall HOMO-LUMO gap:      3.88326100 eV.

  Checking to see if s.c.f. parameters should be adjusted.

  Total energy components:
  | Sum of eigenvalues            :        -885.64157374 Ha      -24099.53339215 eV
  | XC energy correction          :        -145.01358285 Ha       -3946.02036070 eV
  | XC potential correction       :         188.81845109 Ha        5138.01147336 eV
  | Free-atom electrostatic energy:        -782.12490861 Ha      -21282.70161508 eV
  | Hartree energy correction     :          -1.05759641 Ha         -28.77866249 eV
  | Entropy correction            :           0.00000000 Ha           0.00000000 eV
  | ---------------------------
  | Total energy                  :       -1625.01921051 Ha      -44219.02255706 eV
  | Total energy, T -> 0          :       -1625.01921051 Ha      -44219.02255706 eV  <-- do not rely on this value for anything but (periodic) metals
  | Electronic free energy        :       -1625.01921051 Ha      -44219.02255706 eV

  Derived energy quantities:
  | Kinetic energy                :        1629.51756741 Ha       44341.42907630 eV
  | Electrostatic energy          :       -3109.52319507 Ha      -84614.43127266 eV
  | Energy correction for multipole
  | error in Hartree potential    :           0.04008199 Ha           1.09068651 eV
  | Sum of eigenvalues per atom                           :       -2008.29444935 eV
  | Total energy (T->0) per atom                          :       -3684.91854642 eV  <-- do not rely on this value for anything but (periodic) metals
  | Electronic free energy per atom                       :       -3684.91854642 eV
  Evaluating new KS density.
  Integration grid: deviation in total charge (<rho> - N_e) =   2.842171E-14

  Self-consistency convergence accuracy:
  | Change of charge density      :  0.5124E+00
  | Change of sum of eigenvalues  : -0.8650E+02 eV
  | Change of total energy        :  0.2081E+01 eV


------------------------------------------------------------
  End self-consistency iteration #     2       :  max(cpu_time)    wall_clock(cpu1)
  | Time for this iteration                     :        0.080 s           0.077 s
  | Charge density update                       :        0.025 s           0.025 s
  | Density mixing                              :        0.004 s           0.002 s
  | Hartree multipole update                    :        0.001 s           0.001 s
  | Hartree multipole summation                 :        0.017 s           0.017 s
  | Integration                                 :        0.028 s           0.027 s
  | Solution of K.-S. eqns.                     :        0.004 s           0.005 s
  | Total energy evaluation                     :        0.000 s           0.000 s

  Partial memory accounting:
  | Current value for overall tracked memory usage:
  |   Minimum:        0.274 MB (on task 23)
  |   Maximum:        0.293 MB (on task  0)
  |   Average:        0.288 MB
  | Peak value for overall tracked memory usage:
  |   Minimum:        1.276 MB (on task 23 after allocating wave)
  |   Maximum:        1.372 MB (on task 12 after allocating wave)
  |   Average:        1.336 MB
  | Largest tracked array allocation so far:
  |   Minimum:        0.697 MB (gradient_basis_wave on task 23)
  |   Maximum:        0.752 MB (gradient_basis_wave on task 22)
  |   Average:        0.727 MB
  Note:  These values currently only include a subset of arrays which are explicitly tracked.
  The "true" memory usage will be greater.
------------------------------------------------------------

------------------------------------------------------------
          Begin self-consistency iteration #    3

  Date     :  20220517, Time     :  110130.368
------------------------------------------------------------
  Pulay mixing of updated and previous charge densities.
  Renormalizing the density to the exact electron count on the 3D integration grid.
  | Formal number of electrons (from input files) :     120.0000000000
  | Integrated number of electrons on 3D grid     :     120.0000000000
  | Charge integration error                      :       0.0000000000
  | Normalization factor for density and gradient :       1.0000000000

  Evaluating partitioned Hartree potential by multipole expansion.
  | Original multipole sum: apparent total charge =  -0.423081E-14
  | Sum of charges compensated after spline to logarithmic grids =   0.485820E-04
  | Analytical far-field extrapolation by fixed multipoles:
  | Hartree multipole sum: apparent total charge =  -0.491955E-16
  Summing up the Hartree potential.
  Time summed over all CPUs for potential: real work        0.380 s, elapsed        0.392 s
  | RMS charge density error from multipole expansion :   0.167050E-01

  Integrating Hamiltonian matrix: batch-based integration.
  Time summed over all CPUs for integration: real work        0.626 s, elapsed        0.654 s

  Updating Kohn-Sham eigenvalues and eigenvectors using ELSI and the ELPA eigensolver.
  Starting ELPA eigensolver
  Finished transformation to standard eigenproblem
  | Time :     0.001 s
  Finished solving standard eigenproblem
  | Time :     0.003 s
  Finished back-transformation of eigenvectors
  | Time :     0.000 s

  Obtaining occupation numbers and chemical potential using ELSI.
  | Chemical potential (Fermi level):    -8.43228359 eV
  Highest occupied state (VBM) at     -9.64484322 eV
  | Occupation number:      2.00000000

  Lowest unoccupied state (CBM) at    -6.25314544 eV
  | Occupation number:      0.00000000

  Overall HOMO-LUMO gap:      3.39169778 eV.

  Total energy components:
  | Sum of eigenvalues            :        -886.78644593 Ha      -24130.68694949 eV
  | XC energy correction          :        -144.96859576 Ha       -3944.79619977 eV
  | XC potential correction       :         188.75811464 Ha        5136.36963495 eV
  | Free-atom electrostatic energy:        -782.12490861 Ha      -21282.70161508 eV
  | Hartree energy correction     :           0.10228384 Ha           2.78328481 eV
  | Entropy correction            :           0.00000000 Ha           0.00000000 eV
  | ---------------------------
  | Total energy                  :       -1625.01955182 Ha      -44219.03184459 eV
  | Total energy, T -> 0          :       -1625.01955182 Ha      -44219.03184459 eV  <-- do not rely on this value for anything but (periodic) metals
  | Electronic free energy        :       -1625.01955182 Ha      -44219.03184459 eV

  Derived energy quantities:
  | Kinetic energy                :        1627.75614021 Ha       44293.49820339 eV
  | Electrostatic energy          :       -3107.80709626 Ha      -84567.73384821 eV
  | Energy correction for multipole
  | error in Hartree potential    :           0.05442597 Ha           1.48100591 eV
  | Sum of eigenvalues per atom                           :       -2010.89057912 eV
  | Total energy (T->0) per atom                          :       -3684.91932038 eV  <-- do not rely on this value for anything but (periodic) metals
  | Electronic free energy per atom                       :       -3684.91932038 eV
  Evaluating new KS density.
  Integration grid: deviation in total charge (<rho> - N_e) =  -2.842171E-14

  Self-consistency convergence accuracy:
  | Change of charge density      :  0.1339E+00
  | Change of sum of eigenvalues  : -0.3115E+02 eV
  | Change of total energy        : -0.9288E-02 eV


------------------------------------------------------------
  End self-consistency iteration #     3       :  max(cpu_time)    wall_clock(cpu1)
  | Time for this iteration                     :        0.079 s           0.077 s
  | Charge density update                       :        0.025 s           0.025 s
  | Density mixing                              :        0.004 s           0.002 s
  | Hartree multipole update                    :        0.001 s           0.001 s
  | Hartree multipole summation                 :        0.017 s           0.016 s
  | Integration                                 :        0.028 s           0.027 s
  | Solution of K.-S. eqns.                     :        0.004 s           0.004 s
  | Total energy evaluation                     :        0.000 s           0.001 s

  Partial memory accounting:
  | Current value for overall tracked memory usage:
  |   Minimum:        0.274 MB (on task 23)
  |   Maximum:        0.293 MB (on task  0)
  |   Average:        0.288 MB
  | Peak value for overall tracked memory usage:
  |   Minimum:        1.276 MB (on task 23 after allocating wave)
  |   Maximum:        1.372 MB (on task 12 after allocating wave)
  |   Average:        1.336 MB
  | Largest tracked array allocation so far:
  |   Minimum:        0.697 MB (gradient_basis_wave on task 23)
  |   Maximum:        0.752 MB (gradient_basis_wave on task 22)
  |   Average:        0.727 MB
  Note:  These values currently only include a subset of arrays which are explicitly tracked.
  The "true" memory usage will be greater.
------------------------------------------------------------

------------------------------------------------------------
          Begin self-consistency iteration #    4

  Date     :  20220517, Time     :  110130.451
------------------------------------------------------------
  Pulay mixing of updated and previous charge densities.
  Renormalizing the density to the exact electron count on the 3D integration grid.
  | Formal number of electrons (from input files) :     120.0000000000
  | Integrated number of electrons on 3D grid     :     120.0000000000
  | Charge integration error                      :       0.0000000000
  | Normalization factor for density and gradient :       1.0000000000

  Evaluating partitioned Hartree potential by multipole expansion.
  | Original multipole sum: apparent total charge =   0.693656E-14
  | Sum of charges compensated after spline to logarithmic grids =   0.526291E-04
  | Analytical far-field extrapolation by fixed multipoles:
  | Hartree multipole sum: apparent total charge =   0.900277E-14
  Summing up the Hartree potential.
  Time summed over all CPUs for potential: real work        0.380 s, elapsed        0.392 s
  | RMS charge density error from multipole expansion :   0.186379E-01

  Integrating Hamiltonian matrix: batch-based integration.
  Time summed over all CPUs for integration: real work        0.627 s, elapsed        0.654 s

  Updating Kohn-Sham eigenvalues and eigenvectors using ELSI and the ELPA eigensolver.
  Starting ELPA eigensolver
  Finished transformation to standard eigenproblem
  | Time :     0.001 s
  Finished solving standard eigenproblem
  | Time :     0.003 s
  Finished back-transformation of eigenvectors
  | Time :     0.000 s

  Obtaining occupation numbers and chemical potential using ELSI.
  | Chemical potential (Fermi level):    -8.50123929 eV
  Highest occupied state (VBM) at     -9.65916999 eV
  | Occupation number:      2.00000000

  Lowest unoccupied state (CBM) at    -6.24522433 eV
  | Occupation number:      0.00000000

  Overall HOMO-LUMO gap:      3.41394567 eV.

  Total energy components:
  | Sum of eigenvalues            :        -886.94534968 Ha      -24135.01094052 eV
  | XC energy correction          :        -144.95198948 Ha       -3944.34431967 eV
  | XC potential correction       :         188.73567139 Ha        5135.75892309 eV
  | Free-atom electrostatic energy:        -782.12490861 Ha      -21282.70161508 eV
  | Hartree energy correction     :           0.27066345 Ha           7.36512732 eV
  | Entropy correction            :           0.00000000 Ha           0.00000000 eV
  | ---------------------------
  | Total energy                  :       -1625.01591291 Ha      -44218.93282487 eV
  | Total energy, T -> 0          :       -1625.01591291 Ha      -44218.93282487 eV  <-- do not rely on this value for anything but (periodic) metals
  | Electronic free energy        :       -1625.01591291 Ha      -44218.93282487 eV

  Derived energy quantities:
  | Kinetic energy                :        1627.11921041 Ha       44276.16646172 eV
  | Electrostatic energy          :       -3107.18313384 Ha      -84550.75496692 eV
  | Energy correction for multipole
  | error in Hartree potential    :           0.06001183 Ha           1.63300502 eV
  | Sum of eigenvalues per atom                           :       -2011.25091171 eV
  | Total energy (T->0) per atom                          :       -3684.91106874 eV  <-- do not rely on this value for anything but (periodic) metals
  | Electronic free energy per atom                       :       -3684.91106874 eV
  Evaluating new KS density.
  Integration grid: deviation in total charge (<rho> - N_e) =   2.842171E-14

  Self-consistency convergence accuracy:
  | Change of charge density      :  0.1056E+00
  | Change of sum of eigenvalues  : -0.4324E+01 eV
  | Change of total energy        :  0.9902E-01 eV


------------------------------------------------------------
  End self-consistency iteration #     4       :  max(cpu_time)    wall_clock(cpu1)
  | Time for this iteration                     :        0.080 s           0.077 s
  | Charge density update                       :        0.025 s           0.026 s
  | Density mixing                              :        0.004 s           0.002 s
  | Hartree multipole update                    :        0.001 s           0.001 s
  | Hartree multipole summation                 :        0.017 s           0.016 s
  | Integration                                 :        0.028 s           0.027 s
  | Solution of K.-S. eqns.                     :        0.004 s           0.004 s
  | Total energy evaluation                     :        0.000 s           0.000 s

  Partial memory accounting:
  | Current value for overall tracked memory usage:
  |   Minimum:        0.274 MB (on task 23)
  |   Maximum:        0.293 MB (on task  0)
  |   Average:        0.288 MB
  | Peak value for overall tracked memory usage:
  |   Minimum:        1.276 MB (on task 23 after allocating wave)
  |   Maximum:        1.372 MB (on task 12 after allocating wave)
  |   Average:        1.336 MB
  | Largest tracked array allocation so far:
  |   Minimum:        0.697 MB (gradient_basis_wave on task 23)
  |   Maximum:        0.752 MB (gradient_basis_wave on task 22)
  |   Average:        0.727 MB
  Note:  These values currently only include a subset of arrays which are explicitly tracked.
  The "true" memory usage will be greater.
------------------------------------------------------------

------------------------------------------------------------
          Begin self-consistency iteration #    5

  Date     :  20220517, Time     :  110130.534
------------------------------------------------------------
  Pulay mixing of updated and previous charge densities.
  Renormalizing the density to the exact electron count on the 3D integration grid.
  | Formal number of electrons (from input files) :     120.0000000000
  | Integrated number of electrons on 3D grid     :     120.0000000000
  | Charge integration error                      :       0.0000000000
  | Normalization factor for density and gradient :       1.0000000000

  Evaluating partitioned Hartree potential by multipole expansion.
  | Original multipole sum: apparent total charge =   0.659219E-14
  | Sum of charges compensated after spline to logarithmic grids =   0.537467E-04
  | Analytical far-field extrapolation by fixed multipoles:
  | Hartree multipole sum: apparent total charge =   0.437840E-14
  Summing up the Hartree potential.
  Time summed over all CPUs for potential: real work        0.380 s, elapsed        0.392 s
  | RMS charge density error from multipole expansion :   0.183495E-01

  Integrating Hamiltonian matrix: batch-based integration.
  Time summed over all CPUs for integration: real work        0.627 s, elapsed        0.654 s

  Updating Kohn-Sham eigenvalues and eigenvectors using ELSI and the ELPA eigensolver.
  Starting ELPA eigensolver
  Finished transformation to standard eigenproblem
  | Time :     0.001 s
  Finished solving standard eigenproblem
  | Time :     0.003 s
  Finished back-transformation of eigenvectors
  | Time :     0.000 s

  Obtaining occupation numbers and chemical potential using ELSI.
  | Chemical potential (Fermi level):    -8.44899515 eV
  Highest occupied state (VBM) at     -9.73763936 eV
  | Occupation number:      2.00000000

  Lowest unoccupied state (CBM) at    -6.12689957 eV
  | Occupation number:      0.00000000

  Overall HOMO-LUMO gap:      3.61073979 eV.

  Total energy components:
  | Sum of eigenvalues            :        -886.68149831 Ha      -24127.83117958 eV
  | XC energy correction          :        -144.94682136 Ha       -3944.20368795 eV
  | XC potential correction       :         188.72910466 Ha        5135.58023335 eV
  | Free-atom electrostatic energy:        -782.12490861 Ha      -21282.70161508 eV
  | Hartree energy correction     :           0.00844340 Ha           0.22975673 eV
  | Entropy correction            :           0.00000000 Ha           0.00000000 eV
[...]
   Total forces(   7)            :  0.251141E+01 -0.214280E+01 -0.574872E+00
  atom #    8
   Hellmann-Feynman              :  0.173008E+01  0.162423E+01 -0.312753E+00
   Ionic forces                  :  0.000000E+00  0.000000E+00  0.000000E+00
   Multipole                     :  0.427905E+00  0.401939E+00 -0.772435E-01
   Hartree pot. SCF incomplete   : -0.369106E-06 -0.261912E-06  0.790419E-07
   Pulay + GGA                   : -0.522345E+01 -0.490735E+01  0.944878E+00
   ----------------------------------------------------------------
   Total forces(   8)            : -0.306546E+01 -0.288118E+01  0.554881E+00
  atom #    9
   Hellmann-Feynman              :  0.985906E+00 -0.369649E+00  0.971358E+00
   Ionic forces                  :  0.000000E+00  0.000000E+00  0.000000E+00
   Multipole                     :  0.293441E+00 -0.280766E+00 -0.168810E+00
   Hartree pot. SCF incomplete   :  0.286789E-06 -0.231066E-06 -0.293194E-07
   Pulay + GGA                   : -0.279423E+01  0.320432E+01  0.751488E+00
   ----------------------------------------------------------------
   Total forces(   9)            : -0.151488E+01  0.255390E+01  0.155404E+01
  atom #   10
   Hellmann-Feynman              : -0.503172E+00  0.824523E+00 -0.105841E+01
   Ionic forces                  :  0.000000E+00  0.000000E+00  0.000000E+00
   Multipole                     : -0.230282E+00  0.339348E+00  0.157297E+00
   Hartree pot. SCF incomplete   : -0.414112E-06  0.505420E-06  0.919928E-07
   Pulay + GGA                   :  0.287799E+01 -0.312629E+01 -0.766808E+00
   ----------------------------------------------------------------
   Total forces(  10)            :  0.214454E+01 -0.196242E+01 -0.166792E+01
  atom #   11
   Hellmann-Feynman              :  0.223640E+01  0.105532E+01  0.190569E+01
   Ionic forces                  :  0.000000E+00  0.000000E+00  0.000000E+00
   Multipole                     :  0.533837E+00  0.252087E+00  0.453709E+00
   Hartree pot. SCF incomplete   : -0.436781E-06 -0.136945E-06 -0.262687E-06
   Pulay + GGA                   : -0.495908E+01 -0.220201E+01 -0.452255E+01
   ----------------------------------------------------------------
   Total forces(  11)            : -0.218884E+01 -0.894602E+00 -0.216315E+01
  atom #   12
   Hellmann-Feynman              : -0.228018E+01 -0.215306E+01  0.436617E+00
   Ionic forces                  :  0.000000E+00  0.000000E+00  0.000000E+00
   Multipole                     : -0.502301E+00 -0.476986E+00  0.101351E+00
   Hartree pot. SCF incomplete   :  0.287770E-06  0.307176E-06  0.145460E-06
   Pulay + GGA                   :  0.494194E+01  0.480861E+01 -0.126116E+01
   ----------------------------------------------------------------
   Total forces(  12)            :  0.215945E+01  0.217856E+01 -0.723191E+00


  Self-consistency convergence accuracy:
  | Change of charge density      :  0.7248E-07
  | Change of sum of eigenvalues  :  0.1935E-05 eV
  | Change of total energy        : -0.7425E-09 eV
  | Change of forces              :  0.9608E-07 eV/A

  Writing Kohn-Sham eigenvalues.

  State    Occupation    Eigenvalue [Ha]    Eigenvalue [eV]
      1       2.00000         -55.704079        -1515.78512
      2       2.00000         -55.616997        -1513.41548
      3       2.00000         -55.616995        -1513.41542
      4       2.00000         -24.309101         -661.48430
      5       2.00000         -24.309101         -661.48429
      6       2.00000         -24.309100         -661.48428
      7       2.00000         -24.309100         -661.48426
      8       2.00000         -24.237060         -659.52396
      9       2.00000         -24.209378         -658.77070
     10       2.00000         -24.209378         -658.77069
     11       2.00000         -24.207928         -658.73124
     12       2.00000         -24.207927         -658.73122
     13       2.00000          -4.148956         -112.89884
     14       2.00000          -4.070723         -110.77001
     15       2.00000          -4.070723         -110.77000
     16       2.00000          -2.742205          -74.61918
     17       2.00000          -2.740343          -74.56852
     18       2.00000          -2.739287          -74.53980
     19       2.00000          -2.663845          -72.48691
     20       2.00000          -2.663843          -72.48686
     21       2.00000          -2.663548          -72.47883
     22       2.00000          -2.663547          -72.47880
     23       2.00000          -2.659293          -72.36305
     24       2.00000          -2.659293          -72.36303
     25       2.00000          -1.167575          -31.77133
     26       2.00000          -1.161624          -31.60940
     27       2.00000          -1.158815          -31.53297
     28       2.00000          -1.153841          -31.39762
     29       2.00000          -1.073133          -29.20143
     30       2.00000          -1.058200          -28.79510
     31       2.00000          -1.058179          -28.79452
     32       2.00000          -1.054527          -28.69514
     33       2.00000          -1.054515          -28.69481
     34       2.00000          -0.555972          -15.12877
     35       2.00000          -0.536010          -14.58558
     36       2.00000          -0.535392          -14.56876
     37       2.00000          -0.515501          -14.02750
     38       2.00000          -0.495172          -13.47431
     39       2.00000          -0.485267          -13.20479
     40       2.00000          -0.477538          -12.99446
     41       2.00000          -0.476221          -12.95864
     42       2.00000          -0.469925          -12.78731
     43       2.00000          -0.460774          -12.53829
     44       2.00000          -0.457868          -12.45922
     45       2.00000          -0.447283          -12.17118
     46       2.00000          -0.434603          -11.82614
     47       2.00000          -0.426177          -11.59688
     48       2.00000          -0.423651          -11.52814
     49       2.00000          -0.403285          -10.97395
     50       2.00000          -0.402943          -10.96465
     51       2.00000          -0.380345          -10.34971
     52       2.00000          -0.378967          -10.31220
     53       2.00000          -0.368696          -10.03272
     54       2.00000          -0.368103          -10.01661
     55       2.00000          -0.365402           -9.94310
     56       2.00000          -0.364675           -9.92331
     57       2.00000          -0.359061           -9.77055
     58       2.00000          -0.359021           -9.76945
     59       2.00000          -0.356775           -9.70835
     60       2.00000          -0.356459           -9.69974
     61       0.00000          -0.225654           -6.14036
     62       0.00000          -0.137651           -3.74568
     63       0.00000          -0.094520           -2.57203
     64       0.00000          -0.090148           -2.45304
     65       0.00000          -0.059404           -1.61646
     66       0.00000          -0.055504           -1.51034
     67       0.00000          -0.004409           -0.11997
     68       0.00000          -0.003158           -0.08593
     69       0.00000           0.008000            0.21770
     70       0.00000           0.016909            0.46013
     71       0.00000           0.046751            1.27217
     72       0.00000           0.075377            2.05112
     73       0.00000           0.104031            2.83082
     74       0.00000           0.139839            3.80520
     75       0.00000           0.144418            3.92981
     76       0.00000           0.151333            4.11797
     77       0.00000           0.163166            4.43998
     78       0.00000           0.171572            4.66872
     79       0.00000           0.175712            4.78137
     80       0.00000           0.181650            4.94295
     81       0.00000           0.196171            5.33807
     82       0.00000           0.206391            5.61619
     83       0.00000           0.208120            5.66324
     84       0.00000           0.209194            5.69245
     85       0.00000           0.214092            5.82573
     86       0.00000           0.220893            6.01081
     87       0.00000           0.243001            6.61239
     88       0.00000           0.247564            6.73655
     89       0.00000           0.254836            6.93444
     90       0.00000           0.265292            7.21895
     91       0.00000           0.284389            7.73861
     92       0.00000           0.298141            8.11284
     93       0.00000           0.320217            8.71355
     94       0.00000           0.341652            9.29682
     95       0.00000           0.343377            9.34376
     96       0.00000           0.346183            9.42012

  Highest occupied state (VBM) at     -9.69974074 eV
  | Occupation number:      2.00000000

  Lowest unoccupied state (CBM) at    -6.14035695 eV
  | Occupation number:      0.00000000

  Overall HOMO-LUMO gap:      3.55938379 eV.
  | Chemical Potential                          :    -8.45338013 eV

  Self-consistency cycle converged.


------------------------------------------------------------
  End self-consistency iteration #    14       :  max(cpu_time)    wall_clock(cpu1)
  | Time for this iteration                     :        0.257 s           0.256 s
  | Charge density & force component update     :        0.136 s           0.136 s
  | Density mixing                              :        0.004 s           0.003 s
  | Hartree multipole update                    :        0.001 s           0.001 s
  | Hartree multipole summation                 :        0.050 s           0.050 s
  | Hartree pot. SCF incomplete forces          :        0.033 s           0.033 s
  | Integration                                 :        0.028 s           0.027 s
  | Solution of K.-S. eqns.                     :        0.004 s           0.004 s
  | Total energy evaluation                     :        0.000 s           0.000 s

  Partial memory accounting:
  | Current value for overall tracked memory usage:
  |   Minimum:        0.274 MB (on task 23)
  |   Maximum:        0.293 MB (on task  0)
  |   Average:        0.289 MB
  | Peak value for overall tracked memory usage:
  |   Minimum:        2.870 MB (on task 23 after allocating hessian_basis_wave)
  |   Maximum:        3.058 MB (on task 22 after allocating hessian_basis_wave)
  |   Average:        2.984 MB
  | Largest tracked array allocation so far:
  |   Minimum:        1.394 MB (hessian_basis_wave on task 23)
  |   Maximum:        1.503 MB (hessian_basis_wave on task 22)
  |   Average:        1.453 MB
  Note:  These values currently only include a subset of arrays which are explicitly tracked.
  The "true" memory usage will be greater.
------------------------------------------------------------
  Removing unitary transformations (pure translations, rotations) from forces on atoms.
  Atomic forces before filtering:
  | Net force on center of mass :   0.743207E-03  0.411054E-03  0.699859E-03 eV/A
  | Net torque on center of mass:  -0.224772E-02 -0.105005E-01 -0.668050E-03 eV
  Atomic forces after filtering:
  | Net force on center of mass :   0.178406E-14  0.142725E-14 -0.892031E-16 eV/A
  | Net torque on center of mass:  -0.755268E-15 -0.660859E-15  0.000000E+00 eV

  Energy and forces in a compact form:
  | Total energy uncorrected      :         -0.442189256962736E+05 eV
  | Total energy corrected        :         -0.442189256962736E+05 eV  <-- do not rely on this value for anything but (periodic) metals
  | Electronic free energy        :         -0.442189256962736E+05 eV
  Total atomic forces (unitary forces cleaned) [eV/Ang]:
  |    1         -0.604907904089710E-01         -0.129058946485843E+01          0.273251706204689E+01
  |    2          0.187744760239420E+01          0.176513534696955E+01         -0.339725407960822E+00
  |    3         -0.178493600021117E+01         -0.443602422219018E+00         -0.239819122211316E+01
  |    4          0.236989180696137E+01          0.207645095122096E+01         -0.967375986453451E-01
  |    5         -0.188229931295545E+01          0.273392371369861E+01          0.461125821158506E+00
  |    6         -0.566159615550045E+00         -0.169240257236398E+01          0.266177773498271E+01
  |    7          0.251124254167143E+01         -0.214280112742409E+01         -0.574714395323175E+00
  |    8         -0.306556312153152E+01         -0.288120237760056E+01          0.554626405162341E+00
  |    9         -0.151518485177370E+01          0.255392875121194E+01          0.155388380958046E+01
  |   10          0.214470969654406E+01         -0.196251136103463E+01         -0.166789412592304E+01
  |   11         -0.218842236380728E+01         -0.894761962247055E+00         -0.216345305506901E+01
  |   12          0.215976440866708E+01          0.217843252464670E+01         -0.723215027896356E+00

  ------------------------------------ 
  Start decomposition of the XC Energy 
  ------------------------------------ 
  X and C from original XC functional choice 
  Hartree-Fock Energy :          0.000000000 Ha              0.000000000 eV
  X Energy            :       -140.025601552 Ha          -3810.290483680 eV
  C Energy            :         -4.926683911 Ha           -134.061890219 eV
  Total XC Energy     :       -144.952285463 Ha          -3944.352373899 eV
  ------------------------------------ 
  LDA X and C from self-consistent density 
  X Energy LDA        :       -132.586148388 Ha          -3607.852663152 eV
  C Energy LDA        :         -8.813081513 Ha           -239.816149673 eV
  ------------------------------------ 
  End decomposition of the XC Energy 
  ------------------------------------ 

------------------------------------------------------------

------------------------------------------------------------------------------
  Final output of selected total energy values:

  The following output summarizes some interesting total energy values
  at the end of a run (AFTER all relaxation, molecular dynamics, etc.).

  | Total energy of the DFT / Hartree-Fock s.c.f. calculation      :         -44218.925696274 eV
  | Final zero-broadening corrected energy (caution - metals only) :         -44218.925696274 eV
  | For reference only, the value of 1 Hartree used in FHI-aims is :             27.211384500 eV

  Before relying on these values, please be sure to understand exactly which
  total energy value is referred to by a given number. Different objects may
  all carry the same name 'total energy'. Definitions:

  Total energy of the DFT / Hartree-Fock s.c.f. calculation:
  | Note that this energy does not include ANY quantities calculated after the
  | s.c.f. cycle, in particular not ANY RPA, MP2, etc. many-body perturbation terms.

  Final zero-broadening corrected energy:
  | For metallic systems only, a broadening of the occupation numbers at the Fermi
  | level can be extrapolated back to zero broadening by an electron-gas inspired
  | formula. For all systems that are not real metals, this value can be
  | meaningless and should be avoided.

------------------------------------------------------------------------------
  Methods described in the following list of references were used in this FHI-aims run.
  If you publish the results, please make sure to cite these reference if they apply.
  FHI-aims is an academic code, and for our developers (often, Ph.D. students
  and postdocs), scientific credit in the community is essential.
  Thank you for helping us!

  For any use of FHI-aims, please cite:

    Volker Blum, Ralf Gehrke, Felix Hanke, Paula Havu, Ville Havu,
    Xinguo Ren, Karsten Reuter, and Matthias Scheffler
    'Ab initio molecular simulations with numeric atom-centered orbitals'
    Computer Physics Communications 180, 2175-2196 (2009)
    http://dx.doi.org/10.1016/j.cpc.2009.06.022


  The ELSI infrastructure was used in your run to solve the Kohn-Sham electronic structure.
  Please check out http://elsi-interchange.org to learn more.
  If scalability is important for your project, please acknowledge ELSI by citing:

    V. W-z. Yu, F. Corsetti, A. Garcia, W. P. Huhn, M. Jacquelin, W. Jia,
    B. Lange, L. Lin, J. Lu, W. Mi, A. Seifitokaldani, A. Vazquez-Mayagoitia,
    C. Yang, H. Yang, and V. Blum
    'ELSI: A unified software interface for Kohn-Sham electronic structure solvers'
    Computer Physics Communications 222, 267-285 (2018).
    http://dx.doi.org/10.1016/j.cpc.2017.09.007


  For the real-space grid partitioning and parallelization used in this calculation, please cite:

    Ville Havu, Volker Blum, Paula Havu, and Matthias Scheffler,
    'Efficient O(N) integration for all-electron electronic structure calculation'
    'using numerically tabulated basis functions'
    Journal of Computational Physics 228, 8367-8379 (2009).
    http://dx.doi.org/10.1016/j.jcp.2009.08.008

  Of course, there are many other important community references, e.g., those cited in the
  above references. Our list is limited to references that describe implementations in the
  FHI-aims code. The reason is purely practical (length of this list) - please credit others as well.

------------------------------------------------------------
          Leaving FHI-aims.
          Date     :  20220517, Time     :  110131.740

          Computational steps:
          | Number of self-consistency cycles          :           14
          | Number of SCF (re)initializations          :            1

          Detailed time accounting                     :  max(cpu_time)    wall_clock(cpu1)
          | Total time                                  :        1.842 s           9.869 s
          | Preparation time                            :        0.185 s           0.186 s
          | Boundary condition initalization            :        0.000 s           0.000 s
          | Grid partitioning                           :        0.033 s           0.034 s
          | Preloading free-atom quantities on grid     :        0.014 s           0.014 s
          | Free-atom superposition energy              :        0.005 s           0.005 s
          | Total time for integrations                 :        0.430 s           0.426 s
          | Total time for solution of K.-S. equations  :        0.068 s           0.069 s
          | Total time for density & force components   :        0.606 s           0.606 s
          | Total time for mixing                       :        0.059 s           0.030 s
          | Total time for Hartree multipole update     :        0.018 s           0.019 s
          | Total time for Hartree multipole sum        :        0.300 s           0.299 s
          | Total time for total energy evaluation      :        0.002 s           0.002 s
          | Total time NSC force correction             :        0.067 s           0.067 s
          | Total time for scaled ZORA corrections      :        0.000 s           0.000 s

          Partial memory accounting:
          | Residual value for overall tracked memory usage across tasks:     0.000000 MB (should be 0.000000 MB)
          | Peak values for overall tracked memory usage:
          |   Minimum:        2.870 MB (on task 23 after allocating hessian_basis_wave)
          |   Maximum:        3.058 MB (on task 22 after allocating hessian_basis_wave)
          |   Average:        2.984 MB
          | Largest tracked array allocation:
          |   Minimum:        1.394 MB (hessian_basis_wave on task 23)
          |   Maximum:        1.503 MB (hessian_basis_wave on task 22)
          |   Average:        1.453 MB
          Note:  These values currently only include a subset of arrays which are explicitly tracked.
          The "true" memory usage will be greater.

          Have a nice day.
------------------------------------------------------------
