------------------------------------------------------------
          Invoking FHI-aims ...

          When using FHI-aims, please cite the following reference:

            Volker Blum, Ralf Gehrke, Felix Hanke, Paula Havu,
            Ville Havu, Xinguo Ren, Karsten Reuter, and Matthias Scheffler,
            'Ab Initio Molecular Simulations with Numeric Atom-Centered Orbitals',
            Computer Physics Communications 180, 2175-2196 (2009)

          In addition, many other developments in FHI-aims are likely important for
          your particular application. A partial list of references is given at the end of
          this file. Thank you for giving credit to the authors of these developments.

          For any questions about FHI-aims, please visit our slack channel at

            https://fhi-aims.slack.com

          and our main development and support site at

            https://aims-git.rz-berlin.mpg.de .

          The latter site, in particular, has a wiki to collect information, as well
          as an issue tracker to log discussions, suggest improvements, and report issues
          or bugs. https://aims-git.rz-berlin.mpg.de is also the main development site
          of the project and all new and updated code versions can be obtained there.
          Please send an email to aims-coordinators@fhi-berlin.mpg.de and we will add
          you to these sites. They are for you and everyone is welcome there.

------------------------------------------------------------



  Date     :  20220517, Time     :  122015.741
  Time zero on CPU 1             :   0.388560000000000E-01  s.
  Internal wall clock time zero  :           422022015.741  s.

  FHI-aims created a unique identifier for this run for later identification
  aims_uuid : 95FEF7E6-AB7C-449B-A699-639298D146A1

  Build configuration of the current instance of FHI-aims
  -------------------------------------------------------
  FHI-aims version      : 210914
  Commit number         : GITDIR-NOTFOUND
  CMake host system     : Linux-3.10.0-693.17.1.el7.x86_64
  CMake version         : 3.21.1
  Fortran compiler      : /shared/ucl/apps/intel/2018.Update3/impi/2018.3.222/intel64/bin/mpiifort (Intel) version 18.0.3.20180410
  Fortran compiler flags: -O3 -ip -fp-model precise
  C compiler            : /shared/ucl/apps/intel/2018.Update3/compilers_and_libraries_2018.3.222/linux/bin/intel64/icc (Intel) version 18.0.3.20180410
  C compiler flags      : -O3 -ip -fp-model precise -std=gnu99
  ELPA2 kernel          : AVX2
  Using MPI
  Using ScaLAPACK
  Using LibXC
  Using i-PI
  Using RLSY
  Linking against: /shared/ucl/apps/intel/2019.Update5/compilers_and_libraries_2019.5.281/linux/mkl/lib/intel64/libmkl_intel_lp64.so
                   /shared/ucl/apps/intel/2019.Update5/compilers_and_libraries_2019.5.281/linux/mkl/lib/intel64/libmkl_sequential.so
                   /shared/ucl/apps/intel/2019.Update5/compilers_and_libraries_2019.5.281/linux/mkl/lib/intel64/libmkl_core.so
                   /shared/ucl/apps/intel/2019.Update5/compilers_and_libraries_2019.5.281/linux/mkl/lib/intel64/libmkl_blacs_intelmpi_lp64.so
                   /shared/ucl/apps/intel/2019.Update5/compilers_and_libraries_2019.5.281/linux/mkl/lib/intel64/libmkl_scalapack_lp64.so

  Using       24 parallel tasks.
  Task        0 on host node-k98e-003 reporting.
  Task        1 on host node-k98e-003 reporting.
  Task        2 on host node-k98e-003 reporting.
  Task        3 on host node-k98e-003 reporting.
  Task        4 on host node-k98e-003 reporting.
  Task        5 on host node-k98e-003 reporting.
  Task        6 on host node-k98e-003 reporting.
  Task        7 on host node-k98e-003 reporting.
  Task        8 on host node-k98e-003 reporting.
  Task        9 on host node-k98e-003 reporting.
  Task       10 on host node-k98e-003 reporting.
  Task       11 on host node-k98e-003 reporting.
  Task       12 on host node-k98e-003 reporting.
  Task       13 on host node-k98e-003 reporting.
  Task       14 on host node-k98e-003 reporting.
  Task       15 on host node-k98e-003 reporting.
  Task       16 on host node-k98e-003 reporting.
  Task       17 on host node-k98e-003 reporting.
  Task       18 on host node-k98e-003 reporting.
  Task       19 on host node-k98e-003 reporting.
  Task       20 on host node-k98e-003 reporting.
  Task       21 on host node-k98e-003 reporting.
  Task       22 on host node-k98e-003 reporting.
  Task       23 on host node-k98e-003 reporting.

  Performing system and environment tests:
  | Environment variable OMP_NUM_THREADS correctly set to 1.
  | Checking for ScaLAPACK...
  | Testing pdtran()...
  | All pdtran() tests passed.

  Obtaining array dimensions for all initial allocations:
  
  -----------------------------------------------------------------------
  Parsing control.in (first pass over file, find array dimensions only).
  The contents of control.in will be repeated verbatim below
  unless switched off by setting 'verbatim_writeout .false.' .
  in the first line of control.in .
  -----------------------------------------------------------------------
  
  #########################################################################################  Physical model
  #########################################################################################
  xc                 pbesol
  spin               none
  relativistic       atomic_zora scalar
  charge             0.0
  #  SCF convergence
  occupation_type    gaussian 0.01
  mixer              pulay
  n_max_pulay        10
  charge_mix_param   0.5
  sc_accuracy_rho    1E-5
  sc_accuracy_eev    1E-3
  sc_accuracy_etot   1E-6
  sc_accuracy_forces 1E-4
  sc_iter_limit      1500
  #  Relaxation
  #relax_geometry   bfgs 1.e-3
  
  ################################################################################
  #
  #  FHI-aims code project
  #  VB, Fritz-Haber Institut, 2009
  #
  #  Suggested "light" defaults for Al atom (to be pasted into control.in file)
  #  Be sure to double-check any results obtained with these settings for post-processing,
  #  e.g., with the "tight" defaults and larger basis sets.
  #
  ################################################################################
    species        Al
  #     global species definitions
      nucleus             13
      mass                26.9815386
  #
      l_hartree           4
  #
      cut_pot             3.5          1.5  1.0
      basis_dep_cutoff    1e-4
  #
      radial_base         41 5.0
      radial_multiplier   1
      angular_grids       specified
        division   0.6594  110
        division   0.8170  194
        division   0.9059  302
  #      division   1.0363  434
  #      division   1.1443  590
  #      division   1.2621  770
  #      division   2.8177  974
  #      outer_grid   974
        outer_grid   302
  ################################################################################
  #
  #  Definition of "minimal" basis
  #
  ################################################################################
  #     valence basis states
      valence      3  s   2.
      valence      3  p   1.
  #     ion occupancy
      ion_occ      3  s   1.
      ion_occ      2  p   6.
  ################################################################################
  #
  #  Suggested additional basis functions. For production calculations,
  #  uncomment them one after another (the most important basis functions are
  #  listed first).
  #
  #  Constructed for dimers: 2.0 A, 2.5 A, 3.0 A, 3.75 A, 4.5 A
  #
  ################################################################################
  #  "First tier" - improvements: -199.47 meV to -10.63 meV
       ionic 3 d auto
       ionic 3 p auto
  #     hydro 4 f 4.7
       ionic 3 s auto
  #  "Second tier" - improvements: -5.35 meV to -1.57 meV
  #     hydro 5 g 7
  #     hydro 3 d 6
  #     hydro 2 s 11.6
  #     hydro 2 p 0.9
  #  "Third tier" - improvements: -0.63 meV to -0.20 meV
  #     hydro 5 f 7.6
  #     hydro 4 p 7.2
  #     hydro 4 s 3.7
  #     hydro 4 d 7.6
  #  "Fourth tier" - improvements: -0.17 meV to -0.08 meV
  #     hydro 4 d 13.6
  #     hydro 5 g 11.2
  #     hydro 4 d 0.9
  #     hydro 1 s 0.4
  #     hydro 4 p 0.1
  #     hydro 5 f 9.8
  #  Further basis functions that fell out of the optimization - noise level...
  #     hydro 4 p 5
  
  ################################################################################
  #
  #  FHI-aims code project
  #  VB, Fritz-Haber Institut, 2009
  #
  #  Suggested "light" defaults for F atom (to be pasted into control.in file)
  #  Be sure to double-check any results obtained with these settings for post-processing,
  #  e.g., with the "tight" defaults and larger basis sets.
  #
  ################################################################################
    species        F
  #     global species definitions
      nucleus             9
      mass                18.9984032
  #
      l_hartree           4
  #
      cut_pot             3.5  1.5  1.0
      basis_dep_cutoff    1e-4
  #
      radial_base         37 5.0
      radial_multiplier   1
      angular_grids specified
        division   0.4014  110
        division   0.5291  194
        division   0.6019  302
  #      division   0.6814  434
  #      division   0.7989  590
  #      division   0.8965  770
  #      division   1.3427  974
  #      outer_grid   974
        outer_grid   302
  ################################################################################
  #
  #  Definition of "minimal" basis
  #
  ################################################################################
  #     valence basis states
      valence      2  s   2.
      valence      2  p   5.
  #     ion occupancy
      ion_occ      2  s   1.
      ion_occ      2  p   4.
  ################################################################################
  #
  #  Suggested additional basis functions. For production calculations,
  #  uncomment them one after another (the most important basis functions are
  #  listed first).
  #
  #  Constructed for dimers: 1.2 A, 1.418 A, 1.75 A, 2.25 A, 3.25 A
  #
  ################################################################################
  #  "First tier" - improvements: -149.44 meV to -45.88 meV
       hydro 2 p 1.7
       hydro 3 d 7.4
       hydro 3 s 6.8
  #  "Second tier" - improvements: -12.96 meV to -1.56 meV
  #     hydro 4 f 11.2
  #     ionic 2 p auto
  #     hydro 1 s 0.75
  #     hydro 4 d 8.8
  #     hydro 5 g 16.8
  #  "Third tier" - improvements: -0.58 meV to -0.05 meV
  #     hydro 3 p 6.2
  #     hydro 3 s 3.2
  #     hydro 4 f 9.6
  #     hydro 3 s 19.6
  #     hydro 4 d 8.6
  #     hydro 5 g 14.4
  # Further basis functions: -0.05 meV and below
  #     hydro 3 p 4.2
  
  -----------------------------------------------------------------------
  Completed first pass over input file control.in .
  -----------------------------------------------------------------------
  
  
  -----------------------------------------------------------------------
  Parsing geometry.in (first pass over file, find array dimensions only).
  The contents of geometry.in will be repeated verbatim below
  unless switched off by setting 'verbatim_writeout .false.' .
  in the first line of geometry.in .
  -----------------------------------------------------------------------
  
  atom -1.697765189 2.560475085 -1.227390806 Al
  atom -0.501263970 0.008793604 -2.379055356 Al
  atom -2.230115786 -0.342967312 -0.481971249 Al
  atom -0.754187880 3.690213511 -0.158010973 F
  atom -3.013638370 3.168897866 -2.313758119 F
  atom -1.376272688 -1.544883837 -1.695631354 F
  atom -2.496569880 1.431395310 0.005103985 F
  atom -3.289303530 -1.343715746 0.647122964 F
  atom 0.667815890 -0.538580060 -3.695058600 F
  atom -0.375904893 1.862876522 -2.321920122 F
  atom -2.450149957 0.466779551 -2.301271428 F
  atom -0.313124563 0.146463580 -0.413149788 F
  
  -----------------------------------------------------------------------
  Completed first pass over input file geometry.in .
  -----------------------------------------------------------------------
  

  Basic array size parameters:
  | Number of species                 :        2
  | Number of atoms                   :       12
  | Max. basis fn. angular momentum   :        2
  | Max. atomic/ionic basis occupied n:        3
  | Max. number of basis fn. types    :        3
  | Max. radial fns per species/type  :        5
  | Max. logarithmic grid size        :     1340
  | Max. radial integration grid size :       41
  | Max. angular integration grid size:      302
  | Max. angular grid division number :        8
  | Radial grid for Hartree potential :     1340
  | Number of spin channels           :        1

------------------------------------------------------------
          Reading file control.in.
------------------------------------------------------------
  XC: Using PBEsol gradient-corrected functionals.
  Spin treatment: No spin polarisation.
  Scalar relativistic treatment of kinetic energy: on-site free-atom approximation to ZORA.
  Charge =   0.000000E+00: Neutral system requested explicitly.
  Occupation type: Gaussian broadening, width =   0.100000E-01 eV.
  Using pulay charge density mixing.
  Pulay mixing - number of memorized iterations:   10
  Charge density mixing - mixing parameter:     0.5000
  Convergence accuracy of self-consistent charge density:  0.1000E-04
  Convergence accuracy of sum of eigenvalues:  0.1000E-02
  Convergence accuracy of total energy:  0.1000E-05
  Convergence accuracy of forces:  0.1000E-03
  Maximum number of s.-c. iterations  :  1500
 
  Reading configuration options for species Al                  .
  | Found nuclear charge :  13.0000
  | Found atomic mass :    26.9815386000000      amu
  | Found l_max for Hartree potential  :   4
  | Found cutoff potl. onset [A], width [A], scale factor :    3.50000    1.50000    1.00000
  | Threshold for basis-dependent cutoff potential is   0.100000E-03
  | Found data for basic radial integration grid :    41 points, outermost radius =    5.000 A
  | Found multiplier for basic radial grid :   1
  | Found angular grid specification: user-specified.
  | Specified grid contains     4 separate shells.
  | Check grid settings after all constraints further below.
  | Found free-atom valence shell :  3 s   2.000
  | Found free-atom valence shell :  3 p   1.000
  | Found free-ion valence shell :  3 s   1.000
  | Found free-ion valence shell :  2 p   6.000
  | Found ionic basis function :  3 d , default cutoff radius.
  | Found ionic basis function :  3 p , default cutoff radius.
  | Found ionic basis function :  3 s , default cutoff radius.
  Species Al                  : Missing cutoff potential type.
  Defaulting to exp(1/x)/(1-x)^2 type cutoff potential.
  Species Al: No 'logarithmic' tag. Using default grid for free atom:
  | Default logarithmic grid data [bohr] : 0.1000E-03 0.1000E+03 0.1012E+01
  | Will include ionic basis functions of  2.0-fold positive Al                   ion.
  Species Al: On-site basis accuracy parameter (for Gram-Schmidt orthonormalisation) not specified.
  Using default value basis_acc =  0.1000000E-03.
  Species Al                  : Using default innermost maximum threshold i_radial=  2 for radial functions.
  Species Al                  : Default cutoff onset for free atom density etc. : 0.35000000E+01 AA.
  Species Al                  : Basic radial grid will be enhanced according to radial_multiplier =   1, to contain    41 grid points.
 
  Reading configuration options for species F                   .
  | Found nuclear charge :   9.0000
  | Found atomic mass :    18.9984032000000      amu
  | Found l_max for Hartree potential  :   4
  | Found cutoff potl. onset [A], width [A], scale factor :    3.50000    1.50000    1.00000
  | Threshold for basis-dependent cutoff potential is   0.100000E-03
  | Found data for basic radial integration grid :    37 points, outermost radius =    5.000 A
  | Found multiplier for basic radial grid :   1
  | Found angular grid specification: user-specified.
  | Specified grid contains     4 separate shells.
  | Check grid settings after all constraints further below.
  | Found free-atom valence shell :  2 s   2.000
  | Found free-atom valence shell :  2 p   5.000
  | Found free-ion valence shell :  2 s   1.000
  | Found free-ion valence shell :  2 p   4.000
  | Found hydrogenic basis function :  2 p   1.700
  | Found hydrogenic basis function :  3 d   7.400
  | Found hydrogenic basis function :  3 s   6.800
  Species F                   : Missing cutoff potential type.
  Defaulting to exp(1/x)/(1-x)^2 type cutoff potential.
  Species F : No 'logarithmic' tag. Using default grid for free atom:
  | Default logarithmic grid data [bohr] : 0.1000E-03 0.1000E+03 0.1012E+01
  Species F : On-site basis accuracy parameter (for Gram-Schmidt orthonormalisation) not specified.
  Using default value basis_acc =  0.1000000E-03.
  Species F                   : Using default innermost maximum threshold i_radial=  2 for radial functions.
  Species F                   : Default cutoff onset for free atom density etc. : 0.35000000E+01 AA.
  Species F                   : Basic radial grid will be enhanced according to radial_multiplier =   1, to contain    37 grid points.
 
  Finished reading input file 'control.in'.
 
------------------------------------------------------------


------------------------------------------------------------
          Reading geometry description geometry.in.
------------------------------------------------------------
  | The smallest distance between any two atoms is         1.81159997 AA.
  | The first atom of this pair is atom number                      1 .
  | The second atom of this pair is atom number                     5 .
  Input structure read successfully.
  The structure contains       12 atoms,  and a total of        120.000 electrons.

  Input geometry:
  | No unit cell requested.
  | Atomic structure:
  |       Atom                x [A]            y [A]            z [A]
  |    1: Species Al           -1.69776519        2.56047509       -1.22739081
  |    2: Species Al           -0.50126397        0.00879360       -2.37905536
  |    3: Species Al           -2.23011579       -0.34296731       -0.48197125
  |    4: Species F            -0.75418788        3.69021351       -0.15801097
  |    5: Species F            -3.01363837        3.16889787       -2.31375812
  |    6: Species F            -1.37627269       -1.54488384       -1.69563135
  |    7: Species F            -2.49656988        1.43139531        0.00510399
  |    8: Species F            -3.28930353       -1.34371575        0.64712296
  |    9: Species F             0.66781589       -0.53858006       -3.69505860
  |   10: Species F            -0.37590489        1.86287652       -2.32192012
  |   11: Species F            -2.45014996        0.46677955       -2.30127143
  |   12: Species F            -0.31312456        0.14646358       -0.41314979

 
  Finished reading input file 'control.in'.
 

------------------------------------------------------------
          Reading geometry description geometry.in.
------------------------------------------------------------
 
  Consistency checks for stacksize environment parameter are next.
 
  | Maximum stacksize for task 0: unlimited
  | Maximum stacksize for task 1: unlimited
  | Maximum stacksize for task 2: unlimited
  | Maximum stacksize for task 3: unlimited
  | Maximum stacksize for task 4: unlimited
  | Maximum stacksize for task 5: unlimited
  | Maximum stacksize for task 6: unlimited
  | Maximum stacksize for task 7: unlimited
  | Maximum stacksize for task 8: unlimited
  | Maximum stacksize for task 9: unlimited
  | Maximum stacksize for task 10: unlimited
  | Maximum stacksize for task 11: unlimited
  | Maximum stacksize for task 12: unlimited
  | Maximum stacksize for task 13: unlimited
  | Maximum stacksize for task 14: unlimited
  | Maximum stacksize for task 15: unlimited
  | Maximum stacksize for task 16: unlimited
  | Maximum stacksize for task 17: unlimited
  | Maximum stacksize for task 18: unlimited
  | Maximum stacksize for task 19: unlimited
  | Maximum stacksize for task 20: unlimited
  | Maximum stacksize for task 21: unlimited
  | Maximum stacksize for task 22: unlimited
  | Maximum stacksize for task 23: unlimited
  | Current stacksize for task 0: unlimited
  | Current stacksize for task 1: unlimited
  | Current stacksize for task 2: unlimited
  | Current stacksize for task 3: unlimited
  | Current stacksize for task 4: unlimited
  | Current stacksize for task 5: unlimited
  | Current stacksize for task 6: unlimited
  | Current stacksize for task 7: unlimited
  | Current stacksize for task 8: unlimited
  | Current stacksize for task 9: unlimited
  | Current stacksize for task 10: unlimited
  | Current stacksize for task 11: unlimited
  | Current stacksize for task 12: unlimited
  | Current stacksize for task 13: unlimited
  | Current stacksize for task 14: unlimited
  | Current stacksize for task 15: unlimited
  | Current stacksize for task 16: unlimited
  | Current stacksize for task 17: unlimited
  | Current stacksize for task 18: unlimited
  | Current stacksize for task 19: unlimited
  | Current stacksize for task 20: unlimited
  | Current stacksize for task 21: unlimited
  | Current stacksize for task 22: unlimited
  | Current stacksize for task 23: unlimited
 
  Consistency checks for the contents of control.in are next.
 
  MPI_IN_PLACE appears to work with this MPI implementation.
  | Keeping use_mpi_in_place .true. (see manual).
  Target number of points in a grid batch is not set. Defaulting to  100
  Method for grid partitioning is not set. Defaulting to parallel hash+maxmin partitioning.
  Batch size limit is not set. Defaulting to    200
  By default, will store active basis functions for each batch.
  If in need of memory, prune_basis_once .false. can be used to disable this option.
  communication_type for Hartree potential was not specified.
  Defaulting to calc_hartree .
  Pulay mixer: Number of initial linear mixing iterations not set.
  Defaulting to    0 iterations.
  Work space size for distributed Hartree potential not set.
  Defaulting to   0.200000E+03 MB.
  Algorithm-dependent basis array size parameters:
  | n_max_pulay                         :       10
  Presetting      1001 iterations before the initial mixing cycle
  is restarted anyway using the sc_init_iter criterion / keyword.
  Presetting a factor      1.000 between actual scf density residual
  and density convergence criterion sc_accuracy_rho below which sc_init_iter
  takes no effect.
  Geometry relaxation not requested: no relaxation will be performed.
  Forces evaluation will include force correction term due to incomplete self-consistency (default).
  Handling of forces: Unphysical translation and rotation will be removed from forces.
  No accuracy limit for integral partition fn. given. Defaulting to  0.1000E-14.
  No threshold value for u(r) in integrations given. Defaulting to  0.1000E-05.
  No accuracy for occupation numbers given. Defaulting to  0.1000E-12.
  No threshold value for occupation numbers given. Defaulting to  0.0000E+00.
  No accuracy for fermi level given. Defaulting to  0.1000E-19.
  Maximum # of iterations to find E_F not set. Defaulting to  200.
  Preferred method for the eigenvalue solver ('KS_method') not specified in 'control.in'.
  Calling BLACS routine to test compilation state
  Since ScaLAPACK support is enabled, defaulting to ELPA (via ELSI).
  Will not use alltoall communication since running on < 1024 CPUs.
  Threshold for basis singularities not set.
  Default threshold for basis singularities:  0.1000E-04
  partition_type (choice of integration weights) for integrals was not specified.
  | Using a version of the partition function of Stratmann and coworkers ('stratmann_sparse').
  | At each grid point, the set of atoms used to build the partition table is smoothly restricted to
  | only those atoms whose free-atom density would be non-zero at that grid point.
  Partitioning for Hartree potential was not defined. Using partition_type for integrals.
  | Adjusted default value of keyword multip_moments_threshold to:       0.10000000E-11
  | This value may affect high angular momentum components of the Hartree potential in periodic systems.
  No q(lm)/r^(l+1) cutoff set for long-range Hartree potential.
  | Using default value of  0.100000E-09 .
  | Verify using the multipole_threshold keyword.
  Defaulting to new monopole extrapolation.
  Density update method: automatic selection selected.
  Charge integration errors on the 3D integration grid will be compensated
  by explicit normalization and distribution of residual charges.
  Use the "compensate_multipole_errors" flag to change this behaviour.
  Set 'collect_eigenvectors' to be '.true.' for use_density_matrix .false.
 
  Consistency checks for the contents of geometry.in are next.
 
  Number of empty states per atom not set in control.in - providing a guess from actual geometry.
  | Total number of empty states used during s.c.f. cycle:       36
  If you use a very high smearing, use empty_states (per atom!) in control.in to increase this value.

  Structure-dependent array size parameters: 
  | Maximum number of distinct radial functions  :       14
  | Maximum number of basis functions            :      180
  | Number of Kohn-Sham states (occupied + empty):       96
------------------------------------------------------------

------------------------------------------------------------
          Preparing all fixed parts of the calculation.
------------------------------------------------------------
  Determining machine precision:
    2.225073858507201E-308
  Setting up grids for atomic and cluster calculations.

  Creating wave function, potential, and density for free atoms.

  Species: Al

  List of occupied orbitals and eigenvalues:
    n    l              occ      energy [Ha]    energy [eV]
    1    0           2.0000       -55.621123     -1513.5278
    2    0           2.0000        -3.957030      -107.6763
    3    0           2.0000        -0.272233        -7.4078
    2    1           6.0000        -2.540949       -69.1427
    3    1           1.0000        -0.083300        -2.2667


  Species: F

  List of occupied orbitals and eigenvalues:
    n    l              occ      energy [Ha]    energy [eV]
    1    0           2.0000       -24.399611      -663.9472
    2    0           2.0000        -1.098702       -29.8972
    2    1           5.0000        -0.408210       -11.1080


  Adding cutoff potential to free-atom effective potential.
  Creating fixed part of basis set: Ionic, confined, hydrogenic.
 
  Al                   ion:

  List of free ionic orbitals and eigenvalues:
    n    l      energy [Ha]    energy [eV]
    1    0       -56.418846     -1535.2349
    2    0        -4.732717      -128.7838
    3    0        -0.872690       -23.7471
    2    1        -3.317230       -90.2664


  List of ionic basis orbitals and eigenvalues:
    n    l      energy [Ha]    energy [eV]    outer radius [A]
    3    2        -0.346815        -9.4373       4.594041
    3    1        -0.631870       -17.1940       4.538221
    3    0        -0.872657       -23.7462       4.538221

 
  F                    hydrogenic:
 
  List of hydrogenic basis orbitals: 
    n    l      effective z      eigenvalue [eV]  inner max. [A]     outer max. [A]     outer radius [A]   
    2    1         1.700000        -9.7616           1.243167           1.243167           4.598524
    3    2         7.400000       -82.7828           0.642437           0.642437           3.305741
    3    0         6.800000       -69.9026           0.057798           1.022307           3.781556
 
  Creating atomic-like basis functions for current effective potential.

  Species Al                  :

  List of atomic basis orbitals and eigenvalues:
    n    l      energy [Ha]    energy [eV]    outer radius [A]
    1    0       -55.621123     -1513.5278       0.850197
    2    0        -3.957030      -107.6763       3.144911
    3    0        -0.272233        -7.4078       4.594041
    2    1        -2.540949       -69.1427       3.731966
    3    1        -0.083300        -2.2667       4.594041


  Species F                   :

  List of atomic basis orbitals and eigenvalues:
    n    l      energy [Ha]    energy [eV]    outer radius [A]
    1    0       -24.399611      -663.9472       1.258458
    2    0        -1.098702       -29.8972       4.325857
    2    1        -0.408210       -11.1080       4.487453

  Assembling full basis from fixed parts.
  | Species Al :   atomic orbital   1 s accepted.
  | Species Al :   atomic orbital   2 s accepted.
  | Species Al :    ionic orbital   3 s accepted.
  | Species Al :   atomic orbital   3 s accepted.
  | Species Al :   atomic orbital   2 p accepted.
  | Species Al :    ionic orbital   3 p accepted.
  | Species Al :   atomic orbital   3 p accepted.
  | Species Al :    ionic orbital   3 d accepted.
  | Species F :   atomic orbital   1 s accepted.
  | Species F :    hydro orbital   3 s accepted.
  | Species F :   atomic orbital   2 s accepted.
  | Species F :   atomic orbital   2 p accepted.
  | Species F :    hydro orbital   2 p accepted.
  | Species F :    hydro orbital   3 d accepted.
 
  Basis size parameters after reduction:
  | Total number of radial functions:       14
  | Total number of basis functions :      180
 
  Per-task memory consumption for arrays in subroutine allocate_ext:
  |           4.807768MB.
  Testing on-site integration grid accuracy.
  |  Species  Function  <phi|h_atom|phi> (log., in eV)  <phi|h_atom|phi> (rad., in eV)
           1        1              -1513.5277717935              -1513.5271881332
           1        2               -107.6762691836               -107.6762662489
           1        3                 -6.9467474784                 -6.9471269649
           1        4                  5.5771951849                  5.4862107220 ***
           1        5                -69.1427313144                -69.1427312731
           1        6                 -1.5197375330                 -1.5230432022
           1        7                  6.8210948310                  6.5529872240 ***
           1        8                  4.3216540965                  4.2851170187 ***
           2        9               -663.9471986398               -663.9470363334
           2       10                 16.8514011578                 16.8512525338
           2       11                -28.4490593856                -28.4490661472
           2       12                -11.1080115307                -11.1080620173
           2       13                  7.1940182175                  7.1685154137
           2       14                 44.8544281765                 44.8543763625
 * Note: Onsite integrals marked "***" above are less accurate than
 * onsite_accuracy_threshold =    0.03000 eV. Usually, this is harmless.
 * When in doubt, tighten the "radial" and/or "radial_multiplier" flags to check.

  Preparing densities etc. for the partition functions (integrals / Hartree potential).

  Preparations completed.
  max(cpu_time)          :      0.184 s.
  Wall clock time (cpu1) :      0.184 s.
------------------------------------------------------------

------------------------------------------------------------
          Begin self-consistency loop: Initialization.

          Date     :  20220517, Time     :  122015.970
------------------------------------------------------------

  Initializing index lists of integration centers etc. from given atomic structure:
  | Number of centers in hartree potential         :        12
  | Number of centers in hartree multipole         :        12
  | Number of centers in electron density summation:        12
  | Number of centers in basis integrals           :        12
  | Number of centers in integrals                 :        12
  | Number of centers in hamiltonian               :        12
  * Using 24 tasks for Scalapack Eigenvalue solver.
  Detailed listing of tasks and assigned k-points:
  (for non-periodic systems, the "k-point" denotes an internal label only)
   Task     0 k-point     1 on node-k98e-003
   Task     1 k-point     1 on node-k98e-003
   Task     2 k-point     1 on node-k98e-003
   Task     3 k-point     1 on node-k98e-003
   Task     4 k-point     1 on node-k98e-003
   Task     5 k-point     1 on node-k98e-003
   Task     6 k-point     1 on node-k98e-003
   Task     7 k-point     1 on node-k98e-003
   Task     8 k-point     1 on node-k98e-003
   Task     9 k-point     1 on node-k98e-003
   Task    10 k-point     1 on node-k98e-003
   Task    11 k-point     1 on node-k98e-003
   Task    12 k-point     1 on node-k98e-003
   Task    13 k-point     1 on node-k98e-003
   Task    14 k-point     1 on node-k98e-003
   Task    15 k-point     1 on node-k98e-003
   Task    16 k-point     1 on node-k98e-003
   Task    17 k-point     1 on node-k98e-003
   Task    18 k-point     1 on node-k98e-003
   Task    19 k-point     1 on node-k98e-003
   Task    20 k-point     1 on node-k98e-003
   Task    21 k-point     1 on node-k98e-003
   Task    22 k-point     1 on node-k98e-003
   Task    23 k-point     1 on node-k98e-003
  Tasks:    24 split into      6 X      4 BLACS grid
  Calculating block size based on n_basis =          180  max_nprow =            6  max_npcol =            4
  ScaLAPACK block size set to:           16
  Allocating        0.012 MB for ovlp
  Allocating        0.012 MB for ham
  Allocating        0.012 MB for eigenvec
  Required Scalapack workspace - INTEGER:            1  REAL:             1
  Partitioning the integration grid into batches with parallel hashing+maxmin method.
  | Number of batches:     1056
  | Maximal batch size:     186
  | Minimal batch size:      40
  | Average batch size:      87.045
  | Standard deviation of batch sizes:      20.689

  Integration load balanced across    24 MPI tasks.
  Work distribution over tasks is as follows:
  Task     0 has       3815 integration points.
  Task     1 has       3824 integration points.
  Task     2 has       3875 integration points.
  Task     3 has       3887 integration points.
  Task     4 has       3843 integration points.
  Task     5 has       3858 integration points.
  Task     6 has       3864 integration points.
  Task     7 has       3849 integration points.
  Task     8 has       3811 integration points.
  Task     9 has       3810 integration points.
  Task    10 has       3786 integration points.
  Task    11 has       3832 integration points.
  Task    12 has       3866 integration points.
  Task    13 has       3856 integration points.
  Task    14 has       3773 integration points.
  Task    15 has       3776 integration points.
  Task    16 has       3855 integration points.
  Task    17 has       3772 integration points.
  Task    18 has       3780 integration points.
  Task    19 has       3865 integration points.
  Task    20 has       3870 integration points.
  Task    21 has       3801 integration points.
  Task    22 has       3849 integration points.
  Task    23 has       3803 integration points.
  Initializing partition tables, free-atom densities, potentials, etc. across the integration grid (initialize_grid_storage).
  | initialize_grid_storage: Actual outermost partition radius vs. multipole_radius_free
  | (-- VB: in principle, multipole_radius_free should be larger, hence this output)
  | Species        1: Confinement radius =              4.999999999999999 AA, multipole_radius_free =              5.004487022111096 AA.
  | Species        1: outer_partition_radius set to              5.004487022111096 AA .
  | Species        2: Confinement radius =              4.999999999999999 AA, multipole_radius_free =              5.009370088163274 AA.
  | Species        2: outer_partition_radius set to              5.009370088163274 AA .
  | The sparse table of interatomic distances needs          1.64 kbyte instead of         1.15 kbyte of memory.
  | Using the partition_type stratmann_smoother will reduce your memory usage.
  | Net number of integration points:    91920
  | of which are non-zero points    :    84922
  Renormalizing the initial density to the exact electron count on the 3D integration grid.
  | Initial density: Formal number of electrons (from input files) :     120.0000000000
  | Integrated number of electrons on 3D grid     :     119.9999416359
  | Charge integration error                      :      -0.0000583641
  | Normalization factor for density and gradient :       1.0000004864
  Renormalizing the free-atom superposition density to the exact electron count on the 3D integration grid.
  | Formal number of electrons (from input files) :     120.0000000000
  | Integrated number of electrons on 3D grid     :     119.9999416359
  | Charge integration error                      :      -0.0000583641
  | Normalization factor for density and gradient :       1.0000004864
  Obtaining max. number of non-zero basis functions in each batch (get_n_compute_maxes).
  | Maximal number of non-zero basis functions:      164 in task     0
  | Maximal number of non-zero basis functions:      163 in task     1
  | Maximal number of non-zero basis functions:      166 in task     2
  | Maximal number of non-zero basis functions:      163 in task     3
  | Maximal number of non-zero basis functions:      165 in task     4
  | Maximal number of non-zero basis functions:      164 in task     5
  | Maximal number of non-zero basis functions:      164 in task     6
  | Maximal number of non-zero basis functions:      172 in task     7
  | Maximal number of non-zero basis functions:      171 in task     8
  | Maximal number of non-zero basis functions:      171 in task     9
  | Maximal number of non-zero basis functions:      164 in task    10
  | Maximal number of non-zero basis functions:      167 in task    11
  | Maximal number of non-zero basis functions:      170 in task    12
  | Maximal number of non-zero basis functions:      171 in task    13
  | Maximal number of non-zero basis functions:      167 in task    14
  | Maximal number of non-zero basis functions:      170 in task    15
  | Maximal number of non-zero basis functions:      164 in task    16
  | Maximal number of non-zero basis functions:      166 in task    17
  | Maximal number of non-zero basis functions:      169 in task    18
  | Maximal number of non-zero basis functions:      165 in task    19
  | Maximal number of non-zero basis functions:      172 in task    20
  | Maximal number of non-zero basis functions:      172 in task    21
  | Maximal number of non-zero basis functions:      165 in task    22
  | Maximal number of non-zero basis functions:      165 in task    23
  Selecting the method for density update.
  Loop over occupied states selected for charge density update.
  Allocating        0.132 MB for KS_eigenvector
  Integrating Hamiltonian matrix: batch-based integration.
  Time summed over all CPUs for integration: real work        0.759 s, elapsed        0.803 s
  Integrating overlap matrix.
  Time summed over all CPUs for integration: real work        0.296 s, elapsed        0.321 s
  Deallocating overlap matrix.

  Updating Kohn-Sham eigenvalues and eigenvectors using ELSI and the ELPA eigensolver.
  Overlap matrix is not singular
  | Lowest and highest eigenvalues :  0.2347E-02,  0.5850E+01
  Finished singularity check of overlap matrix
  | Time :     0.004 s
  Starting ELPA eigensolver
  Finished Cholesky decomposition
  | Time :     0.002 s
  Finished transformation to standard eigenproblem
  | Time :     0.001 s
  Finished solving standard eigenproblem
  | Time :     0.003 s
  Finished back-transformation of eigenvectors
  | Time :     0.000 s

  Obtaining occupation numbers and chemical potential using ELSI.
  | Chemical potential (Fermi level):    -7.59423597 eV
  Writing Kohn-Sham eigenvalues.

  State    Occupation    Eigenvalue [Ha]    Eigenvalue [eV]
      1       2.00000         -55.485981        -1509.85038
      2       2.00000         -55.485981        -1509.85037
      3       2.00000         -55.483996        -1509.79635
      4       2.00000         -24.370930         -663.16674
      5       2.00000         -24.370930         -663.16674
      6       2.00000         -24.360596         -662.88556
      7       2.00000         -24.350900         -662.62170
      8       2.00000         -24.350263         -662.60436
      9       2.00000         -24.341111         -662.35534
     10       2.00000         -24.340186         -662.33015
     11       2.00000         -24.337483         -662.25660
     12       2.00000         -24.337483         -662.25660
     13       2.00000          -3.951596         -107.52839
     14       2.00000          -3.951513         -107.52614
     15       2.00000          -3.949397         -107.46856
     16       2.00000          -2.545256          -69.25993
     17       2.00000          -2.544433          -69.23755
     18       2.00000          -2.543654          -69.21634
     19       2.00000          -2.543536          -69.21314
     20       2.00000          -2.541840          -69.16699
     21       2.00000          -2.541747          -69.16445
     22       2.00000          -2.541625          -69.16113
     23       2.00000          -2.541184          -69.14913
     24       2.00000          -2.541114          -69.14722
     25       2.00000          -1.203365          -32.74522
     26       2.00000          -1.193534          -32.47772
     27       2.00000          -1.188059          -32.32874
     28       2.00000          -1.166321          -31.73720
     29       2.00000          -1.160143          -31.56909
     30       2.00000          -1.150348          -31.30256
     31       2.00000          -1.147662          -31.22947
     32       2.00000          -1.144683          -31.14842
     33       2.00000          -1.144505          -31.14357
     34       2.00000          -0.572430          -15.57661
     35       2.00000          -0.560576          -15.25405
     36       2.00000          -0.558423          -15.19545
     37       2.00000          -0.536405          -14.59632
     38       2.00000          -0.528733          -14.38755
     39       2.00000          -0.516783          -14.06237
     40       2.00000          -0.515123          -14.01722
     41       2.00000          -0.510211          -13.88355
     42       2.00000          -0.503123          -13.69066
     43       2.00000          -0.496227          -13.50302
     44       2.00000          -0.486364          -13.23464
     45       2.00000          -0.482565          -13.13126
     46       2.00000          -0.480914          -13.08633
     47       2.00000          -0.475162          -12.92981
     48       2.00000          -0.470563          -12.80468
     49       2.00000          -0.469811          -12.78421
     50       2.00000          -0.465828          -12.67583
     51       2.00000          -0.460627          -12.53430
     52       2.00000          -0.452087          -12.30190
     53       2.00000          -0.450376          -12.25537
     54       2.00000          -0.448885          -12.21478
     55       2.00000          -0.448646          -12.20827
     56       2.00000          -0.448418          -12.20208
     57       2.00000          -0.448209          -12.19638
     58       2.00000          -0.446237          -12.14274
     59       2.00000          -0.446183          -12.14125
     60       2.00000          -0.439684          -11.96442
     61       0.00000          -0.134958           -3.67240
     62       0.00000          -0.080940           -2.20249
     63       0.00000          -0.076553           -2.08311
     64       0.00000          -0.029455           -0.80152
     65       0.00000          -0.004986           -0.13567
     66       0.00000           0.001373            0.03736
     67       0.00000           0.021705            0.59063
     68       0.00000           0.036722            0.99925
     69       0.00000           0.050870            1.38423
     70       0.00000           0.068789            1.87183
     71       0.00000           0.087231            2.37368
     72       0.00000           0.125437            3.41332
     73       0.00000           0.140607            3.82611
     74       0.00000           0.164927            4.48789
     75       0.00000           0.174384            4.74524
     76       0.00000           0.179947            4.89662
     77       0.00000           0.189972            5.16940
     78       0.00000           0.199239            5.42156
     79       0.00000           0.207868            5.65638
     80       0.00000           0.220415            5.99779
     81       0.00000           0.231038            6.28686
     82       0.00000           0.232483            6.32618
     83       0.00000           0.240714            6.55016
     84       0.00000           0.250960            6.82897
     85       0.00000           0.257477            7.00631
     86       0.00000           0.261730            7.12202
     87       0.00000           0.267254            7.27236
     88       0.00000           0.278560            7.58001
     89       0.00000           0.279703            7.61110
     90       0.00000           0.302261            8.22494
     91       0.00000           0.317108            8.62894
     92       0.00000           0.332280            9.04180
     93       0.00000           0.352592            9.59453
     94       0.00000           0.364590            9.92101
     95       0.00000           0.372135           10.12631
     96       0.00000           0.375544           10.21908

  Highest occupied state (VBM) at    -11.96441699 eV
  | Occupation number:      2.00000000

  Lowest unoccupied state (CBM) at    -3.67240294 eV
  | Occupation number:      0.00000000

  Overall HOMO-LUMO gap:      8.29201406 eV.
  Calculating total energy contributions from superposition of free atom densities.

  Total energy components:
  | Sum of eigenvalues            :        -887.93989176 Ha      -24162.07380770 eV
  | XC energy correction          :        -144.43826267 Ha       -3930.36510201 eV
  | XC potential correction       :         188.07299865 Ha        5117.72668020 eV
  | Free-atom electrostatic energy:        -781.04803113 Ha      -21253.39828815 eV
  | Hartree energy correction     :           0.00000000 Ha           0.00000000 eV
  | Entropy correction            :           0.00000000 Ha           0.00000000 eV
  | ---------------------------
  | Total energy                  :       -1625.35318692 Ha      -44228.11051765 eV
  | Total energy, T -> 0          :       -1625.35318692 Ha      -44228.11051765 eV  <-- do not rely on this value for anything but (periodic) metals
  | Electronic free energy        :       -1625.35318692 Ha      -44228.11051765 eV

  Derived energy quantities:
  | Kinetic energy                :        1627.84595714 Ha       44295.94224640 eV
  | Electrostatic energy          :       -3108.76088139 Ha      -84593.68766204 eV
  | Energy correction for multipole
  | error in Hartree potential    :           0.00000000 Ha           0.00000000 eV
  | Sum of eigenvalues per atom                           :       -2013.50615064 eV
  | Total energy (T->0) per atom                          :       -3685.67587647 eV  <-- do not rely on this value for anything but (periodic) metals
  | Electronic free energy per atom                       :       -3685.67587647 eV
  Initialize hartree_potential_storage
  Max. number of atoms included in rho_multipole:           12

  End scf initialization - timings             :  max(cpu_time)    wall_clock(cpu1)
  | Time for scf. initialization                :        0.122 s           0.121 s
  | Boundary condition initialization           :        0.000 s           0.000 s
  | Integration                                 :        0.048 s           0.048 s
  | Solution of K.-S. eqns.                     :        0.012 s           0.012 s
  | Grid partitioning                           :        0.038 s           0.039 s
  | Preloading free-atom quantities on grid     :        0.016 s           0.016 s
  | Free-atom superposition energy              :        0.005 s           0.005 s
  | Total energy evaluation                     :        0.000 s           0.000 s

  Partial memory accounting:
  | Current value for overall tracked memory usage:
  |   Minimum:        0.273 MB (on task 23)
  |   Maximum:        0.292 MB (on task  0)
  |   Average:        0.287 MB
  | Peak value for overall tracked memory usage:
  |   Minimum:        1.308 MB (on task  3 after allocating wave)
  |   Maximum:        1.371 MB (on task  8 after allocating wave)
  |   Average:        1.340 MB
  | Largest tracked array allocation so far:
  |   Minimum:        0.231 MB (H_times_psi on task  1)
  |   Maximum:        0.537 MB (all_coords on task 10)
  |   Average:        0.272 MB
  Note:  These values currently only include a subset of arrays which are explicitly tracked.
  The "true" memory usage will be greater.
------------------------------------------------------------
  Evaluating new KS density.
  Integration grid: deviation in total charge (<rho> - N_e) =   4.263256E-14

  Time for density update prior                :  max(cpu_time)    wall_clock(cpu1)
  | self-consistency iterative process          :        0.030 s           0.030 s

------------------------------------------------------------
          Begin self-consistency iteration #    1

  Date     :  20220517, Time     :  122016.122
------------------------------------------------------------
  Pulay mixing of updated and previous charge densities.
  Renormalizing the density to the exact electron count on the 3D integration grid.
  | Formal number of electrons (from input files) :     120.0000000000
  | Integrated number of electrons on 3D grid     :     120.0000000000
  | Charge integration error                      :       0.0000000000
  | Normalization factor for density and gradient :       1.0000000000

  Evaluating partitioned Hartree potential by multipole expansion.
  | Original multipole sum: apparent total charge =   0.678037E-13
  | Sum of charges compensated after spline to logarithmic grids =   0.823946E-04
  | Analytical far-field extrapolation by fixed multipoles:
  | Hartree multipole sum: apparent total charge =   0.669919E-13
  Summing up the Hartree potential.
  Time summed over all CPUs for potential: real work        0.382 s, elapsed        0.398 s
  | RMS charge density error from multipole expansion :   0.112379E-01

  Integrating Hamiltonian matrix: batch-based integration.
  Time summed over all CPUs for integration: real work        0.715 s, elapsed        0.773 s

  Updating Kohn-Sham eigenvalues and eigenvectors using ELSI and the ELPA eigensolver.
  Starting ELPA eigensolver
  Finished transformation to standard eigenproblem
  | Time :     0.001 s
  Finished solving standard eigenproblem
  | Time :     0.003 s
  Finished back-transformation of eigenvectors
  | Time :     0.000 s

  Obtaining occupation numbers and chemical potential using ELSI.
  | Chemical potential (Fermi level):    -7.30429481 eV
  Writing Kohn-Sham eigenvalues.

  State    Occupation    Eigenvalue [Ha]    Eigenvalue [eV]
      1       2.00000         -55.663068        -1514.66915
      2       2.00000         -55.663066        -1514.66908
      3       2.00000         -55.622582        -1513.56747
      4       2.00000         -24.232752         -659.40674
      5       2.00000         -24.232751         -659.40672
      6       2.00000         -24.219420         -659.04395
      7       2.00000         -24.203894         -658.62147
      8       2.00000         -24.195327         -658.38835
      9       2.00000         -24.070353         -654.98764
     10       2.00000         -24.070345         -654.98742
     11       2.00000         -24.055242         -654.57643
     12       2.00000         -24.052478         -654.50123
     13       2.00000          -4.100850         -111.58980
     14       2.00000          -4.100771         -111.58766
     15       2.00000          -4.062792         -110.55419
     16       2.00000          -2.694182          -73.31243
     17       2.00000          -2.693789          -73.30173
     18       2.00000          -2.693712          -73.29963
     19       2.00000          -2.693428          -73.29190
     20       2.00000          -2.693140          -73.28407
     21       2.00000          -2.693052          -73.28168
     22       2.00000          -2.656567          -72.28887
     23       2.00000          -2.655952          -72.27213
     24       2.00000          -2.653737          -72.21185
     25       2.00000          -1.170812          -31.85941
     26       2.00000          -1.157302          -31.49179
     27       2.00000          -1.144891          -31.15408
     28       2.00000          -1.128289          -30.70232
     29       2.00000          -1.112538          -30.27370
     30       2.00000          -1.014568          -27.60780
     31       2.00000          -1.014337          -27.60152
     32       2.00000          -1.004881          -27.34420
     33       2.00000          -0.999515          -27.19820
     34       2.00000          -0.559293          -15.21914
     35       2.00000          -0.542520          -14.76272
     36       2.00000          -0.539739          -14.68705
     37       2.00000          -0.507379          -13.80648
     38       2.00000          -0.501120          -13.63618
     39       2.00000          -0.487519          -13.26607
     40       2.00000          -0.477873          -13.00358
     41       2.00000          -0.474199          -12.90362
     42       2.00000          -0.464626          -12.64313
     43       2.00000          -0.435703          -11.85609
     44       2.00000          -0.430097          -11.70355
     45       2.00000          -0.427114          -11.62235
     46       2.00000          -0.421656          -11.47386
     47       2.00000          -0.406428          -11.05946
     48       2.00000          -0.389214          -10.59105
     49       2.00000          -0.386700          -10.52264
     50       2.00000          -0.375597          -10.22050
     51       2.00000          -0.375510          -10.21814
     52       2.00000          -0.350266           -9.53122
     53       2.00000          -0.327240           -8.90465
     54       2.00000          -0.327206           -8.90373
     55       2.00000          -0.324518           -8.83058
     56       2.00000          -0.322469           -8.77483
     57       2.00000          -0.317627           -8.64308
     58       2.00000          -0.315241           -8.57815
     59       2.00000          -0.307226           -8.36006
     60       2.00000          -0.302826           -8.24032
     61       0.00000          -0.145179           -3.95051
     62       0.00000          -0.089530           -2.43624
     63       0.00000          -0.069638           -1.89495
     64       0.00000          -0.051973           -1.41425
     65       0.00000          -0.019072           -0.51899
     66       0.00000          -0.019006           -0.51719
     67       0.00000           0.026925            0.73266
     68       0.00000           0.027915            0.75960
     69       0.00000           0.040370            1.09851
     70       0.00000           0.062730            1.70697
     71       0.00000           0.089886            2.44594
     72       0.00000           0.107737            2.93168
     73       0.00000           0.144436            3.93031
     74       0.00000           0.156031            4.24581
     75       0.00000           0.161489            4.39434
     76       0.00000           0.164889            4.48687
     77       0.00000           0.196695            5.35235
     78       0.00000           0.204401            5.56202
     79       0.00000           0.210599            5.73068
     80       0.00000           0.211921            5.76666
     81       0.00000           0.218252            5.93895
     82       0.00000           0.226240            6.15630
     83       0.00000           0.227825            6.19942
     84       0.00000           0.238975            6.50285
     85       0.00000           0.247677            6.73964
     86       0.00000           0.251061            6.83173
     87       0.00000           0.261971            7.12859
     88       0.00000           0.265427            7.22264
     89       0.00000           0.274478            7.46892
     90       0.00000           0.303699            8.26406
     91       0.00000           0.305293            8.30745
     92       0.00000           0.328630            8.94248
     93       0.00000           0.360944            9.82180
     94       0.00000           0.366529            9.97377
     95       0.00000           0.371353           10.10504
     96       0.00000           0.388426           10.56960

  Highest occupied state (VBM) at     -8.24032206 eV
  | Occupation number:      2.00000000

  Lowest unoccupied state (CBM) at    -3.95051034 eV
  | Occupation number:      0.00000000

  Overall HOMO-LUMO gap:      4.28981171 eV.

  Total energy components:
  | Sum of eigenvalues            :        -883.03458682 Ha      -24028.59366878 eV
  | XC energy correction          :        -145.72784670 Ha       -3965.45646881 eV
  | XC potential correction       :         189.76784143 Ha        5163.84569894 eV
  | Free-atom electrostatic energy:        -781.04803113 Ha      -21253.39828815 eV
  | Hartree energy correction     :          -5.10298655 Ha        -138.85932924 eV
  | Entropy correction            :           0.00000000 Ha           0.00000000 eV
  | ---------------------------
  | Total energy                  :       -1625.14560977 Ha      -44222.46205605 eV
  | Total energy, T -> 0          :       -1625.14560977 Ha      -44222.46205605 eV  <-- do not rely on this value for anything but (periodic) metals
  | Electronic free energy        :       -1625.14560977 Ha      -44222.46205605 eV

  Derived energy quantities:
  | Kinetic energy                :        1634.01473458 Ha       44463.80322129 eV
  | Electrostatic energy          :       -3113.43249766 Ha      -84720.80880853 eV
  | Energy correction for multipole
  | error in Hartree potential    :           0.03271110 Ha           0.89011440 eV
  | Sum of eigenvalues per atom                           :       -2002.38280573 eV
  | Total energy (T->0) per atom                          :       -3685.20517134 eV  <-- do not rely on this value for anything but (periodic) metals
  | Electronic free energy per atom                       :       -3685.20517134 eV
  Evaluating new KS density.
  Integration grid: deviation in total charge (<rho> - N_e) =   4.263256E-14

  Self-consistency convergence accuracy:
  | Change of charge density      :  0.5916E+00
  | Change of sum of eigenvalues  :  0.1335E+03 eV
  | Change of total energy        :  0.5648E+01 eV


------------------------------------------------------------
  End self-consistency iteration #     1       :  max(cpu_time)    wall_clock(cpu1)
  | Time for this iteration                     :        0.092 s           0.092 s
  | Charge density update                       :        0.035 s           0.035 s
  | Density mixing                              :        0.000 s           0.001 s
  | Hartree multipole update                    :        0.001 s           0.001 s
  | Hartree multipole summation                 :        0.017 s           0.017 s
  | Integration                                 :        0.033 s           0.033 s
  | Solution of K.-S. eqns.                     :        0.004 s           0.004 s
  | Total energy evaluation                     :        0.000 s           0.000 s

  Partial memory accounting:
  | Current value for overall tracked memory usage:
  |   Minimum:        0.273 MB (on task 23)
  |   Maximum:        0.292 MB (on task  0)
  |   Average:        0.287 MB
  | Peak value for overall tracked memory usage:
  |   Minimum:        1.308 MB (on task  3 after allocating wave)
  |   Maximum:        1.371 MB (on task  8 after allocating wave)
  |   Average:        1.340 MB
  | Largest tracked array allocation so far:
  |   Minimum:        0.694 MB (gradient_basis_wave on task  1)
  |   Maximum:        0.732 MB (gradient_basis_wave on task  7)
  |   Average:        0.711 MB
  Note:  These values currently only include a subset of arrays which are explicitly tracked.
  The "true" memory usage will be greater.
------------------------------------------------------------

------------------------------------------------------------
          Begin self-consistency iteration #    2

  Date     :  20220517, Time     :  122016.220
------------------------------------------------------------
  Pulay mixing of updated and previous charge densities.
  Renormalizing the density to the exact electron count on the 3D integration grid.
  | Formal number of electrons (from input files) :     120.0000000000
  | Integrated number of electrons on 3D grid     :     120.0000000000
  | Charge integration error                      :       0.0000000000
  | Normalization factor for density and gradient :       1.0000000000

  Evaluating partitioned Hartree potential by multipole expansion.
  | Original multipole sum: apparent total charge =   0.879246E-13
  | Sum of charges compensated after spline to logarithmic grids =   0.407411E-04
  | Analytical far-field extrapolation by fixed multipoles:
  | Hartree multipole sum: apparent total charge =   0.869530E-13
  Summing up the Hartree potential.
  Time summed over all CPUs for potential: real work        0.382 s, elapsed        0.426 s
  | RMS charge density error from multipole expansion :   0.130538E-01

  Integrating Hamiltonian matrix: batch-based integration.
  Time summed over all CPUs for integration: real work        0.717 s, elapsed        0.771 s

  Updating Kohn-Sham eigenvalues and eigenvectors using ELSI and the ELPA eigensolver.
  Starting ELPA eigensolver
  Finished transformation to standard eigenproblem
  | Time :     0.004 s
  Finished solving standard eigenproblem
  | Time :     0.009 s
  Finished back-transformation of eigenvectors
  | Time :     0.003 s

  Obtaining occupation numbers and chemical potential using ELSI.
  | Chemical potential (Fermi level):    -7.52675918 eV
  Highest occupied state (VBM) at     -9.29533570 eV
  | Occupation number:      2.00000000

  Lowest unoccupied state (CBM) at    -4.17859291 eV
  | Occupation number:      0.00000000

  Overall HOMO-LUMO gap:      5.11674280 eV.

  Checking to see if s.c.f. parameters should be adjusted.

  Total energy components:
  | Sum of eigenvalues            :        -885.88728495 Ha      -24106.21953455 eV
  | XC energy correction          :        -145.26735081 Ha       -3952.92573818 eV
  | XC potential correction       :         189.16196508 Ha        5147.35896459 eV
  | Free-atom electrostatic energy:        -781.04803113 Ha      -21253.39828815 eV
  | Hartree energy correction     :          -2.04829857 Ha         -55.73704001 eV
  | Entropy correction            :           0.00000000 Ha           0.00000000 eV
  | ---------------------------
  | Total energy                  :       -1625.08900039 Ha      -44220.92163630 eV
  | Total energy, T -> 0          :       -1625.08900039 Ha      -44220.92163630 eV  <-- do not rely on this value for anything but (periodic) metals
  | Electronic free energy        :       -1625.08900039 Ha      -44220.92163630 eV

  Derived energy quantities:
  | Kinetic energy                :        1630.28765643 Ha       44362.38426461 eV
  | Electrostatic energy          :       -3110.10930600 Ha      -84630.38016273 eV
  | Energy correction for multipole
  | error in Hartree potential    :           0.03691129 Ha           1.00440738 eV
  | Sum of eigenvalues per atom                           :       -2008.85162788 eV
  | Total energy (T->0) per atom                          :       -3685.07680302 eV  <-- do not rely on this value for anything but (periodic) metals
  | Electronic free energy per atom                       :       -3685.07680302 eV
  Evaluating new KS density.
  Integration grid: deviation in total charge (<rho> - N_e) =   5.684342E-14

  Self-consistency convergence accuracy:
  | Change of charge density      :  0.4516E+00
  | Change of sum of eigenvalues  : -0.7763E+02 eV
  | Change of total energy        :  0.1540E+01 eV


------------------------------------------------------------
  End self-consistency iteration #     2       :  max(cpu_time)    wall_clock(cpu1)
  | Time for this iteration                     :        0.113 s           0.110 s
  | Charge density update                       :        0.029 s           0.029 s
  | Density mixing                              :        0.004 s           0.002 s
  | Hartree multipole update                    :        0.001 s           0.001 s
  | Hartree multipole summation                 :        0.025 s           0.026 s
  | Integration                                 :        0.034 s           0.033 s
  | Solution of K.-S. eqns.                     :        0.018 s           0.018 s
  | Total energy evaluation                     :        0.000 s           0.001 s

  Partial memory accounting:
  | Current value for overall tracked memory usage:
  |   Minimum:        0.274 MB (on task 23)
  |   Maximum:        0.293 MB (on task  0)
  |   Average:        0.288 MB
  | Peak value for overall tracked memory usage:
  |   Minimum:        1.308 MB (on task  3 after allocating wave)
  |   Maximum:        1.371 MB (on task  8 after allocating wave)
  |   Average:        1.340 MB
  | Largest tracked array allocation so far:
  |   Minimum:        0.694 MB (gradient_basis_wave on task  1)
  |   Maximum:        0.732 MB (gradient_basis_wave on task  7)
  |   Average:        0.711 MB
  Note:  These values currently only include a subset of arrays which are explicitly tracked.
  The "true" memory usage will be greater.
------------------------------------------------------------

------------------------------------------------------------
          Begin self-consistency iteration #    3

  Date     :  20220517, Time     :  122016.338
------------------------------------------------------------
  Pulay mixing of updated and previous charge densities.
  Renormalizing the density to the exact electron count on the 3D integration grid.
  | Formal number of electrons (from input files) :     120.0000000000
  | Integrated number of electrons on 3D grid     :     120.0000000000
  | Charge integration error                      :       0.0000000000
  | Normalization factor for density and gradient :       1.0000000000

  Evaluating partitioned Hartree potential by multipole expansion.
  | Original multipole sum: apparent total charge =   0.820089E-13
  | Sum of charges compensated after spline to logarithmic grids =   0.473128E-04
  | Analytical far-field extrapolation by fixed multipoles:
  | Hartree multipole sum: apparent total charge =   0.818736E-13
  Summing up the Hartree potential.
  Time summed over all CPUs for potential: real work        0.381 s, elapsed        0.396 s
  | RMS charge density error from multipole expansion :   0.170666E-01

  Integrating Hamiltonian matrix: batch-based integration.
  Time summed over all CPUs for integration: real work        0.716 s, elapsed        0.772 s

  Updating Kohn-Sham eigenvalues and eigenvectors using ELSI and the ELPA eigensolver.
  Starting ELPA eigensolver
  Finished transformation to standard eigenproblem
  | Time :     0.003 s
  Finished solving standard eigenproblem
  | Time :     0.020 s
  Finished back-transformation of eigenvectors
  | Time :     0.001 s

  Obtaining occupation numbers and chemical potential using ELSI.
  | Chemical potential (Fermi level):    -7.54140350 eV
  Highest occupied state (VBM) at     -9.03933477 eV
  | Occupation number:      2.00000000

  Lowest unoccupied state (CBM) at    -4.31910497 eV
  | Occupation number:      0.00000000

  Overall HOMO-LUMO gap:      4.72022980 eV.

  Total energy components:
  | Sum of eigenvalues            :        -886.78678693 Ha      -24130.69622872 eV
  | XC energy correction          :        -145.23765598 Ha       -3952.11770074 eV
  | XC potential correction       :         189.12186395 Ha        5146.26775725 eV
  | Free-atom electrostatic energy:        -781.04803113 Ha      -21253.39828815 eV
  | Hartree energy correction     :          -1.13760678 Ha         -30.95585553 eV
  | Entropy correction            :           0.00000000 Ha           0.00000000 eV
  | ---------------------------
  | Total energy                  :       -1625.08821688 Ha      -44220.90031589 eV
  | Total energy, T -> 0          :       -1625.08821688 Ha      -44220.90031589 eV  <-- do not rely on this value for anything but (periodic) metals
  | Electronic free energy        :       -1625.08821688 Ha      -44220.90031589 eV

  Derived energy quantities:
  | Kinetic energy                :        1628.79712199 Ha       44321.82475904 eV
  | Electrostatic energy          :       -3108.64768289 Ha      -84590.60737419 eV
  | Energy correction for multipole
  | error in Hartree potential    :           0.04849757 Ha           1.31968607 eV
  | Sum of eigenvalues per atom                           :       -2010.89135239 eV
  | Total energy (T->0) per atom                          :       -3685.07502632 eV  <-- do not rely on this value for anything but (periodic) metals
  | Electronic free energy per atom                       :       -3685.07502632 eV
  Evaluating new KS density.
  Integration grid: deviation in total charge (<rho> - N_e) =   0.000000E+00

  Self-consistency convergence accuracy:
  | Change of charge density      :  0.1213E+00
  | Change of sum of eigenvalues  : -0.2448E+02 eV
  | Change of total energy        :  0.2132E-01 eV


------------------------------------------------------------
  End self-consistency iteration #     3       :  max(cpu_time)    wall_clock(cpu1)
  | Time for this iteration                     :        0.114 s           0.111 s
  | Charge density update                       :        0.029 s           0.030 s
  | Density mixing                              :        0.004 s           0.001 s
  | Hartree multipole update                    :        0.001 s           0.001 s
  | Hartree multipole summation                 :        0.018 s           0.018 s
  | Integration                                 :        0.034 s           0.035 s
  | Solution of K.-S. eqns.                     :        0.026 s           0.026 s
  | Total energy evaluation                     :        0.000 s           0.000 s

  Partial memory accounting:
  | Current value for overall tracked memory usage:
  |   Minimum:        0.274 MB (on task 23)
  |   Maximum:        0.293 MB (on task  0)
  |   Average:        0.288 MB
  | Peak value for overall tracked memory usage:
  |   Minimum:        1.308 MB (on task  3 after allocating wave)
  |   Maximum:        1.371 MB (on task  8 after allocating wave)
  |   Average:        1.340 MB
  | Largest tracked array allocation so far:
  |   Minimum:        0.694 MB (gradient_basis_wave on task  1)
  |   Maximum:        0.732 MB (gradient_basis_wave on task  7)
  |   Average:        0.711 MB
  Note:  These values currently only include a subset of arrays which are explicitly tracked.
  The "true" memory usage will be greater.
------------------------------------------------------------

------------------------------------------------------------
          Begin self-consistency iteration #    4

  Date     :  20220517, Time     :  122016.455
------------------------------------------------------------
  Pulay mixing of updated and previous charge densities.
  Renormalizing the density to the exact electron count on the 3D integration grid.
  | Formal number of electrons (from input files) :     120.0000000000
  | Integrated number of electrons on 3D grid     :     120.0000000000
  | Charge integration error                      :       0.0000000000
  | Normalization factor for density and gradient :       1.0000000000

  Evaluating partitioned Hartree potential by multipole expansion.
  | Original multipole sum: apparent total charge =   0.886134E-13
  | Sum of charges compensated after spline to logarithmic grids =   0.505234E-04
  | Analytical far-field extrapolation by fixed multipoles:
  | Hartree multipole sum: apparent total charge =   0.882321E-13
  Summing up the Hartree potential.
  Time summed over all CPUs for potential: real work        0.381 s, elapsed        0.396 s
  | RMS charge density error from multipole expansion :   0.196056E-01

  Integrating Hamiltonian matrix: batch-based integration.
  Time summed over all CPUs for integration: real work        0.717 s, elapsed        0.769 s

  Updating Kohn-Sham eigenvalues and eigenvectors using ELSI and the ELPA eigensolver.
  Starting ELPA eigensolver
  Finished transformation to standard eigenproblem
  | Time :     0.003 s
  Finished solving standard eigenproblem
  | Time :     0.013 s
  Finished back-transformation of eigenvectors
  | Time :     0.002 s

  Obtaining occupation numbers and chemical potential using ELSI.
  | Chemical potential (Fermi level):    -7.52325634 eV
  Highest occupied state (VBM) at     -9.01502207 eV
  | Occupation number:      2.00000000

  Lowest unoccupied state (CBM) at    -4.31346179 eV
  | Occupation number:      0.00000000

  Overall HOMO-LUMO gap:      4.70156027 eV.

  Total energy components:
  | Sum of eigenvalues            :        -886.99505631 Ha      -24136.36352683 eV
  | XC energy correction          :        -145.21796298 Ha       -3951.58182703 eV
  | XC potential correction       :         189.09514341 Ha        5145.54065439 eV
  | Free-atom electrostatic energy:        -781.04803113 Ha      -21253.39828815 eV
  | Hartree energy correction     :          -0.92021718 Ha         -25.04038341 eV
  | Entropy correction            :           0.00000000 Ha           0.00000000 eV
  | ---------------------------
  | Total energy                  :       -1625.08612419 Ha      -44220.84337103 eV
  | Total energy, T -> 0          :       -1625.08612419 Ha      -44220.84337103 eV  <-- do not rely on this value for anything but (periodic) metals
  | Electronic free energy        :       -1625.08612419 Ha      -44220.84337103 eV

  Derived energy quantities:
  | Kinetic energy                :        1627.95343819 Ha       44298.86695470 eV
  | Electrostatic energy          :       -3107.82159940 Ha      -84568.12849870 eV
  | Energy correction for multipole
  | error in Hartree potential    :           0.05509045 Ha           1.49908755 eV
  | Sum of eigenvalues per atom                           :       -2011.36362724 eV
  | Total energy (T->0) per atom                          :       -3685.07028092 eV  <-- do not rely on this value for anything but (periodic) metals
  | Electronic free energy per atom                       :       -3685.07028092 eV
  Evaluating new KS density.
  Integration grid: deviation in total charge (<rho> - N_e) =   1.421085E-14

  Self-consistency convergence accuracy:
  | Change of charge density      :  0.8665E-01
  | Change of sum of eigenvalues  : -0.5667E+01 eV
  | Change of total energy        :  0.5694E-01 eV


------------------------------------------------------------
  End self-consistency iteration #     4       :  max(cpu_time)    wall_clock(cpu1)
  | Time for this iteration                     :        0.108 s           0.108 s
  | Charge density update                       :        0.029 s           0.029 s
  | Density mixing                              :        0.006 s           0.005 s
  | Hartree multipole update                    :        0.002 s           0.002 s
  | Hartree multipole summation                 :        0.017 s           0.017 s
  | Integration                                 :        0.034 s           0.034 s
  | Solution of K.-S. eqns.                     :        0.019 s           0.019 s
  | Total energy evaluation                     :        0.000 s           0.001 s

  Partial memory accounting:
  | Current value for overall tracked memory usage:
  |   Minimum:        0.274 MB (on task 23)
  |   Maximum:        0.293 MB (on task  0)
  |   Average:        0.288 MB
  | Peak value for overall tracked memory usage:
  |   Minimum:        1.308 MB (on task  3 after allocating wave)
  |   Maximum:        1.371 MB (on task  8 after allocating wave)
  |   Average:        1.340 MB
  | Largest tracked array allocation so far:
  |   Minimum:        0.694 MB (gradient_basis_wave on task  1)
  |   Maximum:        0.732 MB (gradient_basis_wave on task  7)
  |   Average:        0.711 MB
  Note:  These values currently only include a subset of arrays which are explicitly tracked.
  The "true" memory usage will be greater.
------------------------------------------------------------

------------------------------------------------------------
          Begin self-consistency iteration #    5

  Date     :  20220517, Time     :  122016.571
------------------------------------------------------------
  Pulay mixing of updated and previous charge densities.
  Renormalizing the density to the exact electron count on the 3D integration grid.
  | Formal number of electrons (from input files) :     120.0000000000
  | Integrated number of electrons on 3D grid     :     120.0000000000
  | Charge integration error                      :      -0.0000000000
  | Normalization factor for density and gradient :       1.0000000000

  Evaluating partitioned Hartree potential by multipole expansion.
  | Original multipole sum: apparent total charge =   0.470801E-13
  | Sum of charges compensated after spline to logarithmic grids =   0.512975E-04
  | Analytical far-field extrapolation by fixed multipoles:
  | Hartree multipole sum: apparent total charge =   0.478180E-13
  Summing up the Hartree potential.
  Time summed over all CPUs for potential: real work        0.381 s, elapsed        0.398 s
  | RMS charge density error from multipole expansion :   0.194871E-01

  Integrating Hamiltonian matrix: batch-based integration.
  Time summed over all CPUs for integration: real work        0.716 s, elapsed        0.772 s

  Updating Kohn-Sham eigenvalues and eigenvectors using ELSI and the ELPA eigensolver.
  Starting ELPA eigensolver
  Finished transformation to standard eigenproblem
  | Time :     0.004 s
  Finished solving standard eigenproblem
  | Time :     0.010 s
  Finished back-transformation of eigenvectors
  | Time :     0.000 s

  Obtaining occupation numbers and chemical potential using ELSI.
  | Chemical potential (Fermi level):    -7.51716388 eV
  Highest occupied state (VBM) at     -9.08727580 eV
  | Occupation number:      2.00000000

  Lowest unoccupied state (CBM) at    -4.27401296 eV
  | Occupation number:      0.00000000

  Overall HOMO-LUMO gap:      4.81326284 eV.

  Total energy components:
  | Sum of eigenvalues            :        -886.84221465 Ha      -24132.20449355 eV
  | XC energy correction          :        -145.21590429 Ha       -3951.52580708 eV
  | XC potential correction       :         189.09256365 Ha        5145.47045570 eV
  | Free-atom electrostatic energy:        -781.04803113 Ha      -21253.39828815 eV
  | Hartree energy correction     :          -1.07242118 Ha         -29.18206514 eV
  | Entropy correction            :           0.00000000 Ha           0.00000000 eV
[...]
   Total forces(   7)            :  0.309585E+00 -0.546165E+00 -0.437895E+00
  atom #    8
   Hellmann-Feynman              : -0.181296E+01 -0.165633E+01  0.191659E+01
   Ionic forces                  :  0.000000E+00  0.000000E+00  0.000000E+00
   Multipole                     : -0.468420E+00 -0.474224E+00  0.533617E+00
   Hartree pot. SCF incomplete   : -0.106462E-05 -0.633708E-06  0.105173E-05
   Pulay + GGA                   :  0.443582E+01  0.416737E+01 -0.476227E+01
   ----------------------------------------------------------------
   Total forces(   8)            :  0.215445E+01  0.203681E+01 -0.231206E+01
  atom #    9
   Hellmann-Feynman              :  0.197507E+01 -0.884648E+00 -0.223957E+01
   Ionic forces                  :  0.000000E+00  0.000000E+00  0.000000E+00
   Multipole                     :  0.557015E+00 -0.265807E+00 -0.591633E+00
   Hartree pot. SCF incomplete   :  0.103328E-05 -0.208259E-06 -0.124925E-05
   Pulay + GGA                   : -0.492366E+01  0.226185E+01  0.550908E+01
   ----------------------------------------------------------------
   Total forces(   9)            : -0.239157E+01  0.111140E+01  0.267788E+01
  atom #   10
   Hellmann-Feynman              :  0.978887E+00  0.478666E+00 -0.528433E+00
   Ionic forces                  :  0.000000E+00  0.000000E+00  0.000000E+00
   Multipole                     :  0.896306E-01  0.200991E+00 -0.814814E-01
   Hartree pot. SCF incomplete   :  0.292591E-05  0.503272E-05 -0.180017E-05
   Pulay + GGA                   : -0.136334E+01 -0.134905E+01  0.835854E+00
   ----------------------------------------------------------------
   Total forces(  10)            : -0.294820E+00 -0.669392E+00  0.225938E+00
  atom #   11
   Hellmann-Feynman              :  0.874574E+00  0.886140E+00  0.958259E+00
   Ionic forces                  :  0.000000E+00  0.000000E+00  0.000000E+00
   Multipole                     : -0.360234E+00  0.209599E+00 -0.289625E+00
   Hartree pot. SCF incomplete   : -0.356454E-05  0.142268E-05 -0.298244E-05
   Pulay + GGA                   :  0.880803E+00 -0.154256E+01  0.519565E+00
   ----------------------------------------------------------------
   Total forces(  11)            :  0.139514E+01 -0.446819E+00  0.118820E+01
  atom #   12
   Hellmann-Feynman              : -0.258160E+00  0.117694E+01 -0.169989E-01
   Ionic forces                  :  0.000000E+00  0.000000E+00  0.000000E+00
   Multipole                     :  0.410377E+00  0.498189E-01  0.382780E+00
   Hartree pot. SCF incomplete   :  0.356151E-05  0.155557E-05  0.353135E-05
   Pulay + GGA                   : -0.155819E+01 -0.133004E+01 -0.166626E+01
   ----------------------------------------------------------------
   Total forces(  12)            : -0.140597E+01 -0.103275E+00 -0.130048E+01


  Self-consistency convergence accuracy:
  | Change of charge density      :  0.1352E-06
  | Change of sum of eigenvalues  : -0.1250E-06 eV
  | Change of total energy        :  0.3490E-08 eV
  | Change of forces              :  0.4240E-06 eV/A

  Writing Kohn-Sham eigenvalues.

  State    Occupation    Eigenvalue [Ha]    Eigenvalue [eV]
      1       2.00000         -55.651804        -1514.36264
      2       2.00000         -55.651799        -1514.36251
      3       2.00000         -55.600891        -1512.97723
      4       2.00000         -24.299605         -661.22589
      5       2.00000         -24.299603         -661.22585
      6       2.00000         -24.296371         -661.13791
      7       2.00000         -24.290053         -660.96598
      8       2.00000         -24.280362         -660.70227
      9       2.00000         -24.221138         -659.09071
     10       2.00000         -24.221128         -659.09044
     11       2.00000         -24.186392         -658.14522
     12       2.00000         -24.185212         -658.11310
     13       2.00000          -4.102393         -111.63180
     14       2.00000          -4.102316         -111.62969
     15       2.00000          -4.054397         -110.32575
     16       2.00000          -2.696071          -73.36382
     17       2.00000          -2.695992          -73.36169
     18       2.00000          -2.693874          -73.30404
     19       2.00000          -2.693550          -73.29521
     20       2.00000          -2.692584          -73.26895
     21       2.00000          -2.692073          -73.25503
     22       2.00000          -2.647497          -72.04205
     23       2.00000          -2.647415          -72.03984
     24       2.00000          -2.642708          -71.91175
     25       2.00000          -1.188924          -32.35226
     26       2.00000          -1.175345          -31.98277
     27       2.00000          -1.165758          -31.72188
     28       2.00000          -1.150812          -31.31518
     29       2.00000          -1.136864          -30.93564
     30       2.00000          -1.064081          -28.95512
     31       2.00000          -1.063873          -28.94946
     32       2.00000          -1.036198          -28.19639
     33       2.00000          -1.031791          -28.07646
     34       2.00000          -0.575225          -15.65268
     35       2.00000          -0.559726          -15.23092
     36       2.00000          -0.555073          -15.10431
     37       2.00000          -0.525180          -14.29088
     38       2.00000          -0.520081          -14.15213
     39       2.00000          -0.507919          -13.82117
     40       2.00000          -0.495975          -13.49616
     41       2.00000          -0.495897          -13.49404
     42       2.00000          -0.484060          -13.17195
     43       2.00000          -0.459030          -12.49085
     44       2.00000          -0.450211          -12.25086
     45       2.00000          -0.449273          -12.22533
     46       2.00000          -0.444687          -12.10055
     47       2.00000          -0.429949          -11.69951
     48       2.00000          -0.427596          -11.63548
     49       2.00000          -0.420966          -11.45506
     50       2.00000          -0.413225          -11.24442
     51       2.00000          -0.404322          -11.00216
     52       2.00000          -0.381228          -10.37374
     53       2.00000          -0.372704          -10.14179
     54       2.00000          -0.372486          -10.13585
     55       2.00000          -0.369151          -10.04511
     56       2.00000          -0.367358           -9.99632
     57       2.00000          -0.345378           -9.39821
     58       2.00000          -0.343754           -9.35403
     59       2.00000          -0.337243           -9.17684
     60       2.00000          -0.333132           -9.06499
     61       0.00000          -0.156842           -4.26790
     62       0.00000          -0.103551           -2.81777
     63       0.00000          -0.077479           -2.10832
     64       0.00000          -0.057476           -1.56401
     65       0.00000          -0.025287           -0.68809
     66       0.00000          -0.023546           -0.64073
     67       0.00000           0.024146            0.65706
     68       0.00000           0.024351            0.66262
     69       0.00000           0.036241            0.98617
     70       0.00000           0.061085            1.66222
     71       0.00000           0.085281            2.32062
     72       0.00000           0.102566            2.79096
     73       0.00000           0.136987            3.72761
     74       0.00000           0.154965            4.21681
     75       0.00000           0.155958            4.24384
     76       0.00000           0.157421            4.28365
     77       0.00000           0.193571            5.26733
     78       0.00000           0.200301            5.45048
     79       0.00000           0.207412            5.64395
     80       0.00000           0.208619            5.67682
     81       0.00000           0.216156            5.88190
     82       0.00000           0.221615            6.03045
     83       0.00000           0.222311            6.04940
     84       0.00000           0.232141            6.31687
     85       0.00000           0.241332            6.56699
     86       0.00000           0.244522            6.65379
     87       0.00000           0.255245            6.94557
     88       0.00000           0.256757            6.98672
     89       0.00000           0.266125            7.24164
     90       0.00000           0.292388            7.95628
     91       0.00000           0.302846            8.24087
     92       0.00000           0.327248            8.90486
     93       0.00000           0.355069            9.66191
     94       0.00000           0.362273            9.85795
     95       0.00000           0.363216            9.88360
     96       0.00000           0.380564           10.35566

  Highest occupied state (VBM) at     -9.06499306 eV
  | Occupation number:      2.00000000

  Lowest unoccupied state (CBM) at    -4.26790095 eV
  | Occupation number:      0.00000000

  Overall HOMO-LUMO gap:      4.79709210 eV.
  | Chemical Potential                          :    -7.51212960 eV

  Self-consistency cycle converged.


------------------------------------------------------------
  End self-consistency iteration #    14       :  max(cpu_time)    wall_clock(cpu1)
  | Time for this iteration                     :        0.308 s           0.305 s
  | Charge density & force component update     :        0.156 s           0.156 s
  | Density mixing                              :        0.007 s           0.004 s
  | Hartree multipole update                    :        0.008 s           0.008 s
  | Hartree multipole summation                 :        0.050 s           0.050 s
  | Hartree pot. SCF incomplete forces          :        0.031 s           0.031 s
  | Integration                                 :        0.035 s           0.035 s
  | Solution of K.-S. eqns.                     :        0.019 s           0.019 s
  | Total energy evaluation                     :        0.001 s           0.001 s

  Partial memory accounting:
  | Current value for overall tracked memory usage:
  |   Minimum:        0.274 MB (on task 23)
  |   Maximum:        0.293 MB (on task  0)
  |   Average:        0.289 MB
  | Peak value for overall tracked memory usage:
  |   Minimum:        2.853 MB (on task  3 after allocating hessian_basis_wave)
  |   Maximum:        2.980 MB (on task  7 after allocating hessian_basis_wave)
  |   Average:        2.915 MB
  | Largest tracked array allocation so far:
  |   Minimum:        1.388 MB (hessian_basis_wave on task  1)
  |   Maximum:        1.464 MB (hessian_basis_wave on task  7)
  |   Average:        1.423 MB
  Note:  These values currently only include a subset of arrays which are explicitly tracked.
  The "true" memory usage will be greater.
------------------------------------------------------------
  Removing unitary transformations (pure translations, rotations) from forces on atoms.
  Atomic forces before filtering:
  | Net force on center of mass :   0.722428E-02  0.347415E-04 -0.153043E-02 eV/A
  | Net torque on center of mass:   0.698393E-02 -0.157328E-02 -0.148640E-01 eV
  Atomic forces after filtering:
  | Net force on center of mass :   0.356812E-15  0.669023E-16  0.356812E-15 eV/A
  | Net torque on center of mass:   0.199438E-14  0.226580E-14  0.113290E-14 eV

  Energy and forces in a compact form:
  | Total energy uncorrected      :         -0.442208399769248E+05 eV
  | Total energy corrected        :         -0.442208399769248E+05 eV  <-- do not rely on this value for anything but (periodic) metals
  | Electronic free energy        :         -0.442208399769248E+05 eV
  Total atomic forces (unitary forces cleaned) [eV/Ang]:
  |    1         -0.733953233993889E+00          0.335350075131037E+01         -0.490469672528240E-01
  |    2          0.170345237424695E+01         -0.969359852713661E+00         -0.176841471194527E+01
  |    3         -0.136602774504357E+01         -0.159450809905587E+01          0.160018870340861E+01
  |    4         -0.156946528162916E+01         -0.198943542303685E+01         -0.179951842174191E+01
  |    5          0.217770181498289E+01         -0.926850468171595E+00          0.181333904406198E+01
  |    6          0.241762278969717E-01          0.743876495631891E+00          0.160620200196471E+00
  |    7          0.308846117019583E+00         -0.546240390994271E+00         -0.437835080608939E+00
  |    8          0.215466058103124E+01          0.203659682057788E+01         -0.231142667979308E+01
  |    9         -0.239185937318775E+01          0.111166128142461E+01          0.267814326079840E+01
  |   10         -0.295826821365604E+00         -0.669211998836933E+00          0.225801561406005E+00
  |   11          0.139459634324224E+01         -0.447321737943910E+00          0.118843926652741E+01
  |   12         -0.140630100319990E+01         -0.102707378191661E+00         -0.130029017505685E+01

  ------------------------------------ 
  Start decomposition of the XC Energy 
  ------------------------------------ 
  X and C from original XC functional choice 
  Hartree-Fock Energy :          0.000000000 Ha              0.000000000 eV
  X Energy            :       -140.256873807 Ha          -3816.583721941 eV
  C Energy            :         -4.962081515 Ha           -135.025108028 eV
  Total XC Energy     :       -145.218955323 Ha          -3951.608829969 eV
  ------------------------------------ 
  LDA X and C from self-consistent density 
  X Energy LDA        :       -132.850483046 Ha          -3615.045575176 eV
  C Energy LDA        :         -8.831160002 Ha           -240.308090392 eV
  ------------------------------------ 
  End decomposition of the XC Energy 
  ------------------------------------ 

------------------------------------------------------------

------------------------------------------------------------------------------
  Final output of selected total energy values:

  The following output summarizes some interesting total energy values
  at the end of a run (AFTER all relaxation, molecular dynamics, etc.).

  | Total energy of the DFT / Hartree-Fock s.c.f. calculation      :         -44220.839976925 eV
  | Final zero-broadening corrected energy (caution - metals only) :         -44220.839976925 eV
  | For reference only, the value of 1 Hartree used in FHI-aims is :             27.211384500 eV

  Before relying on these values, please be sure to understand exactly which
  total energy value is referred to by a given number. Different objects may
  all carry the same name 'total energy'. Definitions:

  Total energy of the DFT / Hartree-Fock s.c.f. calculation:
  | Note that this energy does not include ANY quantities calculated after the
  | s.c.f. cycle, in particular not ANY RPA, MP2, etc. many-body perturbation terms.

  Final zero-broadening corrected energy:
  | For metallic systems only, a broadening of the occupation numbers at the Fermi
  | level can be extrapolated back to zero broadening by an electron-gas inspired
  | formula. For all systems that are not real metals, this value can be
  | meaningless and should be avoided.

------------------------------------------------------------------------------
  Methods described in the following list of references were used in this FHI-aims run.
  If you publish the results, please make sure to cite these reference if they apply.
  FHI-aims is an academic code, and for our developers (often, Ph.D. students
  and postdocs), scientific credit in the community is essential.
  Thank you for helping us!

  For any use of FHI-aims, please cite:

    Volker Blum, Ralf Gehrke, Felix Hanke, Paula Havu, Ville Havu,
    Xinguo Ren, Karsten Reuter, and Matthias Scheffler
    'Ab initio molecular simulations with numeric atom-centered orbitals'
    Computer Physics Communications 180, 2175-2196 (2009)
    http://dx.doi.org/10.1016/j.cpc.2009.06.022


  The ELSI infrastructure was used in your run to solve the Kohn-Sham electronic structure.
  Please check out http://elsi-interchange.org to learn more.
  If scalability is important for your project, please acknowledge ELSI by citing:

    V. W-z. Yu, F. Corsetti, A. Garcia, W. P. Huhn, M. Jacquelin, W. Jia,
    B. Lange, L. Lin, J. Lu, W. Mi, A. Seifitokaldani, A. Vazquez-Mayagoitia,
    C. Yang, H. Yang, and V. Blum
    'ELSI: A unified software interface for Kohn-Sham electronic structure solvers'
    Computer Physics Communications 222, 267-285 (2018).
    http://dx.doi.org/10.1016/j.cpc.2017.09.007


  For the real-space grid partitioning and parallelization used in this calculation, please cite:

    Ville Havu, Volker Blum, Paula Havu, and Matthias Scheffler,
    'Efficient O(N) integration for all-electron electronic structure calculation'
    'using numerically tabulated basis functions'
    Journal of Computational Physics 228, 8367-8379 (2009).
    http://dx.doi.org/10.1016/j.jcp.2009.08.008

  Of course, there are many other important community references, e.g., those cited in the
  above references. Our list is limited to references that describe implementations in the
  FHI-aims code. The reason is purely practical (length of this list) - please credit others as well.

------------------------------------------------------------
          Leaving FHI-aims.
          Date     :  20220517, Time     :  122018.154

          Computational steps:
          | Number of self-consistency cycles          :           14
          | Number of SCF (re)initializations          :            1

          Detailed time accounting                     :  max(cpu_time)    wall_clock(cpu1)
          | Total time                                  :        2.341 s           2.413 s
          | Preparation time                            :        0.184 s           0.184 s
          | Boundary condition initalization            :        0.000 s           0.000 s
          | Grid partitioning                           :        0.038 s           0.039 s
          | Preloading free-atom quantities on grid     :        0.016 s           0.016 s
          | Free-atom superposition energy              :        0.005 s           0.005 s
          | Total time for integrations                 :        0.527 s           0.531 s
          | Total time for solution of K.-S. equations  :        0.274 s           0.273 s
          | Total time for density & force components   :        0.700 s           0.702 s
          | Total time for mixing                       :        0.092 s           0.048 s
          | Total time for Hartree multipole update     :        0.059 s           0.058 s
          | Total time for Hartree multipole sum        :        0.319 s           0.319 s
          | Total time for total energy evaluation      :        0.005 s           0.007 s
          | Total time NSC force correction             :        0.063 s           0.063 s
          | Total time for scaled ZORA corrections      :        0.000 s           0.000 s

          Partial memory accounting:
          | Residual value for overall tracked memory usage across tasks:     0.000000 MB (should be 0.000000 MB)
          | Peak values for overall tracked memory usage:
          |   Minimum:        2.853 MB (on task  3 after allocating hessian_basis_wave)
          |   Maximum:        2.980 MB (on task  7 after allocating hessian_basis_wave)
          |   Average:        2.915 MB
          | Largest tracked array allocation:
          |   Minimum:        1.388 MB (hessian_basis_wave on task  1)
          |   Maximum:        1.464 MB (hessian_basis_wave on task  7)
          |   Average:        1.423 MB
          Note:  These values currently only include a subset of arrays which are explicitly tracked.
          The "true" memory usage will be greater.

          Have a nice day.
------------------------------------------------------------
