------------------------------------------------------------
          Invoking FHI-aims ...

          When using FHI-aims, please cite the following reference:

            Volker Blum, Ralf Gehrke, Felix Hanke, Paula Havu,
            Ville Havu, Xinguo Ren, Karsten Reuter, and Matthias Scheffler,
            'Ab Initio Molecular Simulations with Numeric Atom-Centered Orbitals',
            Computer Physics Communications 180, 2175-2196 (2009)

          In addition, many other developments in FHI-aims are likely important for
          your particular application. A partial list of references is given at the end of
          this file. Thank you for giving credit to the authors of these developments.

          For any questions about FHI-aims, please visit our slack channel at

            https://fhi-aims.slack.com

          and our main development and support site at

            https://aims-git.rz-berlin.mpg.de .

          The latter site, in particular, has a wiki to collect information, as well
          as an issue tracker to log discussions, suggest improvements, and report issues
          or bugs. https://aims-git.rz-berlin.mpg.de is also the main development site
          of the project and all new and updated code versions can be obtained there.
          Please send an email to aims-coordinators@fhi-berlin.mpg.de and we will add
          you to these sites. They are for you and everyone is welcome there.

------------------------------------------------------------



  Date     :  20220517, Time     :  115843.574
  Time zero on CPU 1             :   0.355180000000000E-01  s.
  Internal wall clock time zero  :           422020723.574  s.

  FHI-aims created a unique identifier for this run for later identification
  aims_uuid : BB236D8E-08FF-4518-AA80-F0EC8C1D0FFB

  Build configuration of the current instance of FHI-aims
  -------------------------------------------------------
  FHI-aims version      : 210914
  Commit number         : GITDIR-NOTFOUND
  CMake host system     : Linux-3.10.0-693.17.1.el7.x86_64
  CMake version         : 3.21.1
  Fortran compiler      : /shared/ucl/apps/intel/2018.Update3/impi/2018.3.222/intel64/bin/mpiifort (Intel) version 18.0.3.20180410
  Fortran compiler flags: -O3 -ip -fp-model precise
  C compiler            : /shared/ucl/apps/intel/2018.Update3/compilers_and_libraries_2018.3.222/linux/bin/intel64/icc (Intel) version 18.0.3.20180410
  C compiler flags      : -O3 -ip -fp-model precise -std=gnu99
  ELPA2 kernel          : AVX2
  Using MPI
  Using ScaLAPACK
  Using LibXC
  Using i-PI
  Using RLSY
  Linking against: /shared/ucl/apps/intel/2019.Update5/compilers_and_libraries_2019.5.281/linux/mkl/lib/intel64/libmkl_intel_lp64.so
                   /shared/ucl/apps/intel/2019.Update5/compilers_and_libraries_2019.5.281/linux/mkl/lib/intel64/libmkl_sequential.so
                   /shared/ucl/apps/intel/2019.Update5/compilers_and_libraries_2019.5.281/linux/mkl/lib/intel64/libmkl_core.so
                   /shared/ucl/apps/intel/2019.Update5/compilers_and_libraries_2019.5.281/linux/mkl/lib/intel64/libmkl_blacs_intelmpi_lp64.so
                   /shared/ucl/apps/intel/2019.Update5/compilers_and_libraries_2019.5.281/linux/mkl/lib/intel64/libmkl_scalapack_lp64.so

  Using       24 parallel tasks.
  Task        0 on host node-k98a-014 reporting.
  Task        1 on host node-k98a-014 reporting.
  Task        2 on host node-k98a-014 reporting.
  Task        3 on host node-k98a-014 reporting.
  Task        4 on host node-k98a-014 reporting.
  Task        5 on host node-k98a-014 reporting.
  Task        6 on host node-k98a-014 reporting.
  Task        7 on host node-k98a-014 reporting.
  Task        8 on host node-k98a-014 reporting.
  Task        9 on host node-k98a-014 reporting.
  Task       10 on host node-k98a-014 reporting.
  Task       11 on host node-k98a-014 reporting.
  Task       12 on host node-k98a-014 reporting.
  Task       13 on host node-k98a-014 reporting.
  Task       14 on host node-k98a-014 reporting.
  Task       15 on host node-k98a-014 reporting.
  Task       16 on host node-k98a-014 reporting.
  Task       17 on host node-k98a-014 reporting.
  Task       18 on host node-k98a-014 reporting.
  Task       19 on host node-k98a-014 reporting.
  Task       20 on host node-k98a-014 reporting.
  Task       21 on host node-k98a-014 reporting.
  Task       22 on host node-k98a-014 reporting.
  Task       23 on host node-k98a-014 reporting.

  Performing system and environment tests:
  | Environment variable OMP_NUM_THREADS correctly set to 1.
  | Checking for ScaLAPACK...
  | Testing pdtran()...
  | All pdtran() tests passed.

  Obtaining array dimensions for all initial allocations:
  
  -----------------------------------------------------------------------
  Parsing control.in (first pass over file, find array dimensions only).
  The contents of control.in will be repeated verbatim below
  unless switched off by setting 'verbatim_writeout .false.' .
  in the first line of control.in .
  -----------------------------------------------------------------------
  
  #########################################################################################  Physical model
  #########################################################################################
  xc                 pbesol
  spin               none
  relativistic       atomic_zora scalar
  charge             0.0
  #  SCF convergence
  occupation_type    gaussian 0.01
  mixer              pulay
  n_max_pulay        10
  charge_mix_param   0.5
  sc_accuracy_rho    1E-5
  sc_accuracy_eev    1E-3
  sc_accuracy_etot   1E-6
  sc_accuracy_forces 1E-4
  sc_iter_limit      1500
  #  Relaxation
  #relax_geometry   bfgs 1.e-3
  
  ################################################################################
  #
  #  FHI-aims code project
  #  VB, Fritz-Haber Institut, 2009
  #
  #  Suggested "light" defaults for Al atom (to be pasted into control.in file)
  #  Be sure to double-check any results obtained with these settings for post-processing,
  #  e.g., with the "tight" defaults and larger basis sets.
  #
  ################################################################################
    species        Al
  #     global species definitions
      nucleus             13
      mass                26.9815386
  #
      l_hartree           4
  #
      cut_pot             3.5          1.5  1.0
      basis_dep_cutoff    1e-4
  #
      radial_base         41 5.0
      radial_multiplier   1
      angular_grids       specified
        division   0.6594  110
        division   0.8170  194
        division   0.9059  302
  #      division   1.0363  434
  #      division   1.1443  590
  #      division   1.2621  770
  #      division   2.8177  974
  #      outer_grid   974
        outer_grid   302
  ################################################################################
  #
  #  Definition of "minimal" basis
  #
  ################################################################################
  #     valence basis states
      valence      3  s   2.
      valence      3  p   1.
  #     ion occupancy
      ion_occ      3  s   1.
      ion_occ      2  p   6.
  ################################################################################
  #
  #  Suggested additional basis functions. For production calculations,
  #  uncomment them one after another (the most important basis functions are
  #  listed first).
  #
  #  Constructed for dimers: 2.0 A, 2.5 A, 3.0 A, 3.75 A, 4.5 A
  #
  ################################################################################
  #  "First tier" - improvements: -199.47 meV to -10.63 meV
       ionic 3 d auto
       ionic 3 p auto
  #     hydro 4 f 4.7
       ionic 3 s auto
  #  "Second tier" - improvements: -5.35 meV to -1.57 meV
  #     hydro 5 g 7
  #     hydro 3 d 6
  #     hydro 2 s 11.6
  #     hydro 2 p 0.9
  #  "Third tier" - improvements: -0.63 meV to -0.20 meV
  #     hydro 5 f 7.6
  #     hydro 4 p 7.2
  #     hydro 4 s 3.7
  #     hydro 4 d 7.6
  #  "Fourth tier" - improvements: -0.17 meV to -0.08 meV
  #     hydro 4 d 13.6
  #     hydro 5 g 11.2
  #     hydro 4 d 0.9
  #     hydro 1 s 0.4
  #     hydro 4 p 0.1
  #     hydro 5 f 9.8
  #  Further basis functions that fell out of the optimization - noise level...
  #     hydro 4 p 5
  
  ################################################################################
  #
  #  FHI-aims code project
  #  VB, Fritz-Haber Institut, 2009
  #
  #  Suggested "light" defaults for F atom (to be pasted into control.in file)
  #  Be sure to double-check any results obtained with these settings for post-processing,
  #  e.g., with the "tight" defaults and larger basis sets.
  #
  ################################################################################
    species        F
  #     global species definitions
      nucleus             9
      mass                18.9984032
  #
      l_hartree           4
  #
      cut_pot             3.5  1.5  1.0
      basis_dep_cutoff    1e-4
  #
      radial_base         37 5.0
      radial_multiplier   1
      angular_grids specified
        division   0.4014  110
        division   0.5291  194
        division   0.6019  302
  #      division   0.6814  434
  #      division   0.7989  590
  #      division   0.8965  770
  #      division   1.3427  974
  #      outer_grid   974
        outer_grid   302
  ################################################################################
  #
  #  Definition of "minimal" basis
  #
  ################################################################################
  #     valence basis states
      valence      2  s   2.
      valence      2  p   5.
  #     ion occupancy
      ion_occ      2  s   1.
      ion_occ      2  p   4.
  ################################################################################
  #
  #  Suggested additional basis functions. For production calculations,
  #  uncomment them one after another (the most important basis functions are
  #  listed first).
  #
  #  Constructed for dimers: 1.2 A, 1.418 A, 1.75 A, 2.25 A, 3.25 A
  #
  ################################################################################
  #  "First tier" - improvements: -149.44 meV to -45.88 meV
       hydro 2 p 1.7
       hydro 3 d 7.4
       hydro 3 s 6.8
  #  "Second tier" - improvements: -12.96 meV to -1.56 meV
  #     hydro 4 f 11.2
  #     ionic 2 p auto
  #     hydro 1 s 0.75
  #     hydro 4 d 8.8
  #     hydro 5 g 16.8
  #  "Third tier" - improvements: -0.58 meV to -0.05 meV
  #     hydro 3 p 6.2
  #     hydro 3 s 3.2
  #     hydro 4 f 9.6
  #     hydro 3 s 19.6
  #     hydro 4 d 8.6
  #     hydro 5 g 14.4
  # Further basis functions: -0.05 meV and below
  #     hydro 3 p 4.2
  
  -----------------------------------------------------------------------
  Completed first pass over input file control.in .
  -----------------------------------------------------------------------
  
  
  -----------------------------------------------------------------------
  Parsing geometry.in (first pass over file, find array dimensions only).
  The contents of geometry.in will be repeated verbatim below
  unless switched off by setting 'verbatim_writeout .false.' .
  in the first line of geometry.in .
  -----------------------------------------------------------------------
  
  atom -0.510059638 0.999964760 -1.912104736 Al
  atom -0.469921381 1.069302091 1.268594601 Al
  atom -3.209514903 0.416021678 -1.940458409 Al
  atom -3.475259455 0.330288136 -3.424322161 F
  atom -1.298626558 -0.538372904 -1.837011338 F
  atom -1.863900693 2.077201389 -1.886896761 F
  atom -2.005238977 0.722245855 0.469167709 F
  atom 0.654342416 1.284780097 -0.173125975 F
  atom -0.299560181 2.753546404 1.995132571 F
  atom 0.374786008 -0.366719671 2.054640958 F
  atom -4.188348567 0.228818926 -0.664203313 F
  atom 0.771301819 1.251228903 -3.257610444 F
  
  -----------------------------------------------------------------------
  Completed first pass over input file geometry.in .
  -----------------------------------------------------------------------
  

  Basic array size parameters:
  | Number of species                 :        2
  | Number of atoms                   :       12
  | Max. basis fn. angular momentum   :        2
  | Max. atomic/ionic basis occupied n:        3
  | Max. number of basis fn. types    :        3
  | Max. radial fns per species/type  :        5
  | Max. logarithmic grid size        :     1340
  | Max. radial integration grid size :       41
  | Max. angular integration grid size:      302
  | Max. angular grid division number :        8
  | Radial grid for Hartree potential :     1340
  | Number of spin channels           :        1

------------------------------------------------------------
          Reading file control.in.
------------------------------------------------------------
  XC: Using PBEsol gradient-corrected functionals.
  Spin treatment: No spin polarisation.
  Scalar relativistic treatment of kinetic energy: on-site free-atom approximation to ZORA.
  Charge =   0.000000E+00: Neutral system requested explicitly.
  Occupation type: Gaussian broadening, width =   0.100000E-01 eV.
  Using pulay charge density mixing.
  Pulay mixing - number of memorized iterations:   10
  Charge density mixing - mixing parameter:     0.5000
  Convergence accuracy of self-consistent charge density:  0.1000E-04
  Convergence accuracy of sum of eigenvalues:  0.1000E-02
  Convergence accuracy of total energy:  0.1000E-05
  Convergence accuracy of forces:  0.1000E-03
  Maximum number of s.-c. iterations  :  1500
 
  Reading configuration options for species Al                  .
  | Found nuclear charge :  13.0000
  | Found atomic mass :    26.9815386000000      amu
  | Found l_max for Hartree potential  :   4
  | Found cutoff potl. onset [A], width [A], scale factor :    3.50000    1.50000    1.00000
  | Threshold for basis-dependent cutoff potential is   0.100000E-03
  | Found data for basic radial integration grid :    41 points, outermost radius =    5.000 A
  | Found multiplier for basic radial grid :   1
  | Found angular grid specification: user-specified.
  | Specified grid contains     4 separate shells.
  | Check grid settings after all constraints further below.
  | Found free-atom valence shell :  3 s   2.000
  | Found free-atom valence shell :  3 p   1.000
  | Found free-ion valence shell :  3 s   1.000
  | Found free-ion valence shell :  2 p   6.000
  | Found ionic basis function :  3 d , default cutoff radius.
  | Found ionic basis function :  3 p , default cutoff radius.
  | Found ionic basis function :  3 s , default cutoff radius.
  Species Al                  : Missing cutoff potential type.
  Defaulting to exp(1/x)/(1-x)^2 type cutoff potential.
  Species Al: No 'logarithmic' tag. Using default grid for free atom:
  | Default logarithmic grid data [bohr] : 0.1000E-03 0.1000E+03 0.1012E+01
  | Will include ionic basis functions of  2.0-fold positive Al                   ion.
  Species Al: On-site basis accuracy parameter (for Gram-Schmidt orthonormalisation) not specified.
  Using default value basis_acc =  0.1000000E-03.
  Species Al                  : Using default innermost maximum threshold i_radial=  2 for radial functions.
  Species Al                  : Default cutoff onset for free atom density etc. : 0.35000000E+01 AA.
  Species Al                  : Basic radial grid will be enhanced according to radial_multiplier =   1, to contain    41 grid points.
 
  Reading configuration options for species F                   .
  | Found nuclear charge :   9.0000
  | Found atomic mass :    18.9984032000000      amu
  | Found l_max for Hartree potential  :   4
  | Found cutoff potl. onset [A], width [A], scale factor :    3.50000    1.50000    1.00000
  | Threshold for basis-dependent cutoff potential is   0.100000E-03
  | Found data for basic radial integration grid :    37 points, outermost radius =    5.000 A
  | Found multiplier for basic radial grid :   1
  | Found angular grid specification: user-specified.
  | Specified grid contains     4 separate shells.
  | Check grid settings after all constraints further below.
  | Found free-atom valence shell :  2 s   2.000
  | Found free-atom valence shell :  2 p   5.000
  | Found free-ion valence shell :  2 s   1.000
  | Found free-ion valence shell :  2 p   4.000
  | Found hydrogenic basis function :  2 p   1.700
  | Found hydrogenic basis function :  3 d   7.400
  | Found hydrogenic basis function :  3 s   6.800
  Species F                   : Missing cutoff potential type.
  Defaulting to exp(1/x)/(1-x)^2 type cutoff potential.
  Species F : No 'logarithmic' tag. Using default grid for free atom:
  | Default logarithmic grid data [bohr] : 0.1000E-03 0.1000E+03 0.1012E+01
  Species F : On-site basis accuracy parameter (for Gram-Schmidt orthonormalisation) not specified.
  Using default value basis_acc =  0.1000000E-03.
  Species F                   : Using default innermost maximum threshold i_radial=  2 for radial functions.
  Species F                   : Default cutoff onset for free atom density etc. : 0.35000000E+01 AA.
  Species F                   : Basic radial grid will be enhanced according to radial_multiplier =   1, to contain    37 grid points.
 
  Finished reading input file 'control.in'.
 
------------------------------------------------------------


------------------------------------------------------------
          Reading geometry description geometry.in.
------------------------------------------------------------
  | The smallest distance between any two atoms is         1.50990796 AA.
  | The first atom of this pair is atom number                      3 .
  | The second atom of this pair is atom number                     4 .
  Input structure read successfully.
  The structure contains       12 atoms,  and a total of        120.000 electrons.

  Input geometry:
  | No unit cell requested.
  | Atomic structure:
  |       Atom                x [A]            y [A]            z [A]
  |    1: Species Al           -0.51005964        0.99996476       -1.91210474
  |    2: Species Al           -0.46992138        1.06930209        1.26859460
  |    3: Species Al           -3.20951490        0.41602168       -1.94045841
  |    4: Species F            -3.47525946        0.33028814       -3.42432216
  |    5: Species F            -1.29862656       -0.53837290       -1.83701134
  |    6: Species F            -1.86390069        2.07720139       -1.88689676
  |    7: Species F            -2.00523898        0.72224586        0.46916771
  |    8: Species F             0.65434242        1.28478010       -0.17312597
  |    9: Species F            -0.29956018        2.75354640        1.99513257
  |   10: Species F             0.37478601       -0.36671967        2.05464096
  |   11: Species F            -4.18834857        0.22881893       -0.66420331
  |   12: Species F             0.77130182        1.25122890       -3.25761044

 
  Finished reading input file 'control.in'.
 

------------------------------------------------------------
          Reading geometry description geometry.in.
------------------------------------------------------------
 
  Consistency checks for stacksize environment parameter are next.
 
  | Maximum stacksize for task 0: unlimited
  | Maximum stacksize for task 1: unlimited
  | Maximum stacksize for task 2: unlimited
  | Maximum stacksize for task 3: unlimited
  | Maximum stacksize for task 4: unlimited
  | Maximum stacksize for task 5: unlimited
  | Maximum stacksize for task 6: unlimited
  | Maximum stacksize for task 7: unlimited
  | Maximum stacksize for task 8: unlimited
  | Maximum stacksize for task 9: unlimited
  | Maximum stacksize for task 10: unlimited
  | Maximum stacksize for task 11: unlimited
  | Maximum stacksize for task 12: unlimited
  | Maximum stacksize for task 13: unlimited
  | Maximum stacksize for task 14: unlimited
  | Maximum stacksize for task 15: unlimited
  | Maximum stacksize for task 16: unlimited
  | Maximum stacksize for task 17: unlimited
  | Maximum stacksize for task 18: unlimited
  | Maximum stacksize for task 19: unlimited
  | Maximum stacksize for task 20: unlimited
  | Maximum stacksize for task 21: unlimited
  | Maximum stacksize for task 22: unlimited
  | Maximum stacksize for task 23: unlimited
  | Current stacksize for task 0: unlimited
  | Current stacksize for task 1: unlimited
  | Current stacksize for task 2: unlimited
  | Current stacksize for task 3: unlimited
  | Current stacksize for task 4: unlimited
  | Current stacksize for task 5: unlimited
  | Current stacksize for task 6: unlimited
  | Current stacksize for task 7: unlimited
  | Current stacksize for task 8: unlimited
  | Current stacksize for task 9: unlimited
  | Current stacksize for task 10: unlimited
  | Current stacksize for task 11: unlimited
  | Current stacksize for task 12: unlimited
  | Current stacksize for task 13: unlimited
  | Current stacksize for task 14: unlimited
  | Current stacksize for task 15: unlimited
  | Current stacksize for task 16: unlimited
  | Current stacksize for task 17: unlimited
  | Current stacksize for task 18: unlimited
  | Current stacksize for task 19: unlimited
  | Current stacksize for task 20: unlimited
  | Current stacksize for task 21: unlimited
  | Current stacksize for task 22: unlimited
  | Current stacksize for task 23: unlimited
 
  Consistency checks for the contents of control.in are next.
 
  MPI_IN_PLACE appears to work with this MPI implementation.
  | Keeping use_mpi_in_place .true. (see manual).
  Target number of points in a grid batch is not set. Defaulting to  100
  Method for grid partitioning is not set. Defaulting to parallel hash+maxmin partitioning.
  Batch size limit is not set. Defaulting to    200
  By default, will store active basis functions for each batch.
  If in need of memory, prune_basis_once .false. can be used to disable this option.
  communication_type for Hartree potential was not specified.
  Defaulting to calc_hartree .
  Pulay mixer: Number of initial linear mixing iterations not set.
  Defaulting to    0 iterations.
  Work space size for distributed Hartree potential not set.
  Defaulting to   0.200000E+03 MB.
  Algorithm-dependent basis array size parameters:
  | n_max_pulay                         :       10
  Presetting      1001 iterations before the initial mixing cycle
  is restarted anyway using the sc_init_iter criterion / keyword.
  Presetting a factor      1.000 between actual scf density residual
  and density convergence criterion sc_accuracy_rho below which sc_init_iter
  takes no effect.
  Geometry relaxation not requested: no relaxation will be performed.
  Forces evaluation will include force correction term due to incomplete self-consistency (default).
  Handling of forces: Unphysical translation and rotation will be removed from forces.
  No accuracy limit for integral partition fn. given. Defaulting to  0.1000E-14.
  No threshold value for u(r) in integrations given. Defaulting to  0.1000E-05.
  No accuracy for occupation numbers given. Defaulting to  0.1000E-12.
  No threshold value for occupation numbers given. Defaulting to  0.0000E+00.
  No accuracy for fermi level given. Defaulting to  0.1000E-19.
  Maximum # of iterations to find E_F not set. Defaulting to  200.
  Preferred method for the eigenvalue solver ('KS_method') not specified in 'control.in'.
  Calling BLACS routine to test compilation state
  Since ScaLAPACK support is enabled, defaulting to ELPA (via ELSI).
  Will not use alltoall communication since running on < 1024 CPUs.
  Threshold for basis singularities not set.
  Default threshold for basis singularities:  0.1000E-04
  partition_type (choice of integration weights) for integrals was not specified.
  | Using a version of the partition function of Stratmann and coworkers ('stratmann_sparse').
  | At each grid point, the set of atoms used to build the partition table is smoothly restricted to
  | only those atoms whose free-atom density would be non-zero at that grid point.
  Partitioning for Hartree potential was not defined. Using partition_type for integrals.
  | Adjusted default value of keyword multip_moments_threshold to:       0.10000000E-11
  | This value may affect high angular momentum components of the Hartree potential in periodic systems.
  No q(lm)/r^(l+1) cutoff set for long-range Hartree potential.
  | Using default value of  0.100000E-09 .
  | Verify using the multipole_threshold keyword.
  Defaulting to new monopole extrapolation.
  Density update method: automatic selection selected.
  Charge integration errors on the 3D integration grid will be compensated
  by explicit normalization and distribution of residual charges.
  Use the "compensate_multipole_errors" flag to change this behaviour.
  Set 'collect_eigenvectors' to be '.true.' for use_density_matrix .false.
 
  Consistency checks for the contents of geometry.in are next.
 
  Number of empty states per atom not set in control.in - providing a guess from actual geometry.
  | Total number of empty states used during s.c.f. cycle:       36
  If you use a very high smearing, use empty_states (per atom!) in control.in to increase this value.

  Structure-dependent array size parameters: 
  | Maximum number of distinct radial functions  :       14
  | Maximum number of basis functions            :      180
  | Number of Kohn-Sham states (occupied + empty):       96
------------------------------------------------------------

------------------------------------------------------------
          Preparing all fixed parts of the calculation.
------------------------------------------------------------
  Determining machine precision:
    2.225073858507201E-308
  Setting up grids for atomic and cluster calculations.

  Creating wave function, potential, and density for free atoms.

  Species: Al

  List of occupied orbitals and eigenvalues:
    n    l              occ      energy [Ha]    energy [eV]
    1    0           2.0000       -55.621123     -1513.5278
    2    0           2.0000        -3.957030      -107.6763
    3    0           2.0000        -0.272233        -7.4078
    2    1           6.0000        -2.540949       -69.1427
    3    1           1.0000        -0.083300        -2.2667


  Species: F

  List of occupied orbitals and eigenvalues:
    n    l              occ      energy [Ha]    energy [eV]
    1    0           2.0000       -24.399611      -663.9472
    2    0           2.0000        -1.098702       -29.8972
    2    1           5.0000        -0.408210       -11.1080


  Adding cutoff potential to free-atom effective potential.
  Creating fixed part of basis set: Ionic, confined, hydrogenic.
 
  Al                   ion:

  List of free ionic orbitals and eigenvalues:
    n    l      energy [Ha]    energy [eV]
    1    0       -56.418846     -1535.2349
    2    0        -4.732717      -128.7838
    3    0        -0.872690       -23.7471
    2    1        -3.317230       -90.2664


  List of ionic basis orbitals and eigenvalues:
    n    l      energy [Ha]    energy [eV]    outer radius [A]
    3    2        -0.346815        -9.4373       4.594041
    3    1        -0.631870       -17.1940       4.538221
    3    0        -0.872657       -23.7462       4.538221

 
  F                    hydrogenic:
 
  List of hydrogenic basis orbitals: 
    n    l      effective z      eigenvalue [eV]  inner max. [A]     outer max. [A]     outer radius [A]   
    2    1         1.700000        -9.7616           1.243167           1.243167           4.598524
    3    2         7.400000       -82.7828           0.642437           0.642437           3.305741
    3    0         6.800000       -69.9026           0.057798           1.022307           3.781556
 
  Creating atomic-like basis functions for current effective potential.

  Species Al                  :

  List of atomic basis orbitals and eigenvalues:
    n    l      energy [Ha]    energy [eV]    outer radius [A]
    1    0       -55.621123     -1513.5278       0.850197
    2    0        -3.957030      -107.6763       3.144911
    3    0        -0.272233        -7.4078       4.594041
    2    1        -2.540949       -69.1427       3.731966
    3    1        -0.083300        -2.2667       4.594041


  Species F                   :

  List of atomic basis orbitals and eigenvalues:
    n    l      energy [Ha]    energy [eV]    outer radius [A]
    1    0       -24.399611      -663.9472       1.258458
    2    0        -1.098702       -29.8972       4.325857
    2    1        -0.408210       -11.1080       4.487453

  Assembling full basis from fixed parts.
  | Species Al :   atomic orbital   1 s accepted.
  | Species Al :   atomic orbital   2 s accepted.
  | Species Al :    ionic orbital   3 s accepted.
  | Species Al :   atomic orbital   3 s accepted.
  | Species Al :   atomic orbital   2 p accepted.
  | Species Al :    ionic orbital   3 p accepted.
  | Species Al :   atomic orbital   3 p accepted.
  | Species Al :    ionic orbital   3 d accepted.
  | Species F :   atomic orbital   1 s accepted.
  | Species F :    hydro orbital   3 s accepted.
  | Species F :   atomic orbital   2 s accepted.
  | Species F :   atomic orbital   2 p accepted.
  | Species F :    hydro orbital   2 p accepted.
  | Species F :    hydro orbital   3 d accepted.
 
  Basis size parameters after reduction:
  | Total number of radial functions:       14
  | Total number of basis functions :      180
 
  Per-task memory consumption for arrays in subroutine allocate_ext:
  |           4.807768MB.
  Testing on-site integration grid accuracy.
  |  Species  Function  <phi|h_atom|phi> (log., in eV)  <phi|h_atom|phi> (rad., in eV)
           1        1              -1513.5277717935              -1513.5271881332
           1        2               -107.6762691836               -107.6762662489
           1        3                 -6.9467474784                 -6.9471269649
           1        4                  5.5771951849                  5.4862107220 ***
           1        5                -69.1427313144                -69.1427312731
           1        6                 -1.5197375330                 -1.5230432022
           1        7                  6.8210948310                  6.5529872240 ***
           1        8                  4.3216540965                  4.2851170187 ***
           2        9               -663.9471986398               -663.9470363334
           2       10                 16.8514011578                 16.8512525338
           2       11                -28.4490593856                -28.4490661472
           2       12                -11.1080115307                -11.1080620173
           2       13                  7.1940182175                  7.1685154137
           2       14                 44.8544281765                 44.8543763625
 * Note: Onsite integrals marked "***" above are less accurate than
 * onsite_accuracy_threshold =    0.03000 eV. Usually, this is harmless.
 * When in doubt, tighten the "radial" and/or "radial_multiplier" flags to check.

  Preparing densities etc. for the partition functions (integrals / Hartree potential).

  Preparations completed.
  max(cpu_time)          :      0.185 s.
  Wall clock time (cpu1) :      0.186 s.
------------------------------------------------------------

------------------------------------------------------------
          Begin self-consistency loop: Initialization.

          Date     :  20220517, Time     :  115848.981
------------------------------------------------------------

  Initializing index lists of integration centers etc. from given atomic structure:
  | Number of centers in hartree potential         :        12
  | Number of centers in hartree multipole         :        12
  | Number of centers in electron density summation:        12
  | Number of centers in basis integrals           :        12
  | Number of centers in integrals                 :        12
  | Number of centers in hamiltonian               :        12
  * Using 24 tasks for Scalapack Eigenvalue solver.
  Detailed listing of tasks and assigned k-points:
  (for non-periodic systems, the "k-point" denotes an internal label only)
   Task     0 k-point     1 on node-k98a-014
   Task     1 k-point     1 on node-k98a-014
   Task     2 k-point     1 on node-k98a-014
   Task     3 k-point     1 on node-k98a-014
   Task     4 k-point     1 on node-k98a-014
   Task     5 k-point     1 on node-k98a-014
   Task     6 k-point     1 on node-k98a-014
   Task     7 k-point     1 on node-k98a-014
   Task     8 k-point     1 on node-k98a-014
   Task     9 k-point     1 on node-k98a-014
   Task    10 k-point     1 on node-k98a-014
   Task    11 k-point     1 on node-k98a-014
   Task    12 k-point     1 on node-k98a-014
   Task    13 k-point     1 on node-k98a-014
   Task    14 k-point     1 on node-k98a-014
   Task    15 k-point     1 on node-k98a-014
   Task    16 k-point     1 on node-k98a-014
   Task    17 k-point     1 on node-k98a-014
   Task    18 k-point     1 on node-k98a-014
   Task    19 k-point     1 on node-k98a-014
   Task    20 k-point     1 on node-k98a-014
   Task    21 k-point     1 on node-k98a-014
   Task    22 k-point     1 on node-k98a-014
   Task    23 k-point     1 on node-k98a-014
  Tasks:    24 split into      6 X      4 BLACS grid
  Calculating block size based on n_basis =          180  max_nprow =            6  max_npcol =            4
  ScaLAPACK block size set to:           16
  Allocating        0.012 MB for ovlp
  Allocating        0.012 MB for ham
  Allocating        0.012 MB for eigenvec
  Required Scalapack workspace - INTEGER:            1  REAL:             1
  Partitioning the integration grid into batches with parallel hashing+maxmin method.
  | Number of batches:     1026
  | Maximal batch size:     197
  | Minimal batch size:      17
  | Average batch size:      89.591
  | Standard deviation of batch sizes:      31.875

  Integration load balanced across    24 MPI tasks.
  Work distribution over tasks is as follows:
  Task     0 has       3893 integration points.
  Task     1 has       3891 integration points.
  Task     2 has       3828 integration points.
  Task     3 has       3819 integration points.
  Task     4 has       3756 integration points.
  Task     5 has       3807 integration points.
  Task     6 has       3842 integration points.
  Task     7 has       3865 integration points.
  Task     8 has       3786 integration points.
  Task     9 has       3821 integration points.
  Task    10 has       3768 integration points.
  Task    11 has       3766 integration points.
  Task    12 has       3833 integration points.
  Task    13 has       3764 integration points.
  Task    14 has       3839 integration points.
  Task    15 has       3847 integration points.
  Task    16 has       3800 integration points.
  Task    17 has       3904 integration points.
  Task    18 has       3801 integration points.
  Task    19 has       3888 integration points.
  Task    20 has       3762 integration points.
  Task    21 has       3949 integration points.
  Task    22 has       3804 integration points.
  Task    23 has       3887 integration points.
  Initializing partition tables, free-atom densities, potentials, etc. across the integration grid (initialize_grid_storage).
  | initialize_grid_storage: Actual outermost partition radius vs. multipole_radius_free
  | (-- VB: in principle, multipole_radius_free should be larger, hence this output)
  | Species        1: Confinement radius =              4.999999999999999 AA, multipole_radius_free =              5.004487022111096 AA.
  | Species        1: outer_partition_radius set to              5.004487022111096 AA .
  | Species        2: Confinement radius =              4.999999999999999 AA, multipole_radius_free =              5.009370088163274 AA.
  | Species        2: outer_partition_radius set to              5.009370088163274 AA .
  | The sparse table of interatomic distances needs          1.64 kbyte instead of         1.15 kbyte of memory.
  | Using the partition_type stratmann_smoother will reduce your memory usage.
  | Net number of integration points:    91920
  | of which are non-zero points    :    85547
  Renormalizing the initial density to the exact electron count on the 3D integration grid.
  | Initial density: Formal number of electrons (from input files) :     120.0000000000
  | Integrated number of electrons on 3D grid     :     119.9999343727
  | Charge integration error                      :      -0.0000656273
  | Normalization factor for density and gradient :       1.0000005469
  Renormalizing the free-atom superposition density to the exact electron count on the 3D integration grid.
  | Formal number of electrons (from input files) :     120.0000000000
  | Integrated number of electrons on 3D grid     :     119.9999343727
  | Charge integration error                      :      -0.0000656273
  | Normalization factor for density and gradient :       1.0000005469
  Obtaining max. number of non-zero basis functions in each batch (get_n_compute_maxes).
  | Maximal number of non-zero basis functions:      165 in task     0
  | Maximal number of non-zero basis functions:      171 in task     1
  | Maximal number of non-zero basis functions:      163 in task     2
  | Maximal number of non-zero basis functions:      171 in task     3
  | Maximal number of non-zero basis functions:      166 in task     4
  | Maximal number of non-zero basis functions:      165 in task     5
  | Maximal number of non-zero basis functions:      170 in task     6
  | Maximal number of non-zero basis functions:      165 in task     7
  | Maximal number of non-zero basis functions:      172 in task     8
  | Maximal number of non-zero basis functions:      159 in task     9
  | Maximal number of non-zero basis functions:      165 in task    10
  | Maximal number of non-zero basis functions:      165 in task    11
  | Maximal number of non-zero basis functions:      166 in task    12
  | Maximal number of non-zero basis functions:      164 in task    13
  | Maximal number of non-zero basis functions:      172 in task    14
  | Maximal number of non-zero basis functions:      171 in task    15
  | Maximal number of non-zero basis functions:      163 in task    16
  | Maximal number of non-zero basis functions:      165 in task    17
  | Maximal number of non-zero basis functions:      165 in task    18
  | Maximal number of non-zero basis functions:      165 in task    19
  | Maximal number of non-zero basis functions:      160 in task    20
  | Maximal number of non-zero basis functions:      164 in task    21
  | Maximal number of non-zero basis functions:      166 in task    22
  | Maximal number of non-zero basis functions:      165 in task    23
  Selecting the method for density update.
  Loop over occupied states selected for charge density update.
  Allocating        0.132 MB for KS_eigenvector
  Integrating Hamiltonian matrix: batch-based integration.
  Time summed over all CPUs for integration: real work        0.700 s, elapsed        0.751 s
  Integrating overlap matrix.
  Time summed over all CPUs for integration: real work        0.275 s, elapsed        0.299 s
  Deallocating overlap matrix.

  Updating Kohn-Sham eigenvalues and eigenvectors using ELSI and the ELPA eigensolver.
  Overlap matrix is not singular
  | Lowest and highest eigenvalues :  0.4166E-02,  0.5189E+01
  Finished singularity check of overlap matrix
  | Time :     0.004 s
  Starting ELPA eigensolver
  Finished Cholesky decomposition
  | Time :     0.002 s
  Finished transformation to standard eigenproblem
  | Time :     0.000 s
  Finished solving standard eigenproblem
  | Time :     0.004 s
  Finished back-transformation of eigenvectors
  | Time :     0.000 s

  Obtaining occupation numbers and chemical potential using ELSI.
  | Chemical potential (Fermi level):    -7.97777908 eV
  Writing Kohn-Sham eigenvalues.

  State    Occupation    Eigenvalue [Ha]    Eigenvalue [eV]
      1       2.00000         -55.489126        -1509.93595
      2       2.00000         -55.485227        -1509.82985
      3       2.00000         -55.483462        -1509.78181
      4       2.00000         -24.398270         -663.91071
      5       2.00000         -24.371651         -663.18637
      6       2.00000         -24.366532         -663.04706
      7       2.00000         -24.366532         -663.04706
      8       2.00000         -24.353555         -662.69395
      9       2.00000         -24.350475         -662.61015
     10       2.00000         -24.337631         -662.26064
     11       2.00000         -24.337631         -662.26064
     12       2.00000         -24.334228         -662.16804
     13       2.00000          -3.957684         -107.69406
     14       2.00000          -3.951079         -107.51433
     15       2.00000          -3.948697         -107.44952
     16       2.00000          -2.556444          -69.56439
     17       2.00000          -2.548505          -69.34834
     18       2.00000          -2.545534          -69.26750
     19       2.00000          -2.544156          -69.23000
     20       2.00000          -2.543542          -69.21329
     21       2.00000          -2.541399          -69.15499
     22       2.00000          -2.541222          -69.15016
     23       2.00000          -2.540566          -69.13233
     24       2.00000          -2.540080          -69.11909
     25       2.00000          -1.224371          -33.31682
     26       2.00000          -1.194649          -32.50806
     27       2.00000          -1.190553          -32.39661
     28       2.00000          -1.183671          -32.20932
     29       2.00000          -1.171730          -31.88438
     30       2.00000          -1.162705          -31.63881
     31       2.00000          -1.145301          -31.16521
     32       2.00000          -1.143712          -31.12199
     33       2.00000          -1.139894          -31.01810
     34       2.00000          -0.566634          -15.41889
     35       2.00000          -0.553089          -15.05031
     36       2.00000          -0.541547          -14.73623
     37       2.00000          -0.532115          -14.47959
     38       2.00000          -0.529101          -14.39756
     39       2.00000          -0.526018          -14.31367
     40       2.00000          -0.514394          -13.99737
     41       2.00000          -0.510412          -13.88901
     42       2.00000          -0.507804          -13.81804
     43       2.00000          -0.502523          -13.67436
     44       2.00000          -0.493846          -13.43823
     45       2.00000          -0.489750          -13.32678
     46       2.00000          -0.487934          -13.27736
     47       2.00000          -0.483277          -13.15063
     48       2.00000          -0.483114          -13.14621
     49       2.00000          -0.479406          -13.04530
     50       2.00000          -0.476515          -12.96664
     51       2.00000          -0.470074          -12.79136
     52       2.00000          -0.467867          -12.73132
     53       2.00000          -0.460216          -12.52312
     54       2.00000          -0.457580          -12.45139
     55       2.00000          -0.451410          -12.28349
     56       2.00000          -0.447973          -12.18998
     57       2.00000          -0.444317          -12.09048
     58       2.00000          -0.443515          -12.06866
     59       2.00000          -0.443472          -12.06747
     60       2.00000          -0.442046          -12.02868
     61       0.00000          -0.142174           -3.86876
     62       0.00000          -0.095694           -2.60396
     63       0.00000          -0.078796           -2.14415
     64       0.00000          -0.030161           -0.82073
     65       0.00000          -0.018870           -0.51347
     66       0.00000           0.003791            0.10316
     67       0.00000           0.009334            0.25398
     68       0.00000           0.029966            0.81542
     69       0.00000           0.043046            1.17135
     70       0.00000           0.043515            1.18411
     71       0.00000           0.079797            2.17139
     72       0.00000           0.105987            2.88405
     73       0.00000           0.143802            3.91304
     74       0.00000           0.161310            4.38948
     75       0.00000           0.169705            4.61791
     76       0.00000           0.169878            4.62261
     77       0.00000           0.181742            4.94544
     78       0.00000           0.187271            5.09590
     79       0.00000           0.192442            5.23662
     80       0.00000           0.202796            5.51836
     81       0.00000           0.205281            5.58599
     82       0.00000           0.217670            5.92311
     83       0.00000           0.221227            6.01989
     84       0.00000           0.236797            6.44357
     85       0.00000           0.241983            6.58469
     86       0.00000           0.247127            6.72466
     87       0.00000           0.259491            7.06111
     88       0.00000           0.270668            7.36525
     89       0.00000           0.301868            8.21426
     90       0.00000           0.303227            8.25122
     91       0.00000           0.311912            8.48756
     92       0.00000           0.324395            8.82723
     93       0.00000           0.338221            9.20347
     94       0.00000           0.345434            9.39974
     95       0.00000           0.352679            9.59689
     96       0.00000           0.361319            9.83200

  Highest occupied state (VBM) at    -12.02867927 eV
  | Occupation number:      2.00000000

  Lowest unoccupied state (CBM) at    -3.86875519 eV
  | Occupation number:      0.00000000

  Overall HOMO-LUMO gap:      8.15992408 eV.
  Calculating total energy contributions from superposition of free atom densities.

  Total energy components:
  | Sum of eigenvalues            :        -888.39152286 Ha      -24174.36331513 eV
  | XC energy correction          :        -144.37987449 Ha       -3928.77627887 eV
  | XC potential correction       :         187.99435638 Ha        5115.58671533 eV
  | Free-atom electrostatic energy:        -780.55574991 Ha      -21240.00263439 eV
  | Hartree energy correction     :           0.00000000 Ha           0.00000000 eV
  | Entropy correction            :           0.00000000 Ha           0.00000000 eV
  | ---------------------------
  | Total energy                  :       -1625.33279088 Ha      -44227.55551306 eV
  | Total energy, T -> 0          :       -1625.33279088 Ha      -44227.55551306 eV  <-- do not rely on this value for anything but (periodic) metals
  | Electronic free energy        :       -1625.33279088 Ha      -44227.55551306 eV

  Derived energy quantities:
  | Kinetic energy                :        1627.77120607 Ha       44293.90816630 eV
  | Electrostatic energy          :       -3108.72412245 Ha      -84592.68740048 eV
  | Energy correction for multipole
  | error in Hartree potential    :           0.00000000 Ha           0.00000000 eV
  | Sum of eigenvalues per atom                           :       -2014.53027626 eV
  | Total energy (T->0) per atom                          :       -3685.62962609 eV  <-- do not rely on this value for anything but (periodic) metals
  | Electronic free energy per atom                       :       -3685.62962609 eV
  Initialize hartree_potential_storage
  Max. number of atoms included in rho_multipole:           12

  End scf initialization - timings             :  max(cpu_time)    wall_clock(cpu1)
  | Time for scf. initialization                :        0.115 s           0.115 s
  | Boundary condition initialization           :        0.000 s           0.000 s
  | Integration                                 :        0.045 s           0.045 s
  | Solution of K.-S. eqns.                     :        0.011 s           0.012 s
  | Grid partitioning                           :        0.036 s           0.036 s
  | Preloading free-atom quantities on grid     :        0.016 s           0.016 s
  | Free-atom superposition energy              :        0.005 s           0.005 s
  | Total energy evaluation                     :        0.000 s           0.000 s

  Partial memory accounting:
  | Current value for overall tracked memory usage:
  |   Minimum:        0.273 MB (on task 23)
  |   Maximum:        0.292 MB (on task  0)
  |   Average:        0.287 MB
  | Peak value for overall tracked memory usage:
  |   Minimum:        1.323 MB (on task 20 after allocating wave)
  |   Maximum:        1.421 MB (on task  8 after allocating wave)
  |   Average:        1.374 MB
  | Largest tracked array allocation so far:
  |   Minimum:        0.240 MB (H_times_psi on task 20)
  |   Maximum:        0.468 MB (all_coords on task 10)
  |   Average:        0.273 MB
  Note:  These values currently only include a subset of arrays which are explicitly tracked.
  The "true" memory usage will be greater.
------------------------------------------------------------
  Evaluating new KS density.
  Integration grid: deviation in total charge (<rho> - N_e) =   1.421085E-14

  Time for density update prior                :  max(cpu_time)    wall_clock(cpu1)
  | self-consistency iterative process          :        0.029 s           0.029 s

------------------------------------------------------------
          Begin self-consistency iteration #    1

  Date     :  20220517, Time     :  115849.126
------------------------------------------------------------
  Pulay mixing of updated and previous charge densities.
  Renormalizing the density to the exact electron count on the 3D integration grid.
  | Formal number of electrons (from input files) :     120.0000000000
  | Integrated number of electrons on 3D grid     :     120.0000000000
  | Charge integration error                      :      -0.0000000000
  | Normalization factor for density and gradient :       1.0000000000

  Evaluating partitioned Hartree potential by multipole expansion.
  | Original multipole sum: apparent total charge =  -0.365768E-13
  | Sum of charges compensated after spline to logarithmic grids =   0.134774E-03
  | Analytical far-field extrapolation by fixed multipoles:
  | Hartree multipole sum: apparent total charge =  -0.378067E-13
  Summing up the Hartree potential.
  Time summed over all CPUs for potential: real work        0.381 s, elapsed        0.388 s
  | RMS charge density error from multipole expansion :   0.117187E-01

  Integrating Hamiltonian matrix: batch-based integration.
  Time summed over all CPUs for integration: real work        0.661 s, elapsed        0.713 s

  Updating Kohn-Sham eigenvalues and eigenvectors using ELSI and the ELPA eigensolver.
  Starting ELPA eigensolver
  Finished transformation to standard eigenproblem
  | Time :     0.000 s
  Finished solving standard eigenproblem
  | Time :     0.003 s
  Finished back-transformation of eigenvectors
  | Time :     0.000 s

  Obtaining occupation numbers and chemical potential using ELSI.
  | Chemical potential (Fermi level):    -7.77799935 eV
  Writing Kohn-Sham eigenvalues.

  State    Occupation    Eigenvalue [Ha]    Eigenvalue [eV]
      1       2.00000         -55.656699        -1514.49583
      2       2.00000         -55.627806        -1513.70961
      3       2.00000         -55.591303        -1512.71633
      4       2.00000         -24.236195         -659.50042
      5       2.00000         -24.236192         -659.50034
      6       2.00000         -24.186192         -658.13977
      7       2.00000         -24.142356         -656.94694
      8       2.00000         -24.136938         -656.79951
      9       2.00000         -24.113174         -656.15285
     10       2.00000         -24.060614         -654.72261
     11       2.00000         -24.037628         -654.09713
     12       2.00000         -24.037627         -654.09710
     13       2.00000          -4.097921         -111.51010
     14       2.00000          -4.078496         -110.98152
     15       2.00000          -4.033503         -109.75721
     16       2.00000          -2.691438          -73.23776
     17       2.00000          -2.690676          -73.21701
     18       2.00000          -2.689639          -73.18880
     19       2.00000          -2.672170          -72.71345
     20       2.00000          -2.670764          -72.67518
     21       2.00000          -2.670378          -72.66469
     22       2.00000          -2.627342          -71.49361
     23       2.00000          -2.625991          -71.45686
     24       2.00000          -2.624940          -71.42824
     25       2.00000          -1.169390          -31.82073
     26       2.00000          -1.154491          -31.41531
     27       2.00000          -1.121944          -30.52964
     28       2.00000          -1.106265          -30.10301
     29       2.00000          -1.078790          -29.35536
     30       2.00000          -1.069473          -29.10185
     31       2.00000          -1.004541          -27.33496
     32       2.00000          -0.986358          -26.84015
     33       2.00000          -0.982732          -26.74150
     34       2.00000          -0.542180          -14.75348
     35       2.00000          -0.527814          -14.36254
     36       2.00000          -0.503064          -13.68906
     37       2.00000          -0.482299          -13.12403
     38       2.00000          -0.479371          -13.04434
     39       2.00000          -0.462107          -12.57457
     40       2.00000          -0.458393          -12.47350
     41       2.00000          -0.452321          -12.30828
     42       2.00000          -0.448947          -12.21647
     43       2.00000          -0.425119          -11.56809
     44       2.00000          -0.422893          -11.50751
     45       2.00000          -0.416903          -11.34450
     46       2.00000          -0.409068          -11.13131
     47       2.00000          -0.408608          -11.11880
     48       2.00000          -0.381701          -10.38662
     49       2.00000          -0.379256          -10.32008
     50       2.00000          -0.373001          -10.14988
     51       2.00000          -0.371593          -10.11156
     52       2.00000          -0.364618           -9.92176
     53       2.00000          -0.353426           -9.61720
     54       2.00000          -0.331329           -9.01592
     55       2.00000          -0.316589           -8.61482
     56       2.00000          -0.316531           -8.61324
     57       2.00000          -0.302694           -8.23673
     58       2.00000          -0.297859           -8.10516
     59       2.00000          -0.290677           -7.90973
     60       2.00000          -0.287831           -7.83227
     61       0.00000          -0.154737           -4.21060
     62       0.00000          -0.096191           -2.61750
     63       0.00000          -0.063837           -1.73709
     64       0.00000          -0.049016           -1.33379
     65       0.00000          -0.033121           -0.90128
     66       0.00000          -0.006938           -0.18880
     67       0.00000           0.001641            0.04466
     68       0.00000           0.032532            0.88523
     69       0.00000           0.055633            1.51386
     70       0.00000           0.057183            1.55603
     71       0.00000           0.069751            1.89802
     72       0.00000           0.101106            2.75124
     73       0.00000           0.128423            3.49456
     74       0.00000           0.159970            4.35301
     75       0.00000           0.162109            4.41122
     76       0.00000           0.177436            4.82827
     77       0.00000           0.186188            5.06644
     78       0.00000           0.194158            5.28332
     79       0.00000           0.195464            5.31885
     80       0.00000           0.205623            5.59528
     81       0.00000           0.208245            5.66664
     82       0.00000           0.222371            6.05102
     83       0.00000           0.228276            6.21170
     84       0.00000           0.236160            6.42624
     85       0.00000           0.243762            6.63309
     86       0.00000           0.247677            6.73962
     87       0.00000           0.248771            6.76940
     88       0.00000           0.279178            7.59683
     89       0.00000           0.283459            7.71331
     90       0.00000           0.296231            8.06085
     91       0.00000           0.311388            8.47330
     92       0.00000           0.329493            8.96595
     93       0.00000           0.348990            9.49649
     94       0.00000           0.349810            9.51880
     95       0.00000           0.358932            9.76705
     96       0.00000           0.370735           10.08822

  Highest occupied state (VBM) at     -7.83227000 eV
  | Occupation number:      2.00000000

  Lowest unoccupied state (CBM) at    -4.21060259 eV
  | Occupation number:      0.00000000

  Overall HOMO-LUMO gap:      3.62166741 eV.

  Total energy components:
  | Sum of eigenvalues            :        -881.43231642 Ha      -23984.99367274 eV
  | XC energy correction          :        -145.80449040 Ha       -3967.54205017 eV
  | XC potential correction       :         189.86724249 Ha        5166.55053927 eV
  | Free-atom electrostatic energy:        -780.55574991 Ha      -21240.00263439 eV
  | Hartree energy correction     :          -7.17564659 Ha        -195.25927853 eV
  | Entropy correction            :          -0.00000000 Ha          -0.00000000 eV
  | ---------------------------
  | Total energy                  :       -1625.10096083 Ha      -44221.24709656 eV
  | Total energy, T -> 0          :       -1625.10096083 Ha      -44221.24709656 eV  <-- do not rely on this value for anything but (periodic) metals
  | Electronic free energy        :       -1625.10096083 Ha      -44221.24709656 eV

  Derived energy quantities:
  | Kinetic energy                :        1634.90443231 Ha       44488.01312840 eV
  | Electrostatic energy          :       -3114.20090274 Ha      -84741.71817479 eV
  | Energy correction for multipole
  | error in Hartree potential    :           0.04696085 Ha           1.27786981 eV
  | Sum of eigenvalues per atom                           :       -1998.74947273 eV
  | Total energy (T->0) per atom                          :       -3685.10392471 eV  <-- do not rely on this value for anything but (periodic) metals
  | Electronic free energy per atom                       :       -3685.10392471 eV
  Evaluating new KS density.
  Integration grid: deviation in total charge (<rho> - N_e) =  -1.421085E-14

  Self-consistency convergence accuracy:
  | Change of charge density      :  0.6220E+00
  | Change of sum of eigenvalues  :  0.1894E+03 eV
  | Change of total energy        :  0.6308E+01 eV


------------------------------------------------------------
  End self-consistency iteration #     1       :  max(cpu_time)    wall_clock(cpu1)
  | Time for this iteration                     :        0.081 s           0.081 s
  | Charge density update                       :        0.028 s           0.027 s
  | Density mixing                              :        0.000 s           0.000 s
  | Hartree multipole update                    :        0.001 s           0.002 s
  | Hartree multipole summation                 :        0.017 s           0.016 s
  | Integration                                 :        0.030 s           0.031 s
  | Solution of K.-S. eqns.                     :        0.004 s           0.004 s
  | Total energy evaluation                     :        0.000 s           0.001 s

  Partial memory accounting:
  | Current value for overall tracked memory usage:
  |   Minimum:        0.273 MB (on task 23)
  |   Maximum:        0.292 MB (on task  0)
  |   Average:        0.287 MB
  | Peak value for overall tracked memory usage:
  |   Minimum:        1.323 MB (on task 20 after allocating wave)
  |   Maximum:        1.421 MB (on task  8 after allocating wave)
  |   Average:        1.374 MB
  | Largest tracked array allocation so far:
  |   Minimum:        0.717 MB (gradient_basis_wave on task  9)
  |   Maximum:        0.776 MB (gradient_basis_wave on task  8)
  |   Average:        0.748 MB
  Note:  These values currently only include a subset of arrays which are explicitly tracked.
  The "true" memory usage will be greater.
------------------------------------------------------------

------------------------------------------------------------
          Begin self-consistency iteration #    2

  Date     :  20220517, Time     :  115849.211
------------------------------------------------------------
  Pulay mixing of updated and previous charge densities.
  Renormalizing the density to the exact electron count on the 3D integration grid.
  | Formal number of electrons (from input files) :     120.0000000000
  | Integrated number of electrons on 3D grid     :     120.0000000000
  | Charge integration error                      :      -0.0000000000
  | Normalization factor for density and gradient :       1.0000000000

  Evaluating partitioned Hartree potential by multipole expansion.
  | Original multipole sum: apparent total charge =  -0.464159E-13
  | Sum of charges compensated after spline to logarithmic grids =   0.105923E-03
  | Analytical far-field extrapolation by fixed multipoles:
  | Hartree multipole sum: apparent total charge =  -0.449401E-13
  Summing up the Hartree potential.
  Time summed over all CPUs for potential: real work        0.379 s, elapsed        0.386 s
  | RMS charge density error from multipole expansion :   0.140371E-01

  Integrating Hamiltonian matrix: batch-based integration.
  Time summed over all CPUs for integration: real work        0.662 s, elapsed        0.714 s

  Updating Kohn-Sham eigenvalues and eigenvectors using ELSI and the ELPA eigensolver.
  Starting ELPA eigensolver
  Finished transformation to standard eigenproblem
  | Time :     0.001 s
  Finished solving standard eigenproblem
  | Time :     0.003 s
  Finished back-transformation of eigenvectors
  | Time :     0.000 s

  Obtaining occupation numbers and chemical potential using ELSI.
  | Chemical potential (Fermi level):    -7.96832827 eV
  Highest occupied state (VBM) at     -8.87359974 eV
  | Occupation number:      2.00000000

  Lowest unoccupied state (CBM) at    -4.46140340 eV
  | Occupation number:      0.00000000

  Overall HOMO-LUMO gap:      4.41219633 eV.

  Checking to see if s.c.f. parameters should be adjusted.

  Total energy components:
  | Sum of eigenvalues            :        -884.62889110 Ha      -24071.97689563 eV
  | XC energy correction          :        -145.31510028 Ha       -3954.22506750 eV
  | XC potential correction       :         189.22339806 Ha        5149.03064103 eV
  | Free-atom electrostatic energy:        -780.55574991 Ha      -21240.00263439 eV
  | Hartree energy correction     :          -3.76495508 Ha        -102.44964033 eV
  | Entropy correction            :           0.00000000 Ha           0.00000000 eV
  | ---------------------------
  | Total energy                  :       -1625.04129831 Ha      -44219.62359682 eV
  | Total energy, T -> 0          :       -1625.04129831 Ha      -44219.62359682 eV  <-- do not rely on this value for anything but (periodic) metals
  | Electronic free energy        :       -1625.04129831 Ha      -44219.62359682 eV

  Derived energy quantities:
  | Kinetic energy                :        1630.95580410 Ha       44380.56548799 eV
  | Electrostatic energy          :       -3110.68200213 Ha      -84645.96401731 eV
  | Energy correction for multipole
  | error in Hartree potential    :           0.05138826 Ha           1.39834562 eV
  | Sum of eigenvalues per atom                           :       -2005.99807464 eV
  | Total energy (T->0) per atom                          :       -3684.96863307 eV  <-- do not rely on this value for anything but (periodic) metals
  | Electronic free energy per atom                       :       -3684.96863307 eV
  Evaluating new KS density.
  Integration grid: deviation in total charge (<rho> - N_e) =   1.421085E-14

  Self-consistency convergence accuracy:
  | Change of charge density      :  0.4598E+00
  | Change of sum of eigenvalues  : -0.8698E+02 eV
  | Change of total energy        :  0.1623E+01 eV


------------------------------------------------------------
  End self-consistency iteration #     2       :  max(cpu_time)    wall_clock(cpu1)
  | Time for this iteration                     :        0.084 s           0.083 s
  | Charge density update                       :        0.027 s           0.027 s
  | Density mixing                              :        0.004 s           0.003 s
  | Hartree multipole update                    :        0.001 s           0.002 s
  | Hartree multipole summation                 :        0.016 s           0.016 s
  | Integration                                 :        0.030 s           0.030 s
  | Solution of K.-S. eqns.                     :        0.004 s           0.004 s
  | Total energy evaluation                     :        0.000 s           0.000 s

  Partial memory accounting:
  | Current value for overall tracked memory usage:
  |   Minimum:        0.274 MB (on task 23)
  |   Maximum:        0.293 MB (on task  0)
  |   Average:        0.288 MB
  | Peak value for overall tracked memory usage:
  |   Minimum:        1.323 MB (on task 20 after allocating wave)
  |   Maximum:        1.421 MB (on task  8 after allocating wave)
  |   Average:        1.374 MB
  | Largest tracked array allocation so far:
  |   Minimum:        0.717 MB (gradient_basis_wave on task  9)
  |   Maximum:        0.776 MB (gradient_basis_wave on task  8)
  |   Average:        0.748 MB
  Note:  These values currently only include a subset of arrays which are explicitly tracked.
  The "true" memory usage will be greater.
------------------------------------------------------------

------------------------------------------------------------
          Begin self-consistency iteration #    3

  Date     :  20220517, Time     :  115849.300
------------------------------------------------------------
  Pulay mixing of updated and previous charge densities.
  Renormalizing the density to the exact electron count on the 3D integration grid.
  | Formal number of electrons (from input files) :     120.0000000000
  | Integrated number of electrons on 3D grid     :     120.0000000000
  | Charge integration error                      :      -0.0000000000
  | Normalization factor for density and gradient :       1.0000000000

  Evaluating partitioned Hartree potential by multipole expansion.
  | Original multipole sum: apparent total charge =  -0.780240E-13
  | Sum of charges compensated after spline to logarithmic grids =   0.137898E-03
  | Analytical far-field extrapolation by fixed multipoles:
  | Hartree multipole sum: apparent total charge =  -0.785160E-13
  Summing up the Hartree potential.
  Time summed over all CPUs for potential: real work        0.380 s, elapsed        0.386 s
  | RMS charge density error from multipole expansion :   0.190745E-01

  Integrating Hamiltonian matrix: batch-based integration.
  Time summed over all CPUs for integration: real work        0.661 s, elapsed        0.714 s

  Updating Kohn-Sham eigenvalues and eigenvectors using ELSI and the ELPA eigensolver.
  Starting ELPA eigensolver
  Finished transformation to standard eigenproblem
  | Time :     0.001 s
  Finished solving standard eigenproblem
  | Time :     0.003 s
  Finished back-transformation of eigenvectors
  | Time :     0.000 s

  Obtaining occupation numbers and chemical potential using ELSI.
  | Chemical potential (Fermi level):    -7.98513903 eV
  Highest occupied state (VBM) at     -8.40930654 eV
  | Occupation number:      2.00000000

  Lowest unoccupied state (CBM) at    -4.67056999 eV
  | Occupation number:      0.00000000

  Overall HOMO-LUMO gap:      3.73873654 eV.

  Total energy components:
  | Sum of eigenvalues            :        -885.34351862 Ha      -24091.42289985 eV
  | XC energy correction          :        -145.29654482 Ha       -3953.72014764 eV
  | XC potential correction       :         189.19783949 Ha        5148.33515703 eV
  | Free-atom electrostatic energy:        -780.55574991 Ha      -21240.00263439 eV
  | Hartree energy correction     :          -3.04223395 Ha         -82.78339788 eV
  | Entropy correction            :           0.00000000 Ha           0.00000000 eV
  | ---------------------------
  | Total energy                  :       -1625.04020781 Ha      -44219.59392272 eV
  | Total energy, T -> 0          :       -1625.04020781 Ha      -44219.59392272 eV  <-- do not rely on this value for anything but (periodic) metals
  | Electronic free energy        :       -1625.04020781 Ha      -44219.59392272 eV

  Derived energy quantities:
  | Kinetic energy                :        1629.39195032 Ha       44338.01086123 eV
  | Electrostatic energy          :       -3109.13561331 Ha      -84603.88463631 eV
  | Energy correction for multipole
  | error in Hartree potential    :           0.06684529 Ha           1.81895302 eV
  | Sum of eigenvalues per atom                           :       -2007.61857499 eV
  | Total energy (T->0) per atom                          :       -3684.96616023 eV  <-- do not rely on this value for anything but (periodic) metals
  | Electronic free energy per atom                       :       -3684.96616023 eV
  Evaluating new KS density.
  Integration grid: deviation in total charge (<rho> - N_e) =   0.000000E+00

  Self-consistency convergence accuracy:
  | Change of charge density      :  0.1216E+00
  | Change of sum of eigenvalues  : -0.1945E+02 eV
  | Change of total energy        :  0.2967E-01 eV


------------------------------------------------------------
  End self-consistency iteration #     3       :  max(cpu_time)    wall_clock(cpu1)
  | Time for this iteration                     :        0.083 s           0.081 s
  | Charge density update                       :        0.027 s           0.027 s
  | Density mixing                              :        0.004 s           0.001 s
  | Hartree multipole update                    :        0.001 s           0.002 s
  | Hartree multipole summation                 :        0.016 s           0.016 s
  | Integration                                 :        0.030 s           0.030 s
  | Solution of K.-S. eqns.                     :        0.004 s           0.004 s
  | Total energy evaluation                     :        0.000 s           0.001 s

  Partial memory accounting:
  | Current value for overall tracked memory usage:
  |   Minimum:        0.274 MB (on task 23)
  |   Maximum:        0.293 MB (on task  0)
  |   Average:        0.288 MB
  | Peak value for overall tracked memory usage:
  |   Minimum:        1.323 MB (on task 20 after allocating wave)
  |   Maximum:        1.421 MB (on task  8 after allocating wave)
  |   Average:        1.374 MB
  | Largest tracked array allocation so far:
  |   Minimum:        0.717 MB (gradient_basis_wave on task  9)
  |   Maximum:        0.776 MB (gradient_basis_wave on task  8)
  |   Average:        0.748 MB
  Note:  These values currently only include a subset of arrays which are explicitly tracked.
  The "true" memory usage will be greater.
------------------------------------------------------------

------------------------------------------------------------
          Begin self-consistency iteration #    4

  Date     :  20220517, Time     :  115849.387
------------------------------------------------------------
  Pulay mixing of updated and previous charge densities.
  Renormalizing the density to the exact electron count on the 3D integration grid.
  | Formal number of electrons (from input files) :     120.0000000000
  | Integrated number of electrons on 3D grid     :     120.0000000000
  | Charge integration error                      :       0.0000000000
  | Normalization factor for density and gradient :       1.0000000000

  Evaluating partitioned Hartree potential by multipole expansion.
  | Original multipole sum: apparent total charge =  -0.510157E-13
  | Sum of charges compensated after spline to logarithmic grids =   0.150818E-03
  | Analytical far-field extrapolation by fixed multipoles:
  | Hartree multipole sum: apparent total charge =  -0.500318E-13
  Summing up the Hartree potential.
  Time summed over all CPUs for potential: real work        0.380 s, elapsed        0.386 s
  | RMS charge density error from multipole expansion :   0.214436E-01

  Integrating Hamiltonian matrix: batch-based integration.
  Time summed over all CPUs for integration: real work        0.661 s, elapsed        0.714 s

  Updating Kohn-Sham eigenvalues and eigenvectors using ELSI and the ELPA eigensolver.
  Starting ELPA eigensolver
  Finished transformation to standard eigenproblem
  | Time :     0.000 s
  Finished solving standard eigenproblem
  | Time :     0.003 s
  Finished back-transformation of eigenvectors
  | Time :     0.001 s

  Obtaining occupation numbers and chemical potential using ELSI.
  | Chemical potential (Fermi level):    -7.97772130 eV
  Highest occupied state (VBM) at     -8.41326786 eV
  | Occupation number:      2.00000000

  Lowest unoccupied state (CBM) at    -4.66027732 eV
  | Occupation number:      0.00000000

  Overall HOMO-LUMO gap:      3.75299054 eV.

  Total energy components:
  | Sum of eigenvalues            :        -885.47632783 Ha      -24095.03682233 eV
  | XC energy correction          :        -145.27994422 Ha       -3953.26842222 eV
  | XC potential correction       :         189.17531537 Ha        5147.72224446 eV
  | Free-atom electrostatic energy:        -780.55574991 Ha      -21240.00263439 eV
  | Hartree energy correction     :          -2.90131643 Ha         -78.94883700 eV
  | Entropy correction            :           0.00000000 Ha           0.00000000 eV
  | ---------------------------
  | Total energy                  :       -1625.03802302 Ha      -44219.53447148 eV
  | Total energy, T -> 0          :       -1625.03802302 Ha      -44219.53447148 eV  <-- do not rely on this value for anything but (periodic) metals
  | Electronic free energy        :       -1625.03802302 Ha      -44219.53447148 eV

  Derived energy quantities:
  | Kinetic energy                :        1628.66320608 Ha       44318.18072158 eV
  | Electrostatic energy          :       -3108.42128488 Ha      -84584.44677085 eV
  | Energy correction for multipole
  | error in Hartree potential    :           0.07381959 Ha           2.00873335 eV
  | Sum of eigenvalues per atom                           :       -2007.91973519 eV
  | Total energy (T->0) per atom                          :       -3684.96120596 eV  <-- do not rely on this value for anything but (periodic) metals
  | Electronic free energy per atom                       :       -3684.96120596 eV
  Evaluating new KS density.
  Integration grid: deviation in total charge (<rho> - N_e) =   2.842171E-14

  Self-consistency convergence accuracy:
  | Change of charge density      :  0.8397E-01
  | Change of sum of eigenvalues  : -0.3614E+01 eV
  | Change of total energy        :  0.5945E-01 eV


------------------------------------------------------------
  End self-consistency iteration #     4       :  max(cpu_time)    wall_clock(cpu1)
  | Time for this iteration                     :        0.084 s           0.082 s
  | Charge density update                       :        0.027 s           0.028 s
  | Density mixing                              :        0.004 s           0.002 s
  | Hartree multipole update                    :        0.001 s           0.001 s
  | Hartree multipole summation                 :        0.016 s           0.017 s
  | Integration                                 :        0.030 s           0.030 s
  | Solution of K.-S. eqns.                     :        0.004 s           0.004 s
  | Total energy evaluation                     :        0.000 s           0.000 s

  Partial memory accounting:
  | Current value for overall tracked memory usage:
  |   Minimum:        0.274 MB (on task 23)
  |   Maximum:        0.293 MB (on task  0)
  |   Average:        0.288 MB
  | Peak value for overall tracked memory usage:
  |   Minimum:        1.323 MB (on task 20 after allocating wave)
  |   Maximum:        1.421 MB (on task  8 after allocating wave)
  |   Average:        1.374 MB
  | Largest tracked array allocation so far:
  |   Minimum:        0.717 MB (gradient_basis_wave on task  9)
  |   Maximum:        0.776 MB (gradient_basis_wave on task  8)
  |   Average:        0.748 MB
  Note:  These values currently only include a subset of arrays which are explicitly tracked.
  The "true" memory usage will be greater.
------------------------------------------------------------

------------------------------------------------------------
          Begin self-consistency iteration #    5

  Date     :  20220517, Time     :  115849.475
------------------------------------------------------------
  Pulay mixing of updated and previous charge densities.
  Renormalizing the density to the exact electron count on the 3D integration grid.
  | Formal number of electrons (from input files) :     120.0000000000
  | Integrated number of electrons on 3D grid     :     120.0000000000
  | Charge integration error                      :       0.0000000000
  | Normalization factor for density and gradient :       1.0000000000

  Evaluating partitioned Hartree potential by multipole expansion.
  | Original multipole sum: apparent total charge =   0.238598E-13
  | Sum of charges compensated after spline to logarithmic grids =   0.150619E-03
  | Analytical far-field extrapolation by fixed multipoles:
  | Hartree multipole sum: apparent total charge =   0.256308E-13
  Summing up the Hartree potential.
  Time summed over all CPUs for potential: real work        0.380 s, elapsed        0.386 s
  | RMS charge density error from multipole expansion :   0.213104E-01

  Integrating Hamiltonian matrix: batch-based integration.
  Time summed over all CPUs for integration: real work        0.662 s, elapsed        0.714 s

  Updating Kohn-Sham eigenvalues and eigenvectors using ELSI and the ELPA eigensolver.
  Starting ELPA eigensolver
  Finished transformation to standard eigenproblem
  | Time :     0.000 s
  Finished solving standard eigenproblem
  | Time :     0.003 s
  Finished back-transformation of eigenvectors
  | Time :     0.000 s

  Obtaining occupation numbers and chemical potential using ELSI.
  | Chemical potential (Fermi level):    -7.96470979 eV
  Highest occupied state (VBM) at     -8.49965591 eV
  | Occupation number:      2.00000000

  Lowest unoccupied state (CBM) at    -4.61489519 eV
  | Occupation number:      0.00000000

  Overall HOMO-LUMO gap:      3.88476072 eV.

  Total energy components:
  | Sum of eigenvalues            :        -885.38497869 Ha      -24092.55108563 eV
  | XC energy correction          :        -145.27319445 Ha       -3953.08475182 eV
  | XC potential correction       :         189.16655712 Ha        5147.48392022 eV
  | Free-atom electrostatic energy:        -780.55574991 Ha      -21240.00263439 eV
  | Hartree energy correction     :          -2.99053209 Ha         -81.37651848 eV
  | Entropy correction            :           0.00000000 Ha           0.00000000 eV
[...]
   Total forces(   7)            :  0.130549E+01  0.281854E+00  0.172478E-01
  atom #    8
   Hellmann-Feynman              :  0.109718E+01  0.203295E+00 -0.174464E+01
   Ionic forces                  :  0.000000E+00  0.000000E+00  0.000000E+00
   Multipole                     :  0.118810E+00  0.252088E-01 -0.242619E-01
   Hartree pot. SCF incomplete   :  0.320752E-05  0.762266E-06  0.402554E-05
   Pulay + GGA                   : -0.321210E+01 -0.697588E+00 -0.176368E+00
   ----------------------------------------------------------------
   Total forces(   8)            : -0.199610E+01 -0.469084E+00 -0.194526E+01
  atom #    9
   Hellmann-Feynman              :  0.240554E+00  0.276782E+01  0.958771E+00
   Ionic forces                  :  0.000000E+00  0.000000E+00  0.000000E+00
   Multipole                     :  0.117329E+00  0.603898E+00  0.155229E+00
   Hartree pot. SCF incomplete   :  0.473634E-06  0.267116E-05  0.120988E-05
   Pulay + GGA                   : -0.896727E+00 -0.621745E+01 -0.222542E+01
   ----------------------------------------------------------------
   Total forces(   9)            : -0.538844E+00 -0.284573E+01 -0.111142E+01
  atom #   10
   Hellmann-Feynman              :  0.135390E+01 -0.238505E+01  0.105673E+01
   Ionic forces                  :  0.000000E+00  0.000000E+00  0.000000E+00
   Multipole                     :  0.354907E+00 -0.495449E+00  0.176211E+00
   Hartree pot. SCF incomplete   :  0.152391E-05 -0.219331E-05  0.130134E-05
   Pulay + GGA                   : -0.336541E+01  0.520701E+01 -0.244244E+01
   ----------------------------------------------------------------
   Total forces(  10)            : -0.165660E+01  0.232651E+01 -0.120950E+01
  atom #   11
   Hellmann-Feynman              : -0.369407E+01 -0.699710E+00  0.514296E+01
   Ionic forces                  :  0.000000E+00  0.000000E+00  0.000000E+00
   Multipole                     : -0.591617E+00 -0.110016E+00  0.936173E+00
   Hartree pot. SCF incomplete   : -0.182227E-05 -0.363292E-06  0.134632E-05
   Pulay + GGA                   :  0.358199E+01  0.661644E+00 -0.588478E+01
   ----------------------------------------------------------------
   Total forces(  11)            : -0.703699E+00 -0.148082E+00  0.194360E+00
  atom #   12
   Hellmann-Feynman              :  0.176051E+01  0.340225E+00 -0.212573E+01
   Ionic forces                  :  0.000000E+00  0.000000E+00  0.000000E+00
   Multipole                     :  0.541357E+00  0.106733E+00 -0.542445E+00
   Hartree pot. SCF incomplete   :  0.190443E-05  0.414153E-06  0.274061E-06
   Pulay + GGA                   : -0.507453E+01 -0.993389E+00  0.542357E+01
   ----------------------------------------------------------------
   Total forces(  12)            : -0.277266E+01 -0.546430E+00  0.275540E+01


  Self-consistency convergence accuracy:
  | Change of charge density      :  0.1956E-06
  | Change of sum of eigenvalues  : -0.8266E-05 eV
  | Change of total energy        : -0.8538E-09 eV
  | Change of forces              :  0.8495E-06 eV/A

  Writing Kohn-Sham eigenvalues.

  State    Occupation    Eigenvalue [Ha]    Eigenvalue [eV]
      1       2.00000         -55.643727        -1514.14285
      2       2.00000         -55.614291        -1513.34187
      3       2.00000         -55.559848        -1511.86039
      4       2.00000         -24.317412         -661.71044
      5       2.00000         -24.317407         -661.71031
      6       2.00000         -24.265680         -660.30276
      7       2.00000         -24.265004         -660.28434
      8       2.00000         -24.245711         -659.75935
      9       2.00000         -24.233184         -659.41849
     10       2.00000         -24.213311         -658.87772
     11       2.00000         -24.164645         -657.55344
     12       2.00000         -24.164643         -657.55339
     13       2.00000          -4.099038         -111.54050
     14       2.00000          -4.084066         -111.13308
     15       2.00000          -4.015046         -109.25496
     16       2.00000          -2.691878          -73.24971
     17       2.00000          -2.691282          -73.23352
     18       2.00000          -2.688506          -73.15798
     19       2.00000          -2.676814          -72.83983
     20       2.00000          -2.675943          -72.81610
     21       2.00000          -2.672893          -72.73311
     22       2.00000          -2.609105          -70.99735
     23       2.00000          -2.606281          -70.92052
     24       2.00000          -2.604359          -70.86821
     25       2.00000          -1.197004          -32.57214
     26       2.00000          -1.183011          -32.19138
     27       2.00000          -1.162955          -31.64561
     28       2.00000          -1.125851          -30.63598
     29       2.00000          -1.120376          -30.48697
     30       2.00000          -1.091416          -29.69895
     31       2.00000          -1.053415          -28.66487
     32       2.00000          -1.011650          -27.52840
     33       2.00000          -1.008504          -27.44280
     34       2.00000          -0.566872          -15.42537
     35       2.00000          -0.554943          -15.10078
     36       2.00000          -0.531642          -14.46672
     37       2.00000          -0.505475          -13.75468
     38       2.00000          -0.500241          -13.61225
     39       2.00000          -0.494656          -13.46028
     40       2.00000          -0.489087          -13.30874
     41       2.00000          -0.478867          -13.03063
     42       2.00000          -0.471782          -12.83785
     43       2.00000          -0.464173          -12.63079
     44       2.00000          -0.456757          -12.42900
     45       2.00000          -0.456057          -12.40993
     46       2.00000          -0.441093          -12.00274
     47       2.00000          -0.426720          -11.61164
     48       2.00000          -0.421443          -11.46804
     49       2.00000          -0.413653          -11.25606
     50       2.00000          -0.407963          -11.10123
     51       2.00000          -0.394767          -10.74216
     52       2.00000          -0.393983          -10.72083
     53       2.00000          -0.377257          -10.26568
     54       2.00000          -0.361174           -9.82804
     55       2.00000          -0.360487           -9.80934
     56       2.00000          -0.355851           -9.68321
     57       2.00000          -0.323995           -8.81635
     58       2.00000          -0.320019           -8.70815
     59       2.00000          -0.314312           -8.55285
     60       2.00000          -0.311735           -8.48274
     61       0.00000          -0.169269           -4.60606
     62       0.00000          -0.110162           -2.99766
     63       0.00000          -0.066392           -1.80663
     64       0.00000          -0.059823           -1.62788
     65       0.00000          -0.039108           -1.06419
     66       0.00000          -0.016911           -0.46017
     67       0.00000          -0.004599           -0.12515
     68       0.00000           0.027560            0.74995
     69       0.00000           0.056993            1.55087
     70       0.00000           0.060320            1.64139
     71       0.00000           0.069408            1.88870
     72       0.00000           0.094671            2.57613
     73       0.00000           0.120076            3.26743
     74       0.00000           0.149827            4.07700
     75       0.00000           0.154956            4.21658
     76       0.00000           0.171094            4.65571
     77       0.00000           0.174309            4.74318
     78       0.00000           0.184509            5.02075
     79       0.00000           0.189942            5.16859
     80       0.00000           0.197035            5.36160
     81       0.00000           0.197469            5.37341
     82       0.00000           0.218740            5.95223
     83       0.00000           0.224278            6.10290
     84       0.00000           0.237024            6.44976
     85       0.00000           0.241990            6.58487
     86       0.00000           0.243727            6.63216
     87       0.00000           0.246901            6.71852
     88       0.00000           0.275087            7.48549
     89       0.00000           0.280822            7.64155
     90       0.00000           0.288818            7.85913
     91       0.00000           0.310931            8.46085
     92       0.00000           0.327182            8.90307
     93       0.00000           0.337061            9.17189
     94       0.00000           0.349352            9.50635
     95       0.00000           0.358089            9.74409
     96       0.00000           0.363795            9.89936

  Highest occupied state (VBM) at     -8.48274391 eV
  | Occupation number:      2.00000000

  Lowest unoccupied state (CBM) at    -4.60605645 eV
  | Occupation number:      0.00000000

  Overall HOMO-LUMO gap:      3.87668745 eV.
  | Chemical Potential                          :    -7.96050870 eV

  Self-consistency cycle converged.


------------------------------------------------------------
  End self-consistency iteration #    14       :  max(cpu_time)    wall_clock(cpu1)
  | Time for this iteration                     :        0.268 s           0.265 s
  | Charge density & force component update     :        0.146 s           0.146 s
  | Density mixing                              :        0.005 s           0.002 s
  | Hartree multipole update                    :        0.001 s           0.001 s
  | Hartree multipole summation                 :        0.049 s           0.049 s
  | Hartree pot. SCF incomplete forces          :        0.032 s           0.032 s
  | Integration                                 :        0.030 s           0.030 s
  | Solution of K.-S. eqns.                     :        0.004 s           0.004 s
  | Total energy evaluation                     :        0.000 s           0.000 s

  Partial memory accounting:
  | Current value for overall tracked memory usage:
  |   Minimum:        0.274 MB (on task 23)
  |   Maximum:        0.293 MB (on task  0)
  |   Average:        0.289 MB
  | Peak value for overall tracked memory usage:
  |   Minimum:        2.953 MB (on task  9 after allocating hessian_basis_wave)
  |   Maximum:        3.149 MB (on task  8 after allocating hessian_basis_wave)
  |   Average:        3.053 MB
  | Largest tracked array allocation so far:
  |   Minimum:        1.434 MB (hessian_basis_wave on task  9)
  |   Maximum:        1.551 MB (hessian_basis_wave on task  8)
  |   Average:        1.497 MB
  Note:  These values currently only include a subset of arrays which are explicitly tracked.
  The "true" memory usage will be greater.
------------------------------------------------------------
  Removing unitary transformations (pure translations, rotations) from forces on atoms.
  Atomic forces before filtering:
  | Net force on center of mass :   0.230549E-01  0.441057E-02 -0.117134E-01 eV/A
  | Net torque on center of mass:   0.525331E-02  0.647235E-02  0.287924E-04 eV
  Atomic forces after filtering:
  | Net force on center of mass :   0.142725E-14 -0.892031E-16 -0.142725E-14 eV/A
  | Net torque on center of mass:  -0.755268E-15  0.151054E-14 -0.566451E-15 eV

  Energy and forces in a compact form:
  | Total energy uncorrected      :         -0.442195307905658E+05 eV
  | Total energy corrected        :         -0.442195307905658E+05 eV  <-- do not rely on this value for anything but (periodic) metals
  | Electronic free energy        :         -0.442195307905658E+05 eV
  Total atomic forces (unitary forces cleaned) [eV/Ang]:
  |    1          0.534435082862676E+01          0.114186059042615E+01         -0.779658348271274E+00
  |    2          0.175192430212234E+01          0.420982872084869E+00          0.223707509011156E+01
  |    3          0.256163572775077E+01          0.670306601018586E+00          0.618705928419188E+01
  |    4         -0.101619758034490E+01         -0.333906763428862E+00         -0.596524975829660E+01
  |    5         -0.136225721825251E+01          0.805835185467478E+00         -0.213791876381849E+00
  |    6         -0.905023204527761E+00         -0.130242029215182E+01         -0.172341837843169E+00
  |    7          0.130343599334743E+01          0.281676193215052E+00          0.181674787827248E-01
  |    8         -0.199806502783175E+01         -0.469463141250209E+00         -0.194414134966981E+01
  |    9         -0.540962689853553E+00         -0.284578762105773E+01         -0.111057824425335E+01
  |   10         -0.165887127798233E+01          0.232642569035528E+01         -0.120819829752135E+01
  |   11         -0.705659459887619E+00         -0.148304416594817E+00          0.195118152489845E+00
  |   12         -0.277431039316688E+01         -0.547204898083987E+00          0.275653970666139E+01

  ------------------------------------ 
  Start decomposition of the XC Energy 
  ------------------------------------ 
  X and C from original XC functional choice 
  Hartree-Fock Energy :          0.000000000 Ha              0.000000000 eV
  X Energy            :       -140.326175544 Ha          -3818.469518147 eV
  C Energy            :         -4.950015407 Ha           -134.696772521 eV
  Total XC Energy     :       -145.276190951 Ha          -3953.166290668 eV
  ------------------------------------ 
  LDA X and C from self-consistent density 
  X Energy LDA        :       -132.905794704 Ha          -3616.550681973 eV
  C Energy LDA        :         -8.830559968 Ha           -240.291762632 eV
  ------------------------------------ 
  End decomposition of the XC Energy 
  ------------------------------------ 

------------------------------------------------------------

------------------------------------------------------------------------------
  Final output of selected total energy values:

  The following output summarizes some interesting total energy values
  at the end of a run (AFTER all relaxation, molecular dynamics, etc.).

  | Total energy of the DFT / Hartree-Fock s.c.f. calculation      :         -44219.530790566 eV
  | Final zero-broadening corrected energy (caution - metals only) :         -44219.530790566 eV
  | For reference only, the value of 1 Hartree used in FHI-aims is :             27.211384500 eV

  Before relying on these values, please be sure to understand exactly which
  total energy value is referred to by a given number. Different objects may
  all carry the same name 'total energy'. Definitions:

  Total energy of the DFT / Hartree-Fock s.c.f. calculation:
  | Note that this energy does not include ANY quantities calculated after the
  | s.c.f. cycle, in particular not ANY RPA, MP2, etc. many-body perturbation terms.

  Final zero-broadening corrected energy:
  | For metallic systems only, a broadening of the occupation numbers at the Fermi
  | level can be extrapolated back to zero broadening by an electron-gas inspired
  | formula. For all systems that are not real metals, this value can be
  | meaningless and should be avoided.

------------------------------------------------------------------------------
  Methods described in the following list of references were used in this FHI-aims run.
  If you publish the results, please make sure to cite these reference if they apply.
  FHI-aims is an academic code, and for our developers (often, Ph.D. students
  and postdocs), scientific credit in the community is essential.
  Thank you for helping us!

  For any use of FHI-aims, please cite:

    Volker Blum, Ralf Gehrke, Felix Hanke, Paula Havu, Ville Havu,
    Xinguo Ren, Karsten Reuter, and Matthias Scheffler
    'Ab initio molecular simulations with numeric atom-centered orbitals'
    Computer Physics Communications 180, 2175-2196 (2009)
    http://dx.doi.org/10.1016/j.cpc.2009.06.022


  The ELSI infrastructure was used in your run to solve the Kohn-Sham electronic structure.
  Please check out http://elsi-interchange.org to learn more.
  If scalability is important for your project, please acknowledge ELSI by citing:

    V. W-z. Yu, F. Corsetti, A. Garcia, W. P. Huhn, M. Jacquelin, W. Jia,
    B. Lange, L. Lin, J. Lu, W. Mi, A. Seifitokaldani, A. Vazquez-Mayagoitia,
    C. Yang, H. Yang, and V. Blum
    'ELSI: A unified software interface for Kohn-Sham electronic structure solvers'
    Computer Physics Communications 222, 267-285 (2018).
    http://dx.doi.org/10.1016/j.cpc.2017.09.007


  For the real-space grid partitioning and parallelization used in this calculation, please cite:

    Ville Havu, Volker Blum, Paula Havu, and Matthias Scheffler,
    'Efficient O(N) integration for all-electron electronic structure calculation'
    'using numerically tabulated basis functions'
    Journal of Computational Physics 228, 8367-8379 (2009).
    http://dx.doi.org/10.1016/j.jcp.2009.08.008

  Of course, there are many other important community references, e.g., those cited in the
  above references. Our list is limited to references that describe implementations in the
  FHI-aims code. The reason is purely practical (length of this list) - please credit others as well.

------------------------------------------------------------
          Leaving FHI-aims.
          Date     :  20220517, Time     :  115850.737

          Computational steps:
          | Number of self-consistency cycles          :           14
          | Number of SCF (re)initializations          :            1

          Detailed time accounting                     :  max(cpu_time)    wall_clock(cpu1)
          | Total time                                  :        1.922 s           7.163 s
          | Preparation time                            :        0.185 s           0.186 s
          | Boundary condition initalization            :        0.000 s           0.000 s
          | Grid partitioning                           :        0.036 s           0.036 s
          | Preloading free-atom quantities on grid     :        0.016 s           0.016 s
          | Free-atom superposition energy              :        0.005 s           0.005 s
          | Total time for integrations                 :        0.467 s           0.466 s
          | Total time for solution of K.-S. equations  :        0.068 s           0.070 s
          | Total time for density & force components   :        0.652 s           0.653 s
          | Total time for mixing                       :        0.060 s           0.032 s
          | Total time for Hartree multipole update     :        0.018 s           0.020 s
          | Total time for Hartree multipole sum        :        0.296 s           0.295 s
          | Total time for total energy evaluation      :        0.002 s           0.002 s
          | Total time NSC force correction             :        0.065 s           0.065 s
          | Total time for scaled ZORA corrections      :        0.000 s           0.000 s

          Partial memory accounting:
          | Residual value for overall tracked memory usage across tasks:     0.000000 MB (should be 0.000000 MB)
          | Peak values for overall tracked memory usage:
          |   Minimum:        2.953 MB (on task  9 after allocating hessian_basis_wave)
          |   Maximum:        3.149 MB (on task  8 after allocating hessian_basis_wave)
          |   Average:        3.053 MB
          | Largest tracked array allocation:
          |   Minimum:        1.434 MB (hessian_basis_wave on task  9)
          |   Maximum:        1.551 MB (hessian_basis_wave on task  8)
          |   Average:        1.497 MB
          Note:  These values currently only include a subset of arrays which are explicitly tracked.
          The "true" memory usage will be greater.

          Have a nice day.
------------------------------------------------------------
