********************************************************************************
*                       GENERAL UTILITY LATTICE PROGRAM                        *
*                                 Julian Gale                                  *
*                       Curtin Institute for Computation                       *
*                           Department of Chemistry                            *
*                    Curtin University, Western Australia                      *
********************************************************************************
* Version = 5.1.1 * Last modified =  24th November 2018                        *
********************************************************************************
*  optimise     - perform optimisation run                                     *
*  conp         - constant pressure calculation                                *
*  shell        - only shells and radii to be optimised                        *
*  phonon       - calculate phonons for final geometry                         *
*  eigenvectors - output phonon eigenvectors                                   *
********************************************************************************

  Job Started  at 14:39.11 25th May        2022                               

  Number of CPUs =     1

  Host name      = login03                                 


  Total number of configurations input =      1

********************************************************************************
*  Input for Configuration =   1                                               *
********************************************************************************

  Formula = Al3F9                                                       

  Number of irreducible atoms/shells =      21


  Total number atoms/shells =      21

  Dimensionality = 0               :  Cluster


  Charge on cluster =  -0.000000


  Initial cluster dipoles : x =     -1.237983 e.Angs
                            y =     -0.287152 e.Angs
                            z =     -1.027677 e.Angs

  Temperature of configuration =  0.000     K 

  Symmetry number =      1

  Cartesian coordinates of cluster :

--------------------------------------------------------------------------------
   No.  Atomic       x           y          z         Charge      Occupancy
        Label      (Angs)      (Angs)     (Angs)        (e)         (Frac)  
--------------------------------------------------------------------------------
      1 Al    c     -0.5101      1.0000     -1.9121     3.00000    1.000000    
      2 Al    c     -0.4699      1.0693      1.2686     3.00000    1.000000    
      3 Al    c     -3.2095      0.4160     -1.9405     3.00000    1.000000    
      4 F     c     -3.4753      0.3303     -3.4243     0.59000    1.000000    
      5 F     c     -1.2986     -0.5384     -1.8370     0.59000    1.000000    
      6 F     c     -1.8639      2.0772     -1.8869     0.59000    1.000000    
      7 F     c     -2.0052      0.7222      0.4692     0.59000    1.000000    
      8 F     c      0.6543      1.2848     -0.1731     0.59000    1.000000    
      9 F     c     -0.2996      2.7535      1.9951     0.59000    1.000000    
     10 F     c      0.3748     -0.3667      2.0546     0.59000    1.000000    
     11 F     c     -4.1883      0.2288     -0.6642     0.59000    1.000000    
     12 F     c      0.7713      1.2512     -3.2576     0.59000    1.000000    
     13 F     s     -3.4753 *    0.3303 *   -3.4243 *  -1.59000    1.000000    
     14 F     s     -1.2986 *   -0.5384 *   -1.8370 *  -1.59000    1.000000    
     15 F     s     -1.8639 *    2.0772 *   -1.8869 *  -1.59000    1.000000    
     16 F     s     -2.0052 *    0.7222 *    0.4692 *  -1.59000    1.000000    
     17 F     s      0.6543 *    1.2848 *   -0.1731 *  -1.59000    1.000000    
     18 F     s     -0.2996 *    2.7535 *    1.9951 *  -1.59000    1.000000    
     19 F     s      0.3748 *   -0.3667 *    2.0546 *  -1.59000    1.000000    
     20 F     s     -4.1883 *    0.2288 *   -0.6642 *  -1.59000    1.000000    
     21 F     s      0.7713 *    1.2512 *   -3.2576 *  -1.59000    1.000000    
--------------------------------------------------------------------------------


  Brillouin zone sampling points :

--------------------------------------------------------------------------------
  Point number          x          y          z            Weight
--------------------------------------------------------------------------------
        1           0.000000   0.000000   0.000000     1.00000000
--------------------------------------------------------------------------------


********************************************************************************
*  General input information                                                   *
********************************************************************************

  Species output for all configurations : 

--------------------------------------------------------------------------------
  Species    Type    Atomic    Atomic    Charge       Radii (Angs)     Library
                     Number     Mass       (e)     Cova   Ionic  VDW   Symbol
--------------------------------------------------------------------------------
    Al       Core       13      26.98   3.000000   1.350  0.000  2.050          
    F        Core        9      19.00   0.590000   0.710  0.000  1.300          
    F        Shell       9       0.00  -1.590000   0.710  0.000  1.300          
--------------------------------------------------------------------------------


  Accuracy factor for short range sums = 12.000

  Time limit = Infinity

  Maximum range for interatomic potentials =    100000.000000 Angstroms

  General interatomic potentials :

--------------------------------------------------------------------------------
Atom  Types   Potential      Parameter       Value         Units   Cutoffs(Ang)
  1     2                                                            Min /  Max 
--------------------------------------------------------------------------------
Al   c F    s Buckingham    Buckingham A     3760.0008    eV        0.000 10.000
                            Buckingham rho  0.22200000    Ang       
                            Buckingham C     0.0000000    eV*Ang^6  
--------------------------------------------------------------------------------
F    s F    s Buck 4 range  Buck4 A          1127.7000    eV        0.000 12.000
                            Buck4 rho       0.27530000    Ang       
                            Buck4 C          15.830000    eV*Ang^6  
                            Buck4 minimum    2.7900000    Ang       
--------------------------------------------------------------------------------
F    c F    s Spring (c-s)  Spring k 2       20.770000    eV*Ang^-2 0.000  0.800
                            Spring k 4       0.0000000    eV*Ang^-4 
--------------------------------------------------------------------------------

********************************************************************************
*  Output for configuration   1                                                *
********************************************************************************


  Components of energy : 

--------------------------------------------------------------------------------
  Interatomic potentials     =          15.20172397 eV    
  Monopole - monopole (real) =        -184.34190120 eV    
--------------------------------------------------------------------------------
  Total lattice energy       =        -169.14017722 eV    
--------------------------------------------------------------------------------
  Total lattice energy       =          -16319.4416 kJ/mol
--------------------------------------------------------------------------------


  Number of variables =       27

  Maximum number of calculations  =          2000
  Maximum Hessian update interval =            10
  Maximum step size               =   1.000000000
  Maximum parameter tolerance     =   0.000001000
  Maximum function  tolerance     =   0.000010000
  Maximum gradient  tolerance     =   0.000000010
  Maximum gradient  component     =   0.010000000

  Symmetry not applied to optimisation

  Newton-Raphson optimiser to be used

  BFGS hessian update to be used

  Lower half triangular hessian to be used

  Minimiser to switch to RFO
  When gradient norm is less than     0.010000

  Shell only optimisation

  Start of cluster optimisation :

  Cycle:      0 Energy:      -169.140177  Gnorm:      1.302837  CPU:    0.004
  ** Hessian calculated **
  Cycle:      1 Energy:      -182.149979  Gnorm:      0.565548  CPU:    0.005
  ** Hessian calculated **
  Cycle:      2 Energy:      -183.471080  Gnorm:      0.049669  CPU:    0.008
  Cycle:      3 Energy:      -183.485872  Gnorm:      0.010413  CPU:    0.009
  Cycle:      4 Energy:      -183.486638  Gnorm:      0.001368  CPU:    0.011
  ** Hessian has required structure
  Cycle:      5 Energy:      -183.486649  Gnorm:      0.000403  CPU:    0.013
  ** Hessian has required structure
  Cycle:      6 Energy:      -183.486650  Gnorm:      0.000268  CPU:    0.014
  ** Hessian has required structure
  Cycle:      7 Energy:      -183.486650  Gnorm:      0.000207  CPU:    0.016
  ** Hessian has required structure
  Cycle:      8 Energy:      -183.486650  Gnorm:      0.000125  CPU:    0.017
  ** Hessian has required structure
  Cycle:      9 Energy:      -183.486650  Gnorm:      0.000087  CPU:    0.019
  ** Hessian has required structure
  Cycle:     10 Energy:      -183.486650  Gnorm:      0.000035  CPU:    0.020
  ** Hessian has required structure
  Cycle:     11 Energy:      -183.486650  Gnorm:      0.000024  CPU:    0.022
  ** Hessian has required structure
  Cycle:     12 Energy:      -183.486650  Gnorm:      0.000000  CPU:    0.023
  ** Hessian has required structure

  XYZ File written as 003/5/sp_mod_40/sp_mod_40_eig.xyz



  **** Optimisation achieved ****


  Final energy =    -183.48665050 eV
  Final Gnorm  =       0.00000000

  Components of energy : 

--------------------------------------------------------------------------------
  Interatomic potentials     =          39.75439287 eV    
  Monopole - monopole (real) =        -223.24104337 eV    
--------------------------------------------------------------------------------
  Total lattice energy       =        -183.48665050 eV    
--------------------------------------------------------------------------------
  Total lattice energy       =          -17703.6569 kJ/mol
--------------------------------------------------------------------------------

  Final cartesian coordinates of atoms :

--------------------------------------------------------------------------------
   No.  Atomic        x           y          z          Radius
        Label       (Angs)      (Angs)     (Angs)       (Angs) 
--------------------------------------------------------------------------------
     1  Al    c    -0.510060    0.999965   -1.912105    0.000000
     2  Al    c    -0.469922    1.069302    1.268595    0.000000
     3  Al    c    -3.209515    0.416022   -1.940458    0.000000
     4  F     c    -3.475259    0.330288   -3.424322    0.000000
     5  F     c    -1.298627   -0.538373   -1.837011    0.000000
     6  F     c    -1.863901    2.077201   -1.886897    0.000000
     7  F     c    -2.005239    0.722246    0.469168    0.000000
     8  F     c     0.654342    1.284780   -0.173126    0.000000
     9  F     c    -0.299560    2.753546    1.995133    0.000000
    10  F     c     0.374786   -0.366720    2.054641    0.000000
    11  F     c    -4.188349    0.228819   -0.664203    0.000000
    12  F     c     0.771302    1.251229   -3.257610    0.000000
    13  F     s    -3.472578    0.332030   -3.363410    0.000000
    14  F     s    -1.428490   -0.299020   -1.866778    0.000000
    15  F     s    -1.883138    1.804676   -1.906901    0.000000
    16  F     s    -1.818488    0.763220    0.501376    0.000000
    17  F     s     0.346451    1.215771   -0.302509    0.000000
    18  F     s    -0.332547    2.495401    1.887326    0.000000
    19  F     s     0.239027   -0.149328    1.937765    0.000000
    20  F     s    -4.114861    0.242047   -0.803332    0.000000
    21  F     s     0.539168    1.205450   -3.027447    0.000000
--------------------------------------------------------------------------------


  Final Cartesian derivatives :

--------------------------------------------------------------------------------
   No.  Atomic          x             y             z           Radius
        Label       (eV/Angs)     (eV/Angs)    (eV/Angs)      (eV/Angs)
--------------------------------------------------------------------------------
      1 Al    c       0.000000      0.000000      0.000000      0.000000
      2 Al    c       0.000000      0.000000      0.000000      0.000000
      3 Al    c       0.000000      0.000000      0.000000      0.000000
      4 F     c       0.000000      0.000000      0.000000      0.000000
      5 F     c       0.000000      0.000000      0.000000      0.000000
      6 F     c       0.000000      0.000000      0.000000      0.000000
      7 F     c       0.000000      0.000000      0.000000      0.000000
      8 F     c       0.000000      0.000000      0.000000      0.000000
      9 F     c       0.000000      0.000000      0.000000      0.000000
     10 F     c       0.000000      0.000000      0.000000      0.000000
     11 F     c       0.000000      0.000000      0.000000      0.000000
     12 F     c       0.000000      0.000000      0.000000      0.000000
     13 F     s       0.000000     -0.000000      0.000000      0.000000
     14 F     s      -0.000000     -0.000000      0.000000      0.000000
     15 F     s       0.000000     -0.000000     -0.000000      0.000000
     16 F     s      -0.000000      0.000000     -0.000000      0.000000
     17 F     s      -0.000000      0.000000     -0.000000      0.000000
     18 F     s       0.000000     -0.000000      0.000000      0.000000
     19 F     s      -0.000000     -0.000000     -0.000000      0.000000
     20 F     s      -0.000000      0.000000     -0.000000      0.000000
     21 F     s      -0.000000      0.000000     -0.000000      0.000000
--------------------------------------------------------------------------------
  Maximum abs         0.000000      0.000000      0.000000      0.000000
--------------------------------------------------------------------------------


  Born effective charge tensors : 

-------------------------------------------------------------------------------
  Atom             x           y             z
-------------------------------------------------------------------------------
    1 Al    x       0.6618     -0.0281      0.4320
            y      -0.0290      0.8260      0.1107
            z       0.3878      0.1012      1.7400
-------------------------------------------------------------------------------
    2 Al    x       0.7645      0.0660     -0.3658
            y       0.0632      0.4391     -0.0657
            z      -0.5117     -0.0972      1.1279
-------------------------------------------------------------------------------
    3 Al    x       2.1390      0.0264      0.3192
            y       0.0296      2.0520      0.0363
            z       0.4873      0.0726      0.3288
-------------------------------------------------------------------------------
    4 F     x      -0.6975      0.0015      0.2041
            y      -0.0015     -0.6856      0.0615
            z       0.0442      0.0269      0.2252
-------------------------------------------------------------------------------
    5 F     x      -0.5204      0.2080     -0.0425
            y       0.3423     -0.1851     -0.0095
            z      -0.0268      0.0003     -0.3703
-------------------------------------------------------------------------------
    6 F     x      -0.2558     -0.2416     -0.0329
            y      -0.3751     -0.4500     -0.0090
            z      -0.0097     -0.0103     -0.3700
-------------------------------------------------------------------------------
    7 F     x      -0.1794      0.0500      0.2136
            y       0.0503     -0.3804      0.0421
            z       0.2304      0.0458     -0.6026
-------------------------------------------------------------------------------
    8 F     x      -0.4059     -0.0367     -0.1131
            y      -0.0361     -0.2545     -0.0321
            z      -0.0829     -0.0256     -0.6493
-------------------------------------------------------------------------------
    9 F     x      -0.5026      0.0422      0.0042
            y       0.0407     -0.0819      0.1531
            z       0.0319      0.1956     -0.5193
-------------------------------------------------------------------------------
   10 F     x      -0.4012     -0.1824      0.0746
            y      -0.1795     -0.1964     -0.1509
            z       0.1174     -0.1782     -0.5063
-------------------------------------------------------------------------------
   11 F     x      -0.3139      0.0601     -0.4119
            y       0.0609     -0.6169     -0.0793
            z      -0.3700     -0.0702     -0.1166
-------------------------------------------------------------------------------
   12 F     x      -0.2886      0.0344     -0.2815
            y       0.0341     -0.4663     -0.0573
            z      -0.2979     -0.0609     -0.2874
-------------------------------------------------------------------------------




  Moment of inertia tensor (10^-46 x kgm^2): 

-------------------------------------------------------------------------------
                x           y           z           Principal axis system
-------------------------------------------------------------------------------
       x        166.50      -17.26      -41.11          104.064384
       y        -17.26      238.81      -10.94          193.449890
       z        -41.11      -10.94      134.96          242.749766
-------------------------------------------------------------------------------
  Centre of mass (Ang) =    -1.303136     0.850085    -0.783821
-------------------------------------------------------------------------------


  Vibrational Frequency Calculation : 

--------------------------------------------------------------------------------

  Frequencies (cm-1) and Eigenvectors : 

  Frequency    -291.9303 -233.2482 -199.3239 -150.4838  -85.2675  -45.9766
  IR Intensity    0.1302    0.0722    0.0300    0.0494    0.0275    0.0000
     in X         0.0058    0.0634    0.0013    0.0462    0.0066    0.0000
     in Y         0.1243    0.0031    0.0286    0.0022    0.0004    0.0000
     in Z         0.0000    0.0057    0.0000    0.0009    0.0205    0.0000
  Raman Intsty    0.0000    0.4432    0.0000    0.0256    0.3534    0.0000

     1 x       0.001812 -0.094078  0.004760 -0.175127  0.115466  0.052718
     1 y      -0.008382 -0.021937 -0.022024 -0.033571  0.031082 -0.243933
     1 z       0.000160 -0.084166  0.000420  0.224238  0.321272  0.004652
     2 x      -0.000794 -0.028575  0.001817  0.106593 -0.163917 -0.004247
     2 y       0.003675 -0.006850 -0.008408  0.025335 -0.032547  0.019649
     2 z      -0.000070 -0.035365  0.000160  0.120510  0.150919 -0.000375
     3 x      -0.126633 -0.270539  0.059676 -0.279942  0.170863 -0.051104
     3 y       0.585944 -0.057862 -0.276126 -0.067349  0.033096  0.236465
     3 z      -0.011175  0.031779  0.005266 -0.359075 -0.200861 -0.004510
     4 x       0.165959  0.861249  0.063604  0.049965  0.110391 -0.034565
     4 y      -0.767906  0.182554 -0.294301  0.004407  0.020796  0.159938
     4 z       0.014646 -0.187599  0.005613 -0.335093 -0.160524 -0.003050
     5 x       0.026869 -0.006366  0.051597 -0.156352  0.082779 -0.291224
     5 y       0.001525 -0.028043 -0.046848 -0.028557  0.007733 -0.005404
     5 z       0.054854  0.127028  0.051923 -0.159695 -0.183744  0.178924
     6 x      -0.024669 -0.018374 -0.027246 -0.152934  0.080033  0.268882
     6 y      -0.011702  0.027521 -0.065827 -0.044372  0.020440  0.108783
     6 z      -0.054660  0.125968 -0.049774 -0.159393 -0.183987 -0.180896
     7 x      -0.013147 -0.068350  0.011343  0.149606  0.040356 -0.085388
     7 y       0.060833 -0.013458 -0.052484  0.031390  0.004228  0.395097
     7 z      -0.001160  0.068863  0.001001 -0.049439 -0.235594 -0.007536
     8 x      -0.005729 -0.037332  0.001581  0.035279  0.066738  0.056367
     8 y       0.026509 -0.008409 -0.007316  0.008840  0.019373 -0.260814
     8 z      -0.000506 -0.017873  0.000140  0.063734  0.259506  0.004974
     9 x       0.003483 -0.011999 -0.006887  0.051981 -0.239556  0.283542
     9 y       0.003215 -0.013860 -0.005092  0.024559 -0.032671  0.001247
     9 z       0.002204 -0.003806 -0.003533  0.090306  0.157718 -0.029757
    10 x      -0.004482 -0.016620  0.008347  0.056771 -0.232913 -0.258995
    10 y       0.001408  0.007521 -0.001662  0.002396 -0.063411 -0.114829
    10 z      -0.002292 -0.004214  0.003661  0.090728  0.158304  0.031924
    11 x       0.016245 -0.211803 -0.189966  0.507845 -0.196518 -0.030100
    11 y      -0.075167 -0.045623  0.878988  0.115494 -0.050810  0.139274
    11 z       0.001434  0.007965 -0.016765  0.300910 -0.437216 -0.002656
    12 x      -0.014839 -0.021862  0.008677 -0.126904  0.142819  0.094619
    12 y       0.068662 -0.004949 -0.040151 -0.024088  0.036630 -0.437809
    12 z      -0.001310 -0.011764  0.000766  0.175017  0.302210  0.008350


  Frequency      -0.0000   -0.0000    0.0000   26.5948   48.6208  109.4778
  IR Intensity    0.0000    0.0000    0.0000    0.0005    0.0057    0.0062
     in X         0.0000    0.0000    0.0000    0.0000    0.0003    0.0017
     in Y         0.0000    0.0000    0.0000    0.0004    0.0054    0.0001
     in Z         0.0000    0.0000    0.0000    0.0000    0.0000    0.0044
  Raman Intsty    0.0000    0.0000    0.0000    0.0000    0.0000    0.4392

     1 x      -0.316032 -0.009255  0.084423  0.041598 -0.023631 -0.107261
     1 y      -0.082370 -0.045858 -0.313371 -0.192476  0.109344 -0.019800
     1 z       0.020693 -0.323883  0.041958  0.003671 -0.002086  0.177286
     2 x      -0.316032 -0.009255  0.084423 -0.059821 -0.046624  0.197725
     2 y      -0.082370 -0.045858 -0.313371  0.276798  0.215733  0.045230
     2 z       0.020693 -0.323883  0.041958 -0.005279 -0.004115  0.130800
     3 x      -0.316032 -0.009255  0.084423  0.016962  0.100950 -0.019928
     3 y      -0.082370 -0.045858 -0.313371 -0.078486 -0.467106 -0.007657
     3 z       0.020693 -0.323883  0.041958  0.001497  0.008909 -0.175572
     4 x      -0.265208 -0.007766  0.070847  0.018920  0.050716 -0.116657
     4 y      -0.069123 -0.038483 -0.262975 -0.087545 -0.234669 -0.027746
     4 z       0.017365 -0.271797  0.035210  0.001670  0.004476 -0.132838
     5 x      -0.265208 -0.007766  0.070847 -0.042718  0.215836 -0.150128
     5 y      -0.069123 -0.038483 -0.262975 -0.116523 -0.038489  0.000639
     5 z       0.017365 -0.271797  0.035210  0.019037  0.256046  0.048385
     6 x      -0.265208 -0.007766  0.070847  0.087158 -0.178675 -0.136847
     6 y      -0.069123 -0.038483 -0.262975 -0.089105 -0.133455 -0.060788
     6 z       0.017365 -0.271797  0.035210 -0.015115 -0.252767  0.049545
     7 x      -0.265208 -0.007766  0.070847  0.035287 -0.102580  0.070839
     7 y      -0.069123 -0.038483 -0.262975 -0.163276  0.474649  0.020239
     7 z       0.017365 -0.271797  0.035210  0.003114 -0.009053  0.258486
     8 x      -0.265208 -0.007766  0.070847  0.026094 -0.022771 -0.019489
     8 y      -0.069123 -0.038483 -0.262975 -0.120738  0.105366 -0.004549
     8 z       0.017365 -0.271797  0.035210  0.002303 -0.002010 -0.018320
     9 x      -0.265208 -0.007766  0.070847 -0.242448  0.188934  0.418668
     9 y      -0.069123 -0.038483 -0.262975  0.409316  0.137381  0.060935
     9 z       0.017365 -0.271797  0.035210 -0.369079  0.048826  0.010071
    10 x      -0.265208 -0.007766  0.070847  0.048945 -0.228407  0.406410
    10 y      -0.069123 -0.038483 -0.262975  0.486044  0.045257  0.117744
    10 z       0.017365 -0.271797  0.035210  0.352003 -0.052310  0.008966
    11 x      -0.265208 -0.007766  0.070847  0.019201  0.052105 -0.351736
    11 y      -0.069123 -0.038483 -0.262975 -0.088843 -0.241092 -0.084062
    11 z       0.017365 -0.271797  0.035210  0.001694  0.004598 -0.421725
    12 x      -0.265208 -0.007766  0.070847  0.051065 -0.011735 -0.205115
    12 y      -0.069123 -0.038483 -0.262975 -0.236284  0.054301 -0.043591
    12 z       0.017365 -0.271797  0.035210  0.004506 -0.001036  0.039523


  Frequency     110.4187  149.1795  174.7183  175.8925  186.3240  198.2069
  IR Intensity    0.0004    0.0109    0.0166    0.0061    0.0000    0.0855
     in X         0.0000    0.0017    0.0135    0.0003    0.0000    0.0146
     in Y         0.0004    0.0000    0.0006    0.0058    0.0000    0.0010
     in Z         0.0000    0.0091    0.0025    0.0000    0.0000    0.0699
  Raman Intsty    0.0000    0.0319    0.0465    0.0000    0.0000    0.9189

     1 x      -0.005291 -0.148084  0.059252  0.010144 -0.069049 -0.029203
     1 y       0.024466 -0.031034  0.010718 -0.046942  0.319493 -0.013817
     1 z      -0.000462  0.050834 -0.109422  0.000896 -0.006094 -0.393534
     2 x       0.021882  0.270405 -0.001148  0.034633  0.037052  0.029160
     2 y      -0.101220  0.056443  0.001915 -0.160251 -0.171443  0.005404
     2 z       0.001934 -0.104696  0.113497  0.003055  0.003270 -0.047093
     3 x      -0.007298 -0.170243  0.169577 -0.010198  0.024433 -0.185705
     3 y       0.033765 -0.031724  0.034640  0.047178 -0.113055 -0.040013
     3 z      -0.000649  0.265775 -0.105342 -0.000899  0.002156  0.006372
     4 x      -0.007840 -0.005232  0.041047 -0.025963  0.019707 -0.083152
     4 y       0.036260  0.002762  0.007477  0.120130 -0.091185 -0.018206
     4 z      -0.000695  0.204092 -0.073118 -0.002291  0.001739 -0.012353
     5 x       0.099791 -0.069326  0.069370 -0.026695 -0.117359 -0.032272
     5 y      -0.039406 -0.066515  0.004944 -0.004327  0.333068  0.008409
     5 z      -0.177806 -0.076599  0.071076  0.455573  0.282920 -0.175971
     6 x      -0.076030 -0.089996  0.064663  0.029686 -0.028376 -0.024536
     6 y      -0.070583  0.029126  0.026727 -0.009515  0.341262 -0.027386
     6 z       0.179907 -0.078423  0.070652 -0.455311 -0.295782 -0.175287
     7 x      -0.006453  0.456739  0.062029 -0.020507  0.086472 -0.017474
     7 y       0.029871  0.089127  0.013234  0.094884 -0.400116 -0.002969
     7 z      -0.000562 -0.502437 -0.009053 -0.001810  0.007631  0.042256
     8 x       0.085370  0.293536  0.011900  0.078572 -0.036827 -0.127328
     8 y      -0.395017  0.062824  0.003398 -0.363561  0.170400 -0.029788
     8 z       0.007533 -0.032237  0.043499  0.006933 -0.003250 -0.119038
     9 x       0.338178 -0.021187 -0.079871 -0.325490  0.175608  0.147694
     9 y       0.038990  0.005641 -0.107750 -0.097459 -0.054776 -0.205621
     9 z      -0.352262  0.063300  0.366915 -0.027976 -0.259467  0.412771
    10 x      -0.326851 -0.017465 -0.120107  0.336466 -0.139372  0.046387
    10 y      -0.091277 -0.011574  0.078458  0.046686 -0.112890  0.263139
    10 z       0.353261  0.063628  0.363364  0.028939  0.262666  0.403830
    11 x      -0.011030 -0.306170  0.125064 -0.003805  0.015990 -0.127607
    11 y       0.050983 -0.064046  0.024747  0.017601 -0.073990 -0.026728
    11 z      -0.000985  0.111317 -0.119625 -0.000335  0.001411  0.044561
    12 x      -0.106209 -0.183795 -0.445409 -0.083469  0.033169  0.439632
    12 y       0.491408 -0.039820 -0.107568  0.386241 -0.153474  0.096857
    12 z      -0.009371 -0.005164 -0.593038 -0.007361  0.002927  0.096704


  Frequency     208.3209  240.1350  240.4291  269.4605  280.7612  316.0150
  IR Intensity    0.0064    0.0087    0.0604    0.0104    0.0781    0.0289
     in X         0.0003    0.0004    0.0021    0.0085    0.0035    0.0133
     in Y         0.0061    0.0083    0.0000    0.0004    0.0746    0.0007
     in Z         0.0000    0.0000    0.0583    0.0015    0.0000    0.0149
  Raman Intsty    0.0000    0.0000    0.0494    0.3951    0.0000    0.1487

     1 x       0.059703 -0.031446  0.040772  0.045112 -0.057718 -0.106628
     1 y      -0.276251  0.145513  0.012411  0.008538  0.267065 -0.025848
     1 z       0.005269 -0.002765  0.189125 -0.063565 -0.005093 -0.146992
     2 x      -0.021162  0.066071 -0.247248  0.324925 -0.042927  0.106358
     2 y       0.097919 -0.305776 -0.051352  0.071797  0.198625  0.029615
     2 z      -0.001867  0.005837  0.108374  0.082561 -0.003788  0.347584
     3 x      -0.054064 -0.043020  0.054914 -0.109204 -0.039742  0.205640
     3 y       0.250158  0.199073  0.016425 -0.022618  0.183890  0.045360
     3 z      -0.004771 -0.003785  0.239461  0.051519 -0.003507  0.048119
     4 x      -0.051025 -0.035564  0.162995  0.001357 -0.023154  0.096462
     4 y       0.236097  0.164597  0.039173  0.000848  0.107135  0.022253
     4 z      -0.004503 -0.003129  0.207399  0.029060 -0.002043  0.073720
     5 x       0.142548  0.367320  0.121599  0.009086  0.356312 -0.057978
     5 y      -0.298500 -0.069308 -0.053042  0.028198  0.077922 -0.064971
     5 z       0.267343 -0.007814 -0.443175 -0.314041  0.072057 -0.013512
     6 x      -0.004503 -0.305991  0.092375  0.022387 -0.356123 -0.079520
     6 y      -0.340246 -0.214415  0.082347 -0.033353 -0.078796  0.034703
     6 z      -0.255161  0.013181 -0.445759 -0.312867 -0.072040 -0.015413
     7 x       0.072945 -0.070469 -0.166697  0.031808  0.060286  0.369843
     7 y      -0.337523  0.326025 -0.036696  0.018278 -0.278950  0.078484
     7 z       0.006437 -0.006220 -0.034234  0.597919  0.005319 -0.075811
     8 x      -0.087841 -0.044796 -0.226418  0.216819  0.110451 -0.629519
     8 y       0.406450  0.207220 -0.047083  0.047119 -0.511068 -0.139998
     8 z      -0.007752 -0.003947  0.097562  0.013710  0.009747 -0.206977
     9 x       0.216725 -0.132631  0.253713 -0.273167  0.069804 -0.097983
     9 y       0.059267 -0.139573 -0.036566  0.182605  0.100499  0.235203
     9 z       0.019245 -0.300211 -0.041566 -0.007319  0.215974 -0.007747
    10 x      -0.221705  0.176073  0.216293 -0.173358 -0.103362  0.007913
    10 y      -0.036228 -0.061323  0.136504 -0.279219  0.054781 -0.254786
    10 z      -0.019684  0.304038 -0.044897  0.001489 -0.218935  0.001598
    11 x      -0.015020 -0.015402 -0.033567 -0.142530 -0.006979  0.067524
    11 y       0.069497  0.071257 -0.004103 -0.030229  0.032293  0.013053
    11 z      -0.001326 -0.001351  0.165424  0.030104 -0.000616 -0.080758
    12 x      -0.033627  0.071463 -0.239686 -0.003219  0.060055  0.078533
    12 y       0.155595 -0.330726 -0.053702 -0.003025 -0.277881  0.017516
    12 z      -0.002968  0.006303 -0.100616 -0.122084  0.005300  0.028528


  Frequency     335.8806  356.8751  414.7096  528.2688  588.1845  610.0370
  IR Intensity    0.0307    0.0627    0.0325    0.0290    0.0542    0.0226
     in X         0.0285    0.0572    0.0031    0.0066    0.0044    0.0187
     in Y         0.0013    0.0028    0.0002    0.0002    0.0001    0.0009
     in Z         0.0010    0.0028    0.0291    0.0222    0.0497    0.0030
  Raman Intsty    2.3806    2.8205    0.6523    1.7560    0.1259    0.0653

     1 x       0.232637 -0.089784 -0.317748  0.005360  0.083006 -0.183042
     1 y       0.047141 -0.019798 -0.076132  0.001152  0.021464 -0.047647
     1 z      -0.164466 -0.020662 -0.391194 -0.000353  0.184824 -0.424053
     2 x      -0.175986  0.025346 -0.080338  0.214692 -0.276107 -0.222794
     2 y      -0.031447  0.006619 -0.015362  0.041218 -0.052276 -0.042760
     2 z       0.345376  0.059850  0.104877 -0.271648  0.387793  0.282586
     3 x      -0.319595 -0.311794  0.218637  0.005061 -0.019668  0.014595
     3 y      -0.070078 -0.069686  0.047773  0.001034 -0.004333  0.003287
     3 z      -0.052843 -0.120682  0.027371 -0.003124 -0.004348  0.006952
     4 x      -0.096463 -0.205719  0.050106 -0.004986 -0.000245  0.002935
     4 y      -0.022881 -0.047661  0.012324 -0.001169 -0.000555  0.001391
     4 z      -0.106639 -0.167827  0.078406 -0.004782 -0.026335  0.039699
     5 x      -0.033241  0.516895 -0.127762  0.007563 -0.096140  0.158387
     5 y       0.254633 -0.318138 -0.362536  0.046369 -0.214862  0.281282
     5 z       0.033002  0.082749 -0.024153 -0.003799  0.006051 -0.025690
     6 x       0.074579  0.338799 -0.265830  0.026059 -0.176307  0.260574
     6 y      -0.244258  0.505926  0.276320 -0.039216  0.156077 -0.191544
     6 z       0.042517  0.067032 -0.036337 -0.002167 -0.001024 -0.016672
     7 x       0.114684  0.049897 -0.058420  0.336683  0.300253  0.187918
     7 y       0.021353  0.011126 -0.012425  0.076423  0.068063  0.042411
     7 z      -0.179960  0.017965  0.010535  0.191906  0.166369  0.094297
     8 x      -0.004722 -0.103756  0.250056 -0.351593  0.203769  0.195147
     8 y       0.007342 -0.021949  0.063290 -0.066532  0.038100  0.040126
     8 z       0.438465  0.024899  0.484901  0.495677 -0.311353 -0.107422
     9 x       0.077475  0.003179  0.062638 -0.051405 -0.020823  0.003386
     9 y       0.167772  0.056571  0.070880 -0.377987 -0.312933 -0.130488
     9 z      -0.094407 -0.014398 -0.042800 -0.160322 -0.152895 -0.079720
    10 x       0.140564  0.026362  0.086646 -0.201592 -0.146942 -0.050155
    10 y      -0.124145 -0.050697 -0.040209  0.316942  0.270632  0.117250
    10 z      -0.088839 -0.012353 -0.040682 -0.173576 -0.164024 -0.084445
    11 x      -0.152578 -0.130766  0.131413  0.006836 -0.039117  0.053441
    11 y      -0.030723 -0.027065  0.026163  0.001170 -0.007732  0.010264
    11 z       0.118065  0.062723 -0.117347 -0.016138  0.037852 -0.067409
    12 x       0.193035 -0.046559  0.084992 -0.035818  0.229095 -0.345415
    12 y       0.035714 -0.009369  0.018293 -0.007721  0.045091 -0.066876
    12 z      -0.314813  0.036322 -0.003952  0.001050 -0.231812  0.407653


  Frequency     719.1142  722.0315  779.3258  782.1034  837.9723  943.1349
  IR Intensity    0.0297    0.0166    0.0053    0.0064    0.0016    0.0000
     in X         0.0283    0.0007    0.0002    0.0031    0.0006    0.0000
     in Y         0.0013    0.0159    0.0050    0.0002    0.0000    0.0000
     in Z         0.0001    0.0000    0.0000    0.0032    0.0009    0.0000
  Raman Intsty    0.0041    0.0000    0.0000    0.0547    0.5269    0.0440

     1 x       0.097680 -0.148130  0.003292  0.121764  0.718778  0.052781
     1 y       0.019053  0.685410 -0.015220  0.026605  0.150542  0.011578
     1 z      -0.107775 -0.013073  0.000291  0.015147 -0.251658  0.008965
     2 x      -0.008392  0.003376  0.155990 -0.551195  0.093574  0.016662
     2 y      -0.001898 -0.015621 -0.721835 -0.128194  0.021736  0.003927
     2 z      -0.004434  0.000298  0.013757 -0.476454  0.079312  0.017069
     3 x       0.465362 -0.005888  0.000889 -0.035693 -0.177108 -0.159655
     3 y       0.101603  0.027254 -0.004115 -0.007653 -0.039557 -0.020727
     3 z       0.054006 -0.000520  0.000079  0.003179 -0.067151  0.722344
     4 x      -0.067884  0.001376 -0.000193 -0.003372  0.013015 -0.099208
     4 y      -0.025417 -0.006367  0.000892 -0.000614  0.005089 -0.031114
     4 z      -0.563414  0.000120 -0.000017  0.006010  0.119368 -0.507174
     5 x      -0.057992 -0.231058  0.000628 -0.033214 -0.146693 -0.014075
     5 y      -0.039329 -0.445082  0.010440 -0.047005 -0.231962 -0.010904
     5 z      -0.002843  0.019939  0.001661  0.002101  0.012235 -0.019598
     6 x      -0.069034  0.394333 -0.004871 -0.049671 -0.229457 -0.017166
     6 y       0.011752 -0.310409  0.009183  0.029144  0.150996  0.003399
     6 z      -0.003817 -0.005530 -0.002035  0.000649  0.004931 -0.019871
     7 x       0.005870  0.002446 -0.004139  0.457765 -0.060770 -0.011897
     7 y       0.001362 -0.011317  0.019199  0.103874 -0.014070 -0.002827
     7 z       0.004906  0.000216 -0.000361  0.259211 -0.049077 -0.013440
     8 x      -0.002663  0.008533 -0.004414  0.017747 -0.043702 -0.003391
     8 y      -0.000348 -0.039483  0.020428  0.004076 -0.009554 -0.000862
     8 z       0.011942  0.000753 -0.000389  0.012617 -0.005705 -0.006782
     9 x      -0.000085  0.002405  0.033492  0.045033 -0.011978  0.000897
     9 y       0.003952  0.009741  0.440820  0.228090 -0.029193 -0.003502
     9 z       0.003179  0.003139  0.176417  0.118529 -0.012577 -0.002073
    10 x       0.001530 -0.006187 -0.211083  0.134247 -0.022862 -0.000612
    10 y      -0.003516  0.007758  0.380926 -0.184690  0.021166  0.003482
    10 z       0.003321 -0.003473 -0.192084  0.126409 -0.013538 -0.002206
    11 x      -0.365714  0.000134 -0.000131  0.027378  0.032939  0.262504
    11 y      -0.069444 -0.000628  0.000607  0.005519  0.006147  0.050486
    11 z       0.502989  0.000014 -0.000012 -0.020860 -0.050936 -0.327498
    12 x      -0.104969  0.007528 -0.000155 -0.041654 -0.287472 -0.009552
    12 y      -0.020529 -0.034835  0.000711 -0.008215 -0.056775 -0.001934
    12 z       0.113093  0.000665 -0.000013  0.041259  0.280692  0.006846




--------------------------------------------------------------------------------
  Vibrational properties (for cluster):  Temperature  =       0.000 K
--------------------------------------------------------------------------------
  Zero point energy            =        0.641758 eV
--------------------------------------------------------------------------------

  Phonon density of states : 

--------------------------------------------------------------------------------
 Frequency (cm-1) Density of States                                             
--------------------------------------------------------------------------------
    0.00000 |******************************                                0.036
   14.73648 |******************************                                0.036
   29.47297 |                                                              0.000
   44.20945 |******************************                                0.036
   58.94593 |                                                              0.000
   73.68242 |                                                              0.000
   88.41890 |                                                              0.000
  103.15538 |************************************************************  0.071
  117.89187 |                                                              0.000
  132.62835 |                                                              0.000
  147.36483 |******************************                                0.036
  162.10132 |************************************************************  0.071
  176.83780 |******************************                                0.036
  191.57428 |******************************                                0.036
  206.31077 |******************************                                0.036
  221.04725 |                                                              0.000
  235.78373 |************************************************************  0.071
  250.52022 |                                                              0.000
  265.25670 |******************************                                0.036
  279.99318 |******************************                                0.036
  294.72967 |                                                              0.000
  309.46615 |******************************                                0.036
  324.20263 |******************************                                0.036
  338.93912 |                                                              0.000
  353.67560 |******************************                                0.036
  368.41208 |                                                              0.000
  383.14857 |                                                              0.000
  397.88505 |                                                              0.000
  412.62153 |******************************                                0.036
  427.35801 |                                                              0.000
  442.09450 |                                                              0.000
  456.83098 |                                                              0.000
  471.56746 |                                                              0.000
  486.30395 |                                                              0.000
  501.04043 |                                                              0.000
  515.77691 |******************************                                0.036
  530.51340 |                                                              0.000
  545.24988 |                                                              0.000
  559.98636 |                                                              0.000
  574.72285 |******************************                                0.036
  589.45933 |                                                              0.000
  604.19581 |******************************                                0.036
  618.93230 |                                                              0.000
  633.66878 |                                                              0.000
  648.40526 |                                                              0.000
  663.14175 |                                                              0.000
  677.87823 |                                                              0.000
  692.61471 |                                                              0.000
  707.35120 |************************************************************  0.071
  722.08768 |                                                              0.000
  736.82416 |                                                              0.000
  751.56065 |                                                              0.000
  766.29713 |******************************                                0.036
  781.03361 |******************************                                0.036
  795.77010 |                                                              0.000
  810.50658 |                                                              0.000
  825.24306 |******************************                                0.036
  839.97955 |                                                              0.000
  854.71603 |                                                              0.000
  869.45251 |                                                              0.000
  884.18900 |                                                              0.000
  898.92548 |                                                              0.000
  913.66196 |                                                              0.000
  928.39845 |******************************                                0.036
--------------------------------------------------------------------------------



  Time to end of optimisation =       0.0331 seconds


  Peak dynamic memory used =       0.65 MB 


  Timing analysis for GULP :

--------------------------------------------------------------------------------
  Task / Subroutine                                          Time (Seconds)
--------------------------------------------------------------------------------
  Calculation of real space energy and derivatives                0.0022
  Calculation of phonons                                          0.0017
  Calculation and manipulation of Hessian matrix                  0.0013
--------------------------------------------------------------------------------
  Total CPU time                                                  0.0331
--------------------------------------------------------------------------------


  Job Finished at 14:39.11 25th May        2022                               

