------------------------------------------------------------
          Invoking FHI-aims ...

          When using FHI-aims, please cite the following reference:

            Volker Blum, Ralf Gehrke, Felix Hanke, Paula Havu,
            Ville Havu, Xinguo Ren, Karsten Reuter, and Matthias Scheffler,
            'Ab Initio Molecular Simulations with Numeric Atom-Centered Orbitals',
            Computer Physics Communications 180, 2175-2196 (2009)

          In addition, many other developments in FHI-aims are likely important for
          your particular application. A partial list of references is given at the end of
          this file. Thank you for giving credit to the authors of these developments.

          For any questions about FHI-aims, please visit our slack channel at

            https://fhi-aims.slack.com

          and our main development and support site at

            https://aims-git.rz-berlin.mpg.de .

          The latter site, in particular, has a wiki to collect information, as well
          as an issue tracker to log discussions, suggest improvements, and report issues
          or bugs. https://aims-git.rz-berlin.mpg.de is also the main development site
          of the project and all new and updated code versions can be obtained there.
          Please send an email to aims-coordinators@fhi-berlin.mpg.de and we will add
          you to these sites. They are for you and everyone is welcome there.

------------------------------------------------------------



  Date     :  20220517, Time     :  121426.850
  Time zero on CPU 1             :   0.420780000000000E-01  s.
  Internal wall clock time zero  :           422021666.850  s.

  FHI-aims created a unique identifier for this run for later identification
  aims_uuid : 8BBF484B-5419-4829-A3A1-77974C58073C

  Build configuration of the current instance of FHI-aims
  -------------------------------------------------------
  FHI-aims version      : 210914
  Commit number         : GITDIR-NOTFOUND
  CMake host system     : Linux-3.10.0-693.17.1.el7.x86_64
  CMake version         : 3.21.1
  Fortran compiler      : /shared/ucl/apps/intel/2018.Update3/impi/2018.3.222/intel64/bin/mpiifort (Intel) version 18.0.3.20180410
  Fortran compiler flags: -O3 -ip -fp-model precise
  C compiler            : /shared/ucl/apps/intel/2018.Update3/compilers_and_libraries_2018.3.222/linux/bin/intel64/icc (Intel) version 18.0.3.20180410
  C compiler flags      : -O3 -ip -fp-model precise -std=gnu99
  ELPA2 kernel          : AVX2
  Using MPI
  Using ScaLAPACK
  Using LibXC
  Using i-PI
  Using RLSY
  Linking against: /shared/ucl/apps/intel/2019.Update5/compilers_and_libraries_2019.5.281/linux/mkl/lib/intel64/libmkl_intel_lp64.so
                   /shared/ucl/apps/intel/2019.Update5/compilers_and_libraries_2019.5.281/linux/mkl/lib/intel64/libmkl_sequential.so
                   /shared/ucl/apps/intel/2019.Update5/compilers_and_libraries_2019.5.281/linux/mkl/lib/intel64/libmkl_core.so
                   /shared/ucl/apps/intel/2019.Update5/compilers_and_libraries_2019.5.281/linux/mkl/lib/intel64/libmkl_blacs_intelmpi_lp64.so
                   /shared/ucl/apps/intel/2019.Update5/compilers_and_libraries_2019.5.281/linux/mkl/lib/intel64/libmkl_scalapack_lp64.so

  Using       24 parallel tasks.
  Task        0 on host node-k98a-025 reporting.
  Task        1 on host node-k98a-025 reporting.
  Task        2 on host node-k98a-025 reporting.
  Task        3 on host node-k98a-025 reporting.
  Task        4 on host node-k98a-025 reporting.
  Task        5 on host node-k98a-025 reporting.
  Task        6 on host node-k98a-025 reporting.
  Task        7 on host node-k98a-025 reporting.
  Task        8 on host node-k98a-025 reporting.
  Task        9 on host node-k98a-025 reporting.
  Task       10 on host node-k98a-025 reporting.
  Task       11 on host node-k98a-025 reporting.
  Task       12 on host node-k98a-025 reporting.
  Task       13 on host node-k98a-025 reporting.
  Task       14 on host node-k98a-025 reporting.
  Task       15 on host node-k98a-025 reporting.
  Task       16 on host node-k98a-025 reporting.
  Task       17 on host node-k98a-025 reporting.
  Task       18 on host node-k98a-025 reporting.
  Task       19 on host node-k98a-025 reporting.
  Task       20 on host node-k98a-025 reporting.
  Task       21 on host node-k98a-025 reporting.
  Task       22 on host node-k98a-025 reporting.
  Task       23 on host node-k98a-025 reporting.

  Performing system and environment tests:
  | Environment variable OMP_NUM_THREADS correctly set to 1.
  | Checking for ScaLAPACK...
  | Testing pdtran()...
  | All pdtran() tests passed.

  Obtaining array dimensions for all initial allocations:
  
  -----------------------------------------------------------------------
  Parsing control.in (first pass over file, find array dimensions only).
  The contents of control.in will be repeated verbatim below
  unless switched off by setting 'verbatim_writeout .false.' .
  in the first line of control.in .
  -----------------------------------------------------------------------
  
  #########################################################################################  Physical model
  #########################################################################################
  xc                 pbesol
  spin               none
  relativistic       atomic_zora scalar
  charge             0.0
  #  SCF convergence
  occupation_type    gaussian 0.01
  mixer              pulay
  n_max_pulay        10
  charge_mix_param   0.5
  sc_accuracy_rho    1E-5
  sc_accuracy_eev    1E-3
  sc_accuracy_etot   1E-6
  sc_accuracy_forces 1E-4
  sc_iter_limit      1500
  #  Relaxation
  #relax_geometry   bfgs 1.e-3
  
  ################################################################################
  #
  #  FHI-aims code project
  #  VB, Fritz-Haber Institut, 2009
  #
  #  Suggested "light" defaults for Al atom (to be pasted into control.in file)
  #  Be sure to double-check any results obtained with these settings for post-processing,
  #  e.g., with the "tight" defaults and larger basis sets.
  #
  ################################################################################
    species        Al
  #     global species definitions
      nucleus             13
      mass                26.9815386
  #
      l_hartree           4
  #
      cut_pot             3.5          1.5  1.0
      basis_dep_cutoff    1e-4
  #
      radial_base         41 5.0
      radial_multiplier   1
      angular_grids       specified
        division   0.6594  110
        division   0.8170  194
        division   0.9059  302
  #      division   1.0363  434
  #      division   1.1443  590
  #      division   1.2621  770
  #      division   2.8177  974
  #      outer_grid   974
        outer_grid   302
  ################################################################################
  #
  #  Definition of "minimal" basis
  #
  ################################################################################
  #     valence basis states
      valence      3  s   2.
      valence      3  p   1.
  #     ion occupancy
      ion_occ      3  s   1.
      ion_occ      2  p   6.
  ################################################################################
  #
  #  Suggested additional basis functions. For production calculations,
  #  uncomment them one after another (the most important basis functions are
  #  listed first).
  #
  #  Constructed for dimers: 2.0 A, 2.5 A, 3.0 A, 3.75 A, 4.5 A
  #
  ################################################################################
  #  "First tier" - improvements: -199.47 meV to -10.63 meV
       ionic 3 d auto
       ionic 3 p auto
  #     hydro 4 f 4.7
       ionic 3 s auto
  #  "Second tier" - improvements: -5.35 meV to -1.57 meV
  #     hydro 5 g 7
  #     hydro 3 d 6
  #     hydro 2 s 11.6
  #     hydro 2 p 0.9
  #  "Third tier" - improvements: -0.63 meV to -0.20 meV
  #     hydro 5 f 7.6
  #     hydro 4 p 7.2
  #     hydro 4 s 3.7
  #     hydro 4 d 7.6
  #  "Fourth tier" - improvements: -0.17 meV to -0.08 meV
  #     hydro 4 d 13.6
  #     hydro 5 g 11.2
  #     hydro 4 d 0.9
  #     hydro 1 s 0.4
  #     hydro 4 p 0.1
  #     hydro 5 f 9.8
  #  Further basis functions that fell out of the optimization - noise level...
  #     hydro 4 p 5
  
  ################################################################################
  #
  #  FHI-aims code project
  #  VB, Fritz-Haber Institut, 2009
  #
  #  Suggested "light" defaults for F atom (to be pasted into control.in file)
  #  Be sure to double-check any results obtained with these settings for post-processing,
  #  e.g., with the "tight" defaults and larger basis sets.
  #
  ################################################################################
    species        F
  #     global species definitions
      nucleus             9
      mass                18.9984032
  #
      l_hartree           4
  #
      cut_pot             3.5  1.5  1.0
      basis_dep_cutoff    1e-4
  #
      radial_base         37 5.0
      radial_multiplier   1
      angular_grids specified
        division   0.4014  110
        division   0.5291  194
        division   0.6019  302
  #      division   0.6814  434
  #      division   0.7989  590
  #      division   0.8965  770
  #      division   1.3427  974
  #      outer_grid   974
        outer_grid   302
  ################################################################################
  #
  #  Definition of "minimal" basis
  #
  ################################################################################
  #     valence basis states
      valence      2  s   2.
      valence      2  p   5.
  #     ion occupancy
      ion_occ      2  s   1.
      ion_occ      2  p   4.
  ################################################################################
  #
  #  Suggested additional basis functions. For production calculations,
  #  uncomment them one after another (the most important basis functions are
  #  listed first).
  #
  #  Constructed for dimers: 1.2 A, 1.418 A, 1.75 A, 2.25 A, 3.25 A
  #
  ################################################################################
  #  "First tier" - improvements: -149.44 meV to -45.88 meV
       hydro 2 p 1.7
       hydro 3 d 7.4
       hydro 3 s 6.8
  #  "Second tier" - improvements: -12.96 meV to -1.56 meV
  #     hydro 4 f 11.2
  #     ionic 2 p auto
  #     hydro 1 s 0.75
  #     hydro 4 d 8.8
  #     hydro 5 g 16.8
  #  "Third tier" - improvements: -0.58 meV to -0.05 meV
  #     hydro 3 p 6.2
  #     hydro 3 s 3.2
  #     hydro 4 f 9.6
  #     hydro 3 s 19.6
  #     hydro 4 d 8.6
  #     hydro 5 g 14.4
  # Further basis functions: -0.05 meV and below
  #     hydro 3 p 4.2
  
  -----------------------------------------------------------------------
  Completed first pass over input file control.in .
  -----------------------------------------------------------------------
  
  
  -----------------------------------------------------------------------
  Parsing geometry.in (first pass over file, find array dimensions only).
  The contents of geometry.in will be repeated verbatim below
  unless switched off by setting 'verbatim_writeout .false.' .
  in the first line of geometry.in .
  -----------------------------------------------------------------------
  
  atom -0.030127613 1.518858772 2.138665020 Al
  atom 2.543444696 2.565234225 1.749297775 Al
  atom 1.285471684 2.847284584 -0.614123454 Al
  atom 1.043528378 2.947367736 2.910555863 F
  atom -1.551299283 2.560928922 2.297632586 F
  atom -0.412395871 -0.184660466 2.610938630 F
  atom 1.852714153 0.809492393 1.795712465 F
  atom 2.932521345 1.982951453 -0.163733416 F
  atom 0.966796009 3.332455933 -2.328171212 F
  atom 1.708960894 4.065412587 0.762626867 F
  atom 4.140962168 3.052490177 2.440068980 F
  atom -0.032604791 1.863805010 0.209435693 F
  
  -----------------------------------------------------------------------
  Completed first pass over input file geometry.in .
  -----------------------------------------------------------------------
  

  Basic array size parameters:
  | Number of species                 :        2
  | Number of atoms                   :       12
  | Max. basis fn. angular momentum   :        2
  | Max. atomic/ionic basis occupied n:        3
  | Max. number of basis fn. types    :        3
  | Max. radial fns per species/type  :        5
  | Max. logarithmic grid size        :     1340
  | Max. radial integration grid size :       41
  | Max. angular integration grid size:      302
  | Max. angular grid division number :        8
  | Radial grid for Hartree potential :     1340
  | Number of spin channels           :        1

------------------------------------------------------------
          Reading file control.in.
------------------------------------------------------------
  XC: Using PBEsol gradient-corrected functionals.
  Spin treatment: No spin polarisation.
  Scalar relativistic treatment of kinetic energy: on-site free-atom approximation to ZORA.
  Charge =   0.000000E+00: Neutral system requested explicitly.
  Occupation type: Gaussian broadening, width =   0.100000E-01 eV.
  Using pulay charge density mixing.
  Pulay mixing - number of memorized iterations:   10
  Charge density mixing - mixing parameter:     0.5000
  Convergence accuracy of self-consistent charge density:  0.1000E-04
  Convergence accuracy of sum of eigenvalues:  0.1000E-02
  Convergence accuracy of total energy:  0.1000E-05
  Convergence accuracy of forces:  0.1000E-03
  Maximum number of s.-c. iterations  :  1500
 
  Reading configuration options for species Al                  .
  | Found nuclear charge :  13.0000
  | Found atomic mass :    26.9815386000000      amu
  | Found l_max for Hartree potential  :   4
  | Found cutoff potl. onset [A], width [A], scale factor :    3.50000    1.50000    1.00000
  | Threshold for basis-dependent cutoff potential is   0.100000E-03
  | Found data for basic radial integration grid :    41 points, outermost radius =    5.000 A
  | Found multiplier for basic radial grid :   1
  | Found angular grid specification: user-specified.
  | Specified grid contains     4 separate shells.
  | Check grid settings after all constraints further below.
  | Found free-atom valence shell :  3 s   2.000
  | Found free-atom valence shell :  3 p   1.000
  | Found free-ion valence shell :  3 s   1.000
  | Found free-ion valence shell :  2 p   6.000
  | Found ionic basis function :  3 d , default cutoff radius.
  | Found ionic basis function :  3 p , default cutoff radius.
  | Found ionic basis function :  3 s , default cutoff radius.
  Species Al                  : Missing cutoff potential type.
  Defaulting to exp(1/x)/(1-x)^2 type cutoff potential.
  Species Al: No 'logarithmic' tag. Using default grid for free atom:
  | Default logarithmic grid data [bohr] : 0.1000E-03 0.1000E+03 0.1012E+01
  | Will include ionic basis functions of  2.0-fold positive Al                   ion.
  Species Al: On-site basis accuracy parameter (for Gram-Schmidt orthonormalisation) not specified.
  Using default value basis_acc =  0.1000000E-03.
  Species Al                  : Using default innermost maximum threshold i_radial=  2 for radial functions.
  Species Al                  : Default cutoff onset for free atom density etc. : 0.35000000E+01 AA.
  Species Al                  : Basic radial grid will be enhanced according to radial_multiplier =   1, to contain    41 grid points.
 
  Reading configuration options for species F                   .
  | Found nuclear charge :   9.0000
  | Found atomic mass :    18.9984032000000      amu
  | Found l_max for Hartree potential  :   4
  | Found cutoff potl. onset [A], width [A], scale factor :    3.50000    1.50000    1.00000
  | Threshold for basis-dependent cutoff potential is   0.100000E-03
  | Found data for basic radial integration grid :    37 points, outermost radius =    5.000 A
  | Found multiplier for basic radial grid :   1
  | Found angular grid specification: user-specified.
  | Specified grid contains     4 separate shells.
  | Check grid settings after all constraints further below.
  | Found free-atom valence shell :  2 s   2.000
  | Found free-atom valence shell :  2 p   5.000
  | Found free-ion valence shell :  2 s   1.000
  | Found free-ion valence shell :  2 p   4.000
  | Found hydrogenic basis function :  2 p   1.700
  | Found hydrogenic basis function :  3 d   7.400
  | Found hydrogenic basis function :  3 s   6.800
  Species F                   : Missing cutoff potential type.
  Defaulting to exp(1/x)/(1-x)^2 type cutoff potential.
  Species F : No 'logarithmic' tag. Using default grid for free atom:
  | Default logarithmic grid data [bohr] : 0.1000E-03 0.1000E+03 0.1012E+01
  Species F : On-site basis accuracy parameter (for Gram-Schmidt orthonormalisation) not specified.
  Using default value basis_acc =  0.1000000E-03.
  Species F                   : Using default innermost maximum threshold i_radial=  2 for radial functions.
  Species F                   : Default cutoff onset for free atom density etc. : 0.35000000E+01 AA.
  Species F                   : Basic radial grid will be enhanced according to radial_multiplier =   1, to contain    37 grid points.
 
  Finished reading input file 'control.in'.
 
------------------------------------------------------------


------------------------------------------------------------
          Reading geometry description geometry.in.
------------------------------------------------------------
  | The smallest distance between any two atoms is         1.80738632 AA.
  | The first atom of this pair is atom number                      2 .
  | The second atom of this pair is atom number                    11 .
  Input structure read successfully.
  The structure contains       12 atoms,  and a total of        120.000 electrons.

  Input geometry:
  | No unit cell requested.
  | Atomic structure:
  |       Atom                x [A]            y [A]            z [A]
  |    1: Species Al           -0.03012761        1.51885877        2.13866502
  |    2: Species Al            2.54344470        2.56523423        1.74929778
  |    3: Species Al            1.28547168        2.84728458       -0.61412345
  |    4: Species F             1.04352838        2.94736774        2.91055586
  |    5: Species F            -1.55129928        2.56092892        2.29763259
  |    6: Species F            -0.41239587       -0.18466047        2.61093863
  |    7: Species F             1.85271415        0.80949239        1.79571247
  |    8: Species F             2.93252135        1.98295145       -0.16373342
  |    9: Species F             0.96679601        3.33245593       -2.32817121
  |   10: Species F             1.70896089        4.06541259        0.76262687
  |   11: Species F             4.14096217        3.05249018        2.44006898
  |   12: Species F            -0.03260479        1.86380501        0.20943569

 
  Finished reading input file 'control.in'.
 

------------------------------------------------------------
          Reading geometry description geometry.in.
------------------------------------------------------------
 
  Consistency checks for stacksize environment parameter are next.
 
  | Maximum stacksize for task 0: unlimited
  | Maximum stacksize for task 1: unlimited
  | Maximum stacksize for task 2: unlimited
  | Maximum stacksize for task 3: unlimited
  | Maximum stacksize for task 4: unlimited
  | Maximum stacksize for task 5: unlimited
  | Maximum stacksize for task 6: unlimited
  | Maximum stacksize for task 7: unlimited
  | Maximum stacksize for task 8: unlimited
  | Maximum stacksize for task 9: unlimited
  | Maximum stacksize for task 10: unlimited
  | Maximum stacksize for task 11: unlimited
  | Maximum stacksize for task 12: unlimited
  | Maximum stacksize for task 13: unlimited
  | Maximum stacksize for task 14: unlimited
  | Maximum stacksize for task 15: unlimited
  | Maximum stacksize for task 16: unlimited
  | Maximum stacksize for task 17: unlimited
  | Maximum stacksize for task 18: unlimited
  | Maximum stacksize for task 19: unlimited
  | Maximum stacksize for task 20: unlimited
  | Maximum stacksize for task 21: unlimited
  | Maximum stacksize for task 22: unlimited
  | Maximum stacksize for task 23: unlimited
  | Current stacksize for task 0: unlimited
  | Current stacksize for task 1: unlimited
  | Current stacksize for task 2: unlimited
  | Current stacksize for task 3: unlimited
  | Current stacksize for task 4: unlimited
  | Current stacksize for task 5: unlimited
  | Current stacksize for task 6: unlimited
  | Current stacksize for task 7: unlimited
  | Current stacksize for task 8: unlimited
  | Current stacksize for task 9: unlimited
  | Current stacksize for task 10: unlimited
  | Current stacksize for task 11: unlimited
  | Current stacksize for task 12: unlimited
  | Current stacksize for task 13: unlimited
  | Current stacksize for task 14: unlimited
  | Current stacksize for task 15: unlimited
  | Current stacksize for task 16: unlimited
  | Current stacksize for task 17: unlimited
  | Current stacksize for task 18: unlimited
  | Current stacksize for task 19: unlimited
  | Current stacksize for task 20: unlimited
  | Current stacksize for task 21: unlimited
  | Current stacksize for task 22: unlimited
  | Current stacksize for task 23: unlimited
 
  Consistency checks for the contents of control.in are next.
 
  MPI_IN_PLACE appears to work with this MPI implementation.
  | Keeping use_mpi_in_place .true. (see manual).
  Target number of points in a grid batch is not set. Defaulting to  100
  Method for grid partitioning is not set. Defaulting to parallel hash+maxmin partitioning.
  Batch size limit is not set. Defaulting to    200
  By default, will store active basis functions for each batch.
  If in need of memory, prune_basis_once .false. can be used to disable this option.
  communication_type for Hartree potential was not specified.
  Defaulting to calc_hartree .
  Pulay mixer: Number of initial linear mixing iterations not set.
  Defaulting to    0 iterations.
  Work space size for distributed Hartree potential not set.
  Defaulting to   0.200000E+03 MB.
  Algorithm-dependent basis array size parameters:
  | n_max_pulay                         :       10
  Presetting      1001 iterations before the initial mixing cycle
  is restarted anyway using the sc_init_iter criterion / keyword.
  Presetting a factor      1.000 between actual scf density residual
  and density convergence criterion sc_accuracy_rho below which sc_init_iter
  takes no effect.
  Geometry relaxation not requested: no relaxation will be performed.
  Forces evaluation will include force correction term due to incomplete self-consistency (default).
  Handling of forces: Unphysical translation and rotation will be removed from forces.
  No accuracy limit for integral partition fn. given. Defaulting to  0.1000E-14.
  No threshold value for u(r) in integrations given. Defaulting to  0.1000E-05.
  No accuracy for occupation numbers given. Defaulting to  0.1000E-12.
  No threshold value for occupation numbers given. Defaulting to  0.0000E+00.
  No accuracy for fermi level given. Defaulting to  0.1000E-19.
  Maximum # of iterations to find E_F not set. Defaulting to  200.
  Preferred method for the eigenvalue solver ('KS_method') not specified in 'control.in'.
  Calling BLACS routine to test compilation state
  Since ScaLAPACK support is enabled, defaulting to ELPA (via ELSI).
  Will not use alltoall communication since running on < 1024 CPUs.
  Threshold for basis singularities not set.
  Default threshold for basis singularities:  0.1000E-04
  partition_type (choice of integration weights) for integrals was not specified.
  | Using a version of the partition function of Stratmann and coworkers ('stratmann_sparse').
  | At each grid point, the set of atoms used to build the partition table is smoothly restricted to
  | only those atoms whose free-atom density would be non-zero at that grid point.
  Partitioning for Hartree potential was not defined. Using partition_type for integrals.
  | Adjusted default value of keyword multip_moments_threshold to:       0.10000000E-11
  | This value may affect high angular momentum components of the Hartree potential in periodic systems.
  No q(lm)/r^(l+1) cutoff set for long-range Hartree potential.
  | Using default value of  0.100000E-09 .
  | Verify using the multipole_threshold keyword.
  Defaulting to new monopole extrapolation.
  Density update method: automatic selection selected.
  Charge integration errors on the 3D integration grid will be compensated
  by explicit normalization and distribution of residual charges.
  Use the "compensate_multipole_errors" flag to change this behaviour.
  Set 'collect_eigenvectors' to be '.true.' for use_density_matrix .false.
 
  Consistency checks for the contents of geometry.in are next.
 
  Number of empty states per atom not set in control.in - providing a guess from actual geometry.
  | Total number of empty states used during s.c.f. cycle:       36
  If you use a very high smearing, use empty_states (per atom!) in control.in to increase this value.

  Structure-dependent array size parameters: 
  | Maximum number of distinct radial functions  :       14
  | Maximum number of basis functions            :      180
  | Number of Kohn-Sham states (occupied + empty):       96
------------------------------------------------------------

------------------------------------------------------------
          Preparing all fixed parts of the calculation.
------------------------------------------------------------
  Determining machine precision:
    2.225073858507201E-308
  Setting up grids for atomic and cluster calculations.

  Creating wave function, potential, and density for free atoms.

  Species: Al

  List of occupied orbitals and eigenvalues:
    n    l              occ      energy [Ha]    energy [eV]
    1    0           2.0000       -55.621123     -1513.5278
    2    0           2.0000        -3.957030      -107.6763
    3    0           2.0000        -0.272233        -7.4078
    2    1           6.0000        -2.540949       -69.1427
    3    1           1.0000        -0.083300        -2.2667


  Species: F

  List of occupied orbitals and eigenvalues:
    n    l              occ      energy [Ha]    energy [eV]
    1    0           2.0000       -24.399611      -663.9472
    2    0           2.0000        -1.098702       -29.8972
    2    1           5.0000        -0.408210       -11.1080


  Adding cutoff potential to free-atom effective potential.
  Creating fixed part of basis set: Ionic, confined, hydrogenic.
 
  Al                   ion:

  List of free ionic orbitals and eigenvalues:
    n    l      energy [Ha]    energy [eV]
    1    0       -56.418846     -1535.2349
    2    0        -4.732717      -128.7838
    3    0        -0.872690       -23.7471
    2    1        -3.317230       -90.2664


  List of ionic basis orbitals and eigenvalues:
    n    l      energy [Ha]    energy [eV]    outer radius [A]
    3    2        -0.346815        -9.4373       4.594041
    3    1        -0.631870       -17.1940       4.538221
    3    0        -0.872657       -23.7462       4.538221

 
  F                    hydrogenic:
 
  List of hydrogenic basis orbitals: 
    n    l      effective z      eigenvalue [eV]  inner max. [A]     outer max. [A]     outer radius [A]   
    2    1         1.700000        -9.7616           1.243167           1.243167           4.598524
    3    2         7.400000       -82.7828           0.642437           0.642437           3.305741
    3    0         6.800000       -69.9026           0.057798           1.022307           3.781556
 
  Creating atomic-like basis functions for current effective potential.

  Species Al                  :

  List of atomic basis orbitals and eigenvalues:
    n    l      energy [Ha]    energy [eV]    outer radius [A]
    1    0       -55.621123     -1513.5278       0.850197
    2    0        -3.957030      -107.6763       3.144911
    3    0        -0.272233        -7.4078       4.594041
    2    1        -2.540949       -69.1427       3.731966
    3    1        -0.083300        -2.2667       4.594041


  Species F                   :

  List of atomic basis orbitals and eigenvalues:
    n    l      energy [Ha]    energy [eV]    outer radius [A]
    1    0       -24.399611      -663.9472       1.258458
    2    0        -1.098702       -29.8972       4.325857
    2    1        -0.408210       -11.1080       4.487453

  Assembling full basis from fixed parts.
  | Species Al :   atomic orbital   1 s accepted.
  | Species Al :   atomic orbital   2 s accepted.
  | Species Al :    ionic orbital   3 s accepted.
  | Species Al :   atomic orbital   3 s accepted.
  | Species Al :   atomic orbital   2 p accepted.
  | Species Al :    ionic orbital   3 p accepted.
  | Species Al :   atomic orbital   3 p accepted.
  | Species Al :    ionic orbital   3 d accepted.
  | Species F :   atomic orbital   1 s accepted.
  | Species F :    hydro orbital   3 s accepted.
  | Species F :   atomic orbital   2 s accepted.
  | Species F :   atomic orbital   2 p accepted.
  | Species F :    hydro orbital   2 p accepted.
  | Species F :    hydro orbital   3 d accepted.
 
  Basis size parameters after reduction:
  | Total number of radial functions:       14
  | Total number of basis functions :      180
 
  Per-task memory consumption for arrays in subroutine allocate_ext:
  |           4.807768MB.
  Testing on-site integration grid accuracy.
  |  Species  Function  <phi|h_atom|phi> (log., in eV)  <phi|h_atom|phi> (rad., in eV)
           1        1              -1513.5277717935              -1513.5271881332
           1        2               -107.6762691836               -107.6762662489
           1        3                 -6.9467474784                 -6.9471269649
           1        4                  5.5771951849                  5.4862107220 ***
           1        5                -69.1427313144                -69.1427312731
           1        6                 -1.5197375330                 -1.5230432022
           1        7                  6.8210948310                  6.5529872240 ***
           1        8                  4.3216540965                  4.2851170187 ***
           2        9               -663.9471986398               -663.9470363334
           2       10                 16.8514011578                 16.8512525338
           2       11                -28.4490593856                -28.4490661472
           2       12                -11.1080115307                -11.1080620173
           2       13                  7.1940182175                  7.1685154137
           2       14                 44.8544281765                 44.8543763625
 * Note: Onsite integrals marked "***" above are less accurate than
 * onsite_accuracy_threshold =    0.03000 eV. Usually, this is harmless.
 * When in doubt, tighten the "radial" and/or "radial_multiplier" flags to check.

  Preparing densities etc. for the partition functions (integrals / Hartree potential).

  Preparations completed.
  max(cpu_time)          :      0.184 s.
  Wall clock time (cpu1) :      0.184 s.
------------------------------------------------------------

------------------------------------------------------------
          Begin self-consistency loop: Initialization.

          Date     :  20220517, Time     :  121427.079
------------------------------------------------------------

  Initializing index lists of integration centers etc. from given atomic structure:
  | Number of centers in hartree potential         :        12
  | Number of centers in hartree multipole         :        12
  | Number of centers in electron density summation:        12
  | Number of centers in basis integrals           :        12
  | Number of centers in integrals                 :        12
  | Number of centers in hamiltonian               :        12
  * Using 24 tasks for Scalapack Eigenvalue solver.
  Detailed listing of tasks and assigned k-points:
  (for non-periodic systems, the "k-point" denotes an internal label only)
   Task     0 k-point     1 on node-k98a-025
   Task     1 k-point     1 on node-k98a-025
   Task     2 k-point     1 on node-k98a-025
   Task     3 k-point     1 on node-k98a-025
   Task     4 k-point     1 on node-k98a-025
   Task     5 k-point     1 on node-k98a-025
   Task     6 k-point     1 on node-k98a-025
   Task     7 k-point     1 on node-k98a-025
   Task     8 k-point     1 on node-k98a-025
   Task     9 k-point     1 on node-k98a-025
   Task    10 k-point     1 on node-k98a-025
   Task    11 k-point     1 on node-k98a-025
   Task    12 k-point     1 on node-k98a-025
   Task    13 k-point     1 on node-k98a-025
   Task    14 k-point     1 on node-k98a-025
   Task    15 k-point     1 on node-k98a-025
   Task    16 k-point     1 on node-k98a-025
   Task    17 k-point     1 on node-k98a-025
   Task    18 k-point     1 on node-k98a-025
   Task    19 k-point     1 on node-k98a-025
   Task    20 k-point     1 on node-k98a-025
   Task    21 k-point     1 on node-k98a-025
   Task    22 k-point     1 on node-k98a-025
   Task    23 k-point     1 on node-k98a-025
  Tasks:    24 split into      6 X      4 BLACS grid
  Calculating block size based on n_basis =          180  max_nprow =            6  max_npcol =            4
  ScaLAPACK block size set to:           16
  Allocating        0.012 MB for ovlp
  Allocating        0.012 MB for ham
  Allocating        0.012 MB for eigenvec
  Required Scalapack workspace - INTEGER:            1  REAL:             1
  Partitioning the integration grid into batches with parallel hashing+maxmin method.
  | Number of batches:     1038
  | Maximal batch size:     180
  | Minimal batch size:      16
  | Average batch size:      88.555
  | Standard deviation of batch sizes:      22.685

  Integration load balanced across    24 MPI tasks.
  Work distribution over tasks is as follows:
  Task     0 has       3804 integration points.
  Task     1 has       3832 integration points.
  Task     2 has       3868 integration points.
  Task     3 has       3783 integration points.
  Task     4 has       3786 integration points.
  Task     5 has       3864 integration points.
  Task     6 has       3868 integration points.
  Task     7 has       3851 integration points.
  Task     8 has       3792 integration points.
  Task     9 has       3785 integration points.
  Task    10 has       3852 integration points.
  Task    11 has       3830 integration points.
  Task    12 has       3823 integration points.
  Task    13 has       3798 integration points.
  Task    14 has       3845 integration points.
  Task    15 has       3845 integration points.
  Task    16 has       3798 integration points.
  Task    17 has       3873 integration points.
  Task    18 has       3782 integration points.
  Task    19 has       3779 integration points.
  Task    20 has       3857 integration points.
  Task    21 has       3792 integration points.
  Task    22 has       3905 integration points.
  Task    23 has       3908 integration points.
  Initializing partition tables, free-atom densities, potentials, etc. across the integration grid (initialize_grid_storage).
  | initialize_grid_storage: Actual outermost partition radius vs. multipole_radius_free
  | (-- VB: in principle, multipole_radius_free should be larger, hence this output)
  | Species        1: Confinement radius =              4.999999999999999 AA, multipole_radius_free =              5.004487022111096 AA.
  | Species        1: outer_partition_radius set to              5.004487022111096 AA .
  | Species        2: Confinement radius =              4.999999999999999 AA, multipole_radius_free =              5.009370088163274 AA.
  | Species        2: outer_partition_radius set to              5.009370088163274 AA .
  | The sparse table of interatomic distances needs          1.64 kbyte instead of         1.15 kbyte of memory.
  | Using the partition_type stratmann_smoother will reduce your memory usage.
  | Net number of integration points:    91920
  | of which are non-zero points    :    85142
  Renormalizing the initial density to the exact electron count on the 3D integration grid.
  | Initial density: Formal number of electrons (from input files) :     120.0000000000
  | Integrated number of electrons on 3D grid     :     119.9998982149
  | Charge integration error                      :      -0.0001017851
  | Normalization factor for density and gradient :       1.0000008482
  Renormalizing the free-atom superposition density to the exact electron count on the 3D integration grid.
  | Formal number of electrons (from input files) :     120.0000000000
  | Integrated number of electrons on 3D grid     :     119.9998982149
  | Charge integration error                      :      -0.0001017851
  | Normalization factor for density and gradient :       1.0000008482
  Obtaining max. number of non-zero basis functions in each batch (get_n_compute_maxes).
  | Maximal number of non-zero basis functions:      166 in task     0
  | Maximal number of non-zero basis functions:      164 in task     1
  | Maximal number of non-zero basis functions:      166 in task     2
  | Maximal number of non-zero basis functions:      170 in task     3
  | Maximal number of non-zero basis functions:      171 in task     4
  | Maximal number of non-zero basis functions:      164 in task     5
  | Maximal number of non-zero basis functions:      169 in task     6
  | Maximal number of non-zero basis functions:      171 in task     7
  | Maximal number of non-zero basis functions:      171 in task     8
  | Maximal number of non-zero basis functions:      166 in task     9
  | Maximal number of non-zero basis functions:      164 in task    10
  | Maximal number of non-zero basis functions:      164 in task    11
  | Maximal number of non-zero basis functions:      171 in task    12
  | Maximal number of non-zero basis functions:      165 in task    13
  | Maximal number of non-zero basis functions:      166 in task    14
  | Maximal number of non-zero basis functions:      167 in task    15
  | Maximal number of non-zero basis functions:      165 in task    16
  | Maximal number of non-zero basis functions:      160 in task    17
  | Maximal number of non-zero basis functions:      165 in task    18
  | Maximal number of non-zero basis functions:      166 in task    19
  | Maximal number of non-zero basis functions:      171 in task    20
  | Maximal number of non-zero basis functions:      172 in task    21
  | Maximal number of non-zero basis functions:      165 in task    22
  | Maximal number of non-zero basis functions:      163 in task    23
  Selecting the method for density update.
  Loop over occupied states selected for charge density update.
  Allocating        0.132 MB for KS_eigenvector
  Integrating Hamiltonian matrix: batch-based integration.
  Time summed over all CPUs for integration: real work        0.761 s, elapsed        0.798 s
  Integrating overlap matrix.
  Time summed over all CPUs for integration: real work        0.288 s, elapsed        0.306 s
  Deallocating overlap matrix.

  Updating Kohn-Sham eigenvalues and eigenvectors using ELSI and the ELPA eigensolver.
  Overlap matrix is not singular
  | Lowest and highest eigenvalues :  0.3146E-02,  0.5727E+01
  Finished singularity check of overlap matrix
  | Time :     0.004 s
  Starting ELPA eigensolver
  Finished Cholesky decomposition
  | Time :     0.003 s
  Finished transformation to standard eigenproblem
  | Time :     0.000 s
  Finished solving standard eigenproblem
  | Time :     0.004 s
  Finished back-transformation of eigenvectors
  | Time :     0.000 s

  Obtaining occupation numbers and chemical potential using ELSI.
  | Chemical potential (Fermi level):    -7.33295345 eV
  Writing Kohn-Sham eigenvalues.

  State    Occupation    Eigenvalue [Ha]    Eigenvalue [eV]
      1       2.00000         -55.485803        -1509.84553
      2       2.00000         -55.484638        -1509.81383
      3       2.00000         -55.483914        -1509.79411
      4       2.00000         -24.363668         -662.96913
      5       2.00000         -24.357025         -662.78838
      6       2.00000         -24.355220         -662.73927
      7       2.00000         -24.353095         -662.68143
      8       2.00000         -24.350595         -662.61341
      9       2.00000         -24.341586         -662.36826
     10       2.00000         -24.341477         -662.36528
     11       2.00000         -24.341308         -662.36069
     12       2.00000         -24.336756         -662.23683
     13       2.00000          -3.951344         -107.52155
     14       2.00000          -3.949906         -107.48241
     15       2.00000          -3.949024         -107.45840
     16       2.00000          -2.544410          -69.23691
     17       2.00000          -2.543309          -69.20696
     18       2.00000          -2.542770          -69.19229
     19       2.00000          -2.542361          -69.18117
     20       2.00000          -2.541613          -69.16081
     21       2.00000          -2.541470          -69.15692
     22       2.00000          -2.541137          -69.14785
     23       2.00000          -2.540567          -69.13234
     24       2.00000          -2.539864          -69.11322
     25       2.00000          -1.189977          -32.38093
     26       2.00000          -1.180384          -32.11989
     27       2.00000          -1.174599          -31.96246
     28       2.00000          -1.169607          -31.82664
     29       2.00000          -1.160699          -31.58423
     30       2.00000          -1.150456          -31.30550
     31       2.00000          -1.150060          -31.29474
     32       2.00000          -1.149924          -31.29103
     33       2.00000          -1.142811          -31.09748
     34       2.00000          -0.559306          -15.21949
     35       2.00000          -0.556655          -15.14735
     36       2.00000          -0.542953          -14.77450
     37       2.00000          -0.521586          -14.19308
     38       2.00000          -0.519250          -14.12950
     39       2.00000          -0.509731          -13.87047
     40       2.00000          -0.506750          -13.78936
     41       2.00000          -0.501671          -13.65116
     42       2.00000          -0.497292          -13.53201
     43       2.00000          -0.495066          -13.47144
     44       2.00000          -0.489777          -13.32752
     45       2.00000          -0.486884          -13.24880
     46       2.00000          -0.478499          -13.02063
     47       2.00000          -0.472223          -12.84985
     48       2.00000          -0.471794          -12.83817
     49       2.00000          -0.466741          -12.70067
     50       2.00000          -0.464042          -12.62724
     51       2.00000          -0.460791          -12.53875
     52       2.00000          -0.454092          -12.35647
     53       2.00000          -0.453200          -12.33219
     54       2.00000          -0.452716          -12.31903
     55       2.00000          -0.451975          -12.29887
     56       2.00000          -0.451275          -12.27983
     57       2.00000          -0.450664          -12.26318
     58       2.00000          -0.442988          -12.05431
     59       2.00000          -0.442600          -12.04377
     60       2.00000          -0.439698          -11.96479
     61       0.00000          -0.143810           -3.91326
     62       0.00000          -0.088751           -2.41505
     63       0.00000          -0.071087           -1.93437
     64       0.00000          -0.033199           -0.90340
     65       0.00000          -0.021595           -0.58762
     66       0.00000           0.000239            0.00651
     67       0.00000           0.019286            0.52480
     68       0.00000           0.030664            0.83441
     69       0.00000           0.049804            1.35524
     70       0.00000           0.074048            2.01495
     71       0.00000           0.077492            2.10865
     72       0.00000           0.115670            3.14755
     73       0.00000           0.148713            4.04670
     74       0.00000           0.161989            4.40795
     75       0.00000           0.168375            4.58171
     76       0.00000           0.179789            4.89230
     77       0.00000           0.193548            5.26671
     78       0.00000           0.196918            5.35841
     79       0.00000           0.210015            5.71479
     80       0.00000           0.215551            5.86544
     81       0.00000           0.224892            6.11963
     82       0.00000           0.228103            6.20700
     83       0.00000           0.237397            6.45990
     84       0.00000           0.240368            6.54075
     85       0.00000           0.259021            7.04832
     86       0.00000           0.265737            7.23107
     87       0.00000           0.269061            7.32153
     88       0.00000           0.276101            7.51309
     89       0.00000           0.278344            7.57413
     90       0.00000           0.293550            7.98791
     91       0.00000           0.296736            8.07459
     92       0.00000           0.337422            9.18173
     93       0.00000           0.340395            9.26262
     94       0.00000           0.360802            9.81791
     95       0.00000           0.371219           10.10137
     96       0.00000           0.385258           10.48340

  Highest occupied state (VBM) at    -11.96478654 eV
  | Occupation number:      2.00000000

  Lowest unoccupied state (CBM) at    -3.91326058 eV
  | Occupation number:      0.00000000

  Overall HOMO-LUMO gap:      8.05152596 eV.
  Calculating total energy contributions from superposition of free atom densities.

  Total energy components:
  | Sum of eigenvalues            :        -887.66320008 Ha      -24154.54464395 eV
  | XC energy correction          :        -144.39101293 Ha       -3929.07937112 eV
  | XC potential correction       :         188.00856175 Ha        5115.97326321 eV
  | Free-atom electrostatic energy:        -781.30844268 Ha      -21260.48444699 eV
  | Hartree energy correction     :           0.00000000 Ha           0.00000000 eV
  | Entropy correction            :           0.00000000 Ha           0.00000000 eV
  | ---------------------------
  | Total energy                  :       -1625.35409394 Ha      -44228.13519886 eV
  | Total energy, T -> 0          :       -1625.35409394 Ha      -44228.13519886 eV  <-- do not rely on this value for anything but (periodic) metals
  | Electronic free energy        :       -1625.35409394 Ha      -44228.13519886 eV

  Derived energy quantities:
  | Kinetic energy                :        1627.72731671 Ha       44292.71387617 eV
  | Electrostatic energy          :       -3108.69039772 Ha      -84591.76970391 eV
  | Energy correction for multipole
  | error in Hartree potential    :           0.00000000 Ha           0.00000000 eV
  | Sum of eigenvalues per atom                           :       -2012.87872033 eV
  | Total energy (T->0) per atom                          :       -3685.67793324 eV  <-- do not rely on this value for anything but (periodic) metals
  | Electronic free energy per atom                       :       -3685.67793324 eV
  Initialize hartree_potential_storage
  Max. number of atoms included in rho_multipole:           12

  End scf initialization - timings             :  max(cpu_time)    wall_clock(cpu1)
  | Time for scf. initialization                :        0.124 s           0.124 s
  | Boundary condition initialization           :        0.000 s           0.000 s
  | Integration                                 :        0.048 s           0.047 s
  | Solution of K.-S. eqns.                     :        0.012 s           0.013 s
  | Grid partitioning                           :        0.040 s           0.040 s
  | Preloading free-atom quantities on grid     :        0.016 s           0.017 s
  | Free-atom superposition energy              :        0.005 s           0.005 s
  | Total energy evaluation                     :        0.000 s           0.000 s

  Partial memory accounting:
  | Current value for overall tracked memory usage:
  |   Minimum:        0.273 MB (on task 23)
  |   Maximum:        0.292 MB (on task  0)
  |   Average:        0.287 MB
  | Peak value for overall tracked memory usage:
  |   Minimum:        1.274 MB (on task 17 after allocating wave)
  |   Maximum:        1.348 MB (on task  4 after allocating wave)
  |   Average:        1.315 MB
  | Largest tracked array allocation so far:
  |   Minimum:        0.220 MB (H_times_psi on task 17)
  |   Maximum:        0.566 MB (all_coords on task 14)
  |   Average:        0.258 MB
  Note:  These values currently only include a subset of arrays which are explicitly tracked.
  The "true" memory usage will be greater.
------------------------------------------------------------
  Evaluating new KS density.
  Integration grid: deviation in total charge (<rho> - N_e) =  -1.421085E-14

  Time for density update prior                :  max(cpu_time)    wall_clock(cpu1)
  | self-consistency iterative process          :        0.030 s           0.029 s

------------------------------------------------------------
          Begin self-consistency iteration #    1

  Date     :  20220517, Time     :  121427.234
------------------------------------------------------------
  Pulay mixing of updated and previous charge densities.
  Renormalizing the density to the exact electron count on the 3D integration grid.
  | Formal number of electrons (from input files) :     120.0000000000
  | Integrated number of electrons on 3D grid     :     120.0000000000
  | Charge integration error                      :      -0.0000000000
  | Normalization factor for density and gradient :       1.0000000000

  Evaluating partitioned Hartree potential by multipole expansion.
  | Original multipole sum: apparent total charge =  -0.449155E-13
  | Sum of charges compensated after spline to logarithmic grids =   0.842733E-04
  | Analytical far-field extrapolation by fixed multipoles:
  | Hartree multipole sum: apparent total charge =  -0.442698E-13
  Summing up the Hartree potential.
  Time summed over all CPUs for potential: real work        0.381 s, elapsed        0.393 s
  | RMS charge density error from multipole expansion :   0.109229E-01

  Integrating Hamiltonian matrix: batch-based integration.
  Time summed over all CPUs for integration: real work        0.707 s, elapsed        0.745 s

  Updating Kohn-Sham eigenvalues and eigenvectors using ELSI and the ELPA eigensolver.
  Starting ELPA eigensolver
  Finished transformation to standard eigenproblem
  | Time :     0.000 s
  Finished solving standard eigenproblem
  | Time :     0.004 s
  Finished back-transformation of eigenvectors
  | Time :     0.000 s

  Obtaining occupation numbers and chemical potential using ELSI.
  | Chemical potential (Fermi level):    -7.33395345 eV
  Writing Kohn-Sham eigenvalues.

  State    Occupation    Eigenvalue [Ha]    Eigenvalue [eV]
      1       2.00000         -55.677552        -1515.06327
      2       2.00000         -55.661372        -1514.62300
      3       2.00000         -55.621473        -1513.53728
      4       2.00000         -24.246895         -659.79158
      5       2.00000         -24.233737         -659.43354
      6       2.00000         -24.210142         -658.79148
      7       2.00000         -24.199597         -658.50453
      8       2.00000         -24.191142         -658.27446
      9       2.00000         -24.091501         -655.56309
     10       2.00000         -24.075412         -655.12530
     11       2.00000         -24.044204         -654.27608
     12       2.00000         -24.029325         -653.87119
     13       2.00000          -4.115999         -112.00202
     14       2.00000          -4.099671         -111.55774
     15       2.00000          -4.060052         -110.47964
     16       2.00000          -2.708858          -73.71178
     17       2.00000          -2.708691          -73.70723
     18       2.00000          -2.708512          -73.70236
     19       2.00000          -2.693392          -73.29093
     20       2.00000          -2.692160          -73.25739
     21       2.00000          -2.691479          -73.23888
     22       2.00000          -2.653854          -72.21505
     23       2.00000          -2.653284          -72.19953
     24       2.00000          -2.650899          -72.13463
     25       2.00000          -1.167416          -31.76700
     26       2.00000          -1.155318          -31.43781
     27       2.00000          -1.130780          -30.77009
     28       2.00000          -1.126393          -30.65070
     29       2.00000          -1.108212          -30.15599
     30       2.00000          -1.036567          -28.20643
     31       2.00000          -1.021430          -27.79452
     32       2.00000          -0.994276          -27.05564
     33       2.00000          -0.979457          -26.65238
     34       2.00000          -0.557712          -15.17610
     35       2.00000          -0.546457          -14.86986
     36       2.00000          -0.523247          -14.23826
     37       2.00000          -0.497257          -13.53104
     38       2.00000          -0.489424          -13.31792
     39       2.00000          -0.477816          -13.00203
     40       2.00000          -0.474463          -12.91079
     41       2.00000          -0.471195          -12.82186
     42       2.00000          -0.455496          -12.39467
     43       2.00000          -0.449808          -12.23990
     44       2.00000          -0.433867          -11.80611
     45       2.00000          -0.421335          -11.46512
     46       2.00000          -0.416371          -11.33003
     47       2.00000          -0.411806          -11.20582
     48       2.00000          -0.400394          -10.89529
     49       2.00000          -0.391227          -10.64584
     50       2.00000          -0.382602          -10.41114
     51       2.00000          -0.366584           -9.97525
     52       2.00000          -0.346463           -9.42773
     53       2.00000          -0.345494           -9.40137
     54       2.00000          -0.331932           -9.03232
     55       2.00000          -0.330862           -9.00321
     56       2.00000          -0.328493           -8.93876
     57       2.00000          -0.307859           -8.37726
     58       2.00000          -0.302757           -8.23845
     59       2.00000          -0.288345           -7.84626
     60       2.00000          -0.282522           -7.68782
     61       0.00000          -0.163445           -4.44756
     62       0.00000          -0.102228           -2.78176
     63       0.00000          -0.067587           -1.83915
     64       0.00000          -0.061979           -1.68652
     65       0.00000          -0.053736           -1.46224
     66       0.00000          -0.019304           -0.52529
     67       0.00000           0.016572            0.45096
     68       0.00000           0.024300            0.66122
     69       0.00000           0.035674            0.97074
     70       0.00000           0.059568            1.62093
     71       0.00000           0.088033            2.39549
     72       0.00000           0.097709            2.65878
     73       0.00000           0.143206            3.89682
     74       0.00000           0.155674            4.23610
     75       0.00000           0.159051            4.32799
     76       0.00000           0.163164            4.43993
     77       0.00000           0.180787            4.91945
     78       0.00000           0.191490            5.21071
     79       0.00000           0.198371            5.39796
     80       0.00000           0.214969            5.84960
     81       0.00000           0.216270            5.88500
     82       0.00000           0.224086            6.09768
     83       0.00000           0.230300            6.26678
     84       0.00000           0.234418            6.37884
     85       0.00000           0.247140            6.72502
     86       0.00000           0.248694            6.76732
     87       0.00000           0.256644            6.98363
     88       0.00000           0.267275            7.27294
     89       0.00000           0.277352            7.54714
     90       0.00000           0.284410            7.73918
     91       0.00000           0.290070            7.89320
     92       0.00000           0.338654            9.21525
     93       0.00000           0.350522            9.53819
     94       0.00000           0.366567            9.97481
     95       0.00000           0.379430           10.32483
     96       0.00000           0.387494           10.54426

  Highest occupied state (VBM) at     -7.68781534 eV
  | Occupation number:      2.00000000

  Lowest unoccupied state (CBM) at    -4.44755767 eV
  | Occupation number:      0.00000000

  Overall HOMO-LUMO gap:      3.24025767 eV.

  Total energy components:
  | Sum of eigenvalues            :        -882.94167655 Ha      -24026.06545181 eV
  | XC energy correction          :        -145.67615219 Ha       -3964.04978962 eV
  | XC potential correction       :         189.69770671 Ha        5161.93723592 eV
  | Free-atom electrostatic energy:        -781.30844268 Ha      -21260.48444699 eV
  | Hartree energy correction     :          -4.91033257 Ha        -133.61694760 eV
  | Entropy correction            :           0.00000000 Ha           0.00000000 eV
  | ---------------------------
  | Total energy                  :       -1625.13889729 Ha      -44222.27940011 eV
  | Total energy, T -> 0          :       -1625.13889729 Ha      -44222.27940011 eV  <-- do not rely on this value for anything but (periodic) metals
  | Electronic free energy        :       -1625.13889729 Ha      -44222.27940011 eV

  Derived energy quantities:
  | Kinetic energy                :        1633.83884113 Ha       44459.01691715 eV
  | Electrostatic energy          :       -3113.30158624 Ha      -84717.24652764 eV
  | Energy correction for multipole
  | error in Hartree potential    :           0.03327298 Ha           0.90540383 eV
  | Sum of eigenvalues per atom                           :       -2002.17212098 eV
  | Total energy (T->0) per atom                          :       -3685.18995001 eV  <-- do not rely on this value for anything but (periodic) metals
  | Electronic free energy per atom                       :       -3685.18995001 eV
  Evaluating new KS density.
  Integration grid: deviation in total charge (<rho> - N_e) =   1.421085E-14

  Self-consistency convergence accuracy:
  | Change of charge density      :  0.5899E+00
  | Change of sum of eigenvalues  :  0.1285E+03 eV
  | Change of total energy        :  0.5856E+01 eV


------------------------------------------------------------
  End self-consistency iteration #     1       :  max(cpu_time)    wall_clock(cpu1)
  | Time for this iteration                     :        0.084 s           0.084 s
  | Charge density update                       :        0.028 s           0.028 s
  | Density mixing                              :        0.001 s           0.000 s
  | Hartree multipole update                    :        0.001 s           0.002 s
  | Hartree multipole summation                 :        0.017 s           0.016 s
  | Integration                                 :        0.032 s           0.032 s
  | Solution of K.-S. eqns.                     :        0.004 s           0.004 s
  | Total energy evaluation                     :        0.000 s           0.000 s

  Partial memory accounting:
  | Current value for overall tracked memory usage:
  |   Minimum:        0.273 MB (on task 23)
  |   Maximum:        0.292 MB (on task  0)
  |   Average:        0.287 MB
  | Peak value for overall tracked memory usage:
  |   Minimum:        1.274 MB (on task 17 after allocating wave)
  |   Maximum:        1.348 MB (on task  4 after allocating wave)
  |   Average:        1.315 MB
  | Largest tracked array allocation so far:
  |   Minimum:        0.659 MB (gradient_basis_wave on task 17)
  |   Maximum:        0.709 MB (gradient_basis_wave on task 21)
  |   Average:        0.687 MB
  Note:  These values currently only include a subset of arrays which are explicitly tracked.
  The "true" memory usage will be greater.
------------------------------------------------------------

------------------------------------------------------------
          Begin self-consistency iteration #    2

  Date     :  20220517, Time     :  121427.323
------------------------------------------------------------
  Pulay mixing of updated and previous charge densities.
  Renormalizing the density to the exact electron count on the 3D integration grid.
  | Formal number of electrons (from input files) :     120.0000000000
  | Integrated number of electrons on 3D grid     :     120.0000000000
  | Charge integration error                      :       0.0000000000
  | Normalization factor for density and gradient :       1.0000000000

  Evaluating partitioned Hartree potential by multipole expansion.
  | Original multipole sum: apparent total charge =   0.492354E-13
  | Sum of charges compensated after spline to logarithmic grids =   0.445542E-04
  | Analytical far-field extrapolation by fixed multipoles:
  | Hartree multipole sum: apparent total charge =   0.493492E-13
  Summing up the Hartree potential.
  Time summed over all CPUs for potential: real work        0.380 s, elapsed        0.392 s
  | RMS charge density error from multipole expansion :   0.127118E-01

  Integrating Hamiltonian matrix: batch-based integration.
  Time summed over all CPUs for integration: real work        0.706 s, elapsed        0.745 s

  Updating Kohn-Sham eigenvalues and eigenvectors using ELSI and the ELPA eigensolver.
  Starting ELPA eigensolver
  Finished transformation to standard eigenproblem
  | Time :     0.001 s
  Finished solving standard eigenproblem
  | Time :     0.003 s
  Finished back-transformation of eigenvectors
  | Time :     0.000 s

  Obtaining occupation numbers and chemical potential using ELSI.
  | Chemical potential (Fermi level):    -7.56756384 eV
  Highest occupied state (VBM) at     -8.72008195 eV
  | Occupation number:      2.00000000

  Lowest unoccupied state (CBM) at    -4.67688798 eV
  | Occupation number:      0.00000000

  Overall HOMO-LUMO gap:      4.04319397 eV.

  Checking to see if s.c.f. parameters should be adjusted.

  Total energy components:
  | Sum of eigenvalues            :        -885.82705269 Ha      -24104.58053131 eV
  | XC energy correction          :        -145.20431317 Ha       -3951.21039659 eV
  | XC potential correction       :         189.07697220 Ha        5145.04619051 eV
  | Free-atom electrostatic energy:        -781.30844268 Ha      -21260.48444699 eV
  | Hartree energy correction     :          -1.81695335 Ha         -49.44181634 eV
  | Entropy correction            :           0.00000000 Ha           0.00000000 eV
  | ---------------------------
  | Total energy                  :       -1625.07978970 Ha      -44220.67100073 eV
  | Total energy, T -> 0          :       -1625.07978970 Ha      -44220.67100073 eV  <-- do not rely on this value for anything but (periodic) metals
  | Electronic free energy        :       -1625.07978970 Ha      -44220.67100073 eV

  Derived energy quantities:
  | Kinetic energy                :        1630.06625203 Ha       44356.35954454 eV
  | Electrostatic energy          :       -3109.94172857 Ha      -84625.82014868 eV
  | Energy correction for multipole
  | error in Hartree potential    :           0.03720650 Ha           1.01244025 eV
  | Sum of eigenvalues per atom                           :       -2008.71504428 eV
  | Total energy (T->0) per atom                          :       -3685.05591673 eV  <-- do not rely on this value for anything but (periodic) metals
  | Electronic free energy per atom                       :       -3685.05591673 eV
  Evaluating new KS density.
  Integration grid: deviation in total charge (<rho> - N_e) =   2.842171E-14

  Self-consistency convergence accuracy:
  | Change of charge density      :  0.4563E+00
  | Change of sum of eigenvalues  : -0.7852E+02 eV
  | Change of total energy        :  0.1608E+01 eV


------------------------------------------------------------
  End self-consistency iteration #     2       :  max(cpu_time)    wall_clock(cpu1)
  | Time for this iteration                     :        0.087 s           0.084 s
  | Charge density update                       :        0.028 s           0.028 s
  | Density mixing                              :        0.004 s           0.002 s
  | Hartree multipole update                    :        0.001 s           0.001 s
  | Hartree multipole summation                 :        0.017 s           0.017 s
  | Integration                                 :        0.031 s           0.031 s
  | Solution of K.-S. eqns.                     :        0.004 s           0.004 s
  | Total energy evaluation                     :        0.000 s           0.001 s

  Partial memory accounting:
  | Current value for overall tracked memory usage:
  |   Minimum:        0.274 MB (on task 23)
  |   Maximum:        0.293 MB (on task  0)
  |   Average:        0.288 MB
  | Peak value for overall tracked memory usage:
  |   Minimum:        1.274 MB (on task 17 after allocating wave)
  |   Maximum:        1.348 MB (on task  4 after allocating wave)
  |   Average:        1.315 MB
  | Largest tracked array allocation so far:
  |   Minimum:        0.659 MB (gradient_basis_wave on task 17)
  |   Maximum:        0.709 MB (gradient_basis_wave on task 21)
  |   Average:        0.687 MB
  Note:  These values currently only include a subset of arrays which are explicitly tracked.
  The "true" memory usage will be greater.
------------------------------------------------------------

------------------------------------------------------------
          Begin self-consistency iteration #    3

  Date     :  20220517, Time     :  121427.413
------------------------------------------------------------
  Pulay mixing of updated and previous charge densities.
  Renormalizing the density to the exact electron count on the 3D integration grid.
  | Formal number of electrons (from input files) :     120.0000000000
  | Integrated number of electrons on 3D grid     :     120.0000000000
  | Charge integration error                      :       0.0000000000
  | Normalization factor for density and gradient :       1.0000000000

  Evaluating partitioned Hartree potential by multipole expansion.
  | Original multipole sum: apparent total charge =   0.306411E-13
  | Sum of charges compensated after spline to logarithmic grids =   0.540403E-04
  | Analytical far-field extrapolation by fixed multipoles:
  | Hartree multipole sum: apparent total charge =   0.332362E-13
  Summing up the Hartree potential.
  Time summed over all CPUs for potential: real work        0.380 s, elapsed        0.392 s
  | RMS charge density error from multipole expansion :   0.173190E-01

  Integrating Hamiltonian matrix: batch-based integration.
  Time summed over all CPUs for integration: real work        0.706 s, elapsed        0.744 s

  Updating Kohn-Sham eigenvalues and eigenvectors using ELSI and the ELPA eigensolver.
  Starting ELPA eigensolver
  Finished transformation to standard eigenproblem
  | Time :     0.000 s
  Finished solving standard eigenproblem
  | Time :     0.004 s
  Finished back-transformation of eigenvectors
  | Time :     0.000 s

  Obtaining occupation numbers and chemical potential using ELSI.
  | Chemical potential (Fermi level):    -7.56545205 eV
  Highest occupied state (VBM) at     -8.34578610 eV
  | Occupation number:      2.00000000

  Lowest unoccupied state (CBM) at    -4.91347014 eV
  | Occupation number:      0.00000000

  Overall HOMO-LUMO gap:      3.43231596 eV.

  Total energy components:
  | Sum of eigenvalues            :        -886.78001416 Ha      -24130.51193218 eV
  | XC energy correction          :        -145.16826636 Ha       -3950.22951299 eV
  | XC potential correction       :         189.02839113 Ha        5143.72423244 eV
  | Free-atom electrostatic energy:        -781.30844268 Ha      -21260.48444699 eV
  | Hartree energy correction     :          -0.85043522 Ha         -23.14151986 eV
  | Entropy correction            :           0.00000000 Ha           0.00000000 eV
  | ---------------------------
  | Total energy                  :       -1625.07876729 Ha      -44220.64317958 eV
  | Total energy, T -> 0          :       -1625.07876729 Ha      -44220.64317958 eV  <-- do not rely on this value for anything but (periodic) metals
  | Electronic free energy        :       -1625.07876729 Ha      -44220.64317958 eV

  Derived energy quantities:
  | Kinetic energy                :        1628.38523017 Ha       44310.61661223 eV
  | Electrostatic energy          :       -3108.29573111 Ha      -84581.03027882 eV
  | Energy correction for multipole
  | error in Hartree potential    :           0.05017953 Ha           1.36545453 eV
  | Sum of eigenvalues per atom                           :       -2010.87599435 eV
  | Total energy (T->0) per atom                          :       -3685.05359830 eV  <-- do not rely on this value for anything but (periodic) metals
  | Electronic free energy per atom                       :       -3685.05359830 eV
  Evaluating new KS density.
  Integration grid: deviation in total charge (<rho> - N_e) =   5.684342E-14

  Self-consistency convergence accuracy:
  | Change of charge density      :  0.1233E+00
  | Change of sum of eigenvalues  : -0.2593E+02 eV
  | Change of total energy        :  0.2782E-01 eV


------------------------------------------------------------
  End self-consistency iteration #     3       :  max(cpu_time)    wall_clock(cpu1)
  | Time for this iteration                     :        0.086 s           0.084 s
  | Charge density update                       :        0.028 s           0.029 s
  | Density mixing                              :        0.004 s           0.001 s
  | Hartree multipole update                    :        0.001 s           0.002 s
  | Hartree multipole summation                 :        0.017 s           0.016 s
  | Integration                                 :        0.031 s           0.032 s
  | Solution of K.-S. eqns.                     :        0.004 s           0.004 s
  | Total energy evaluation                     :        0.000 s           0.000 s

  Partial memory accounting:
  | Current value for overall tracked memory usage:
  |   Minimum:        0.274 MB (on task 23)
  |   Maximum:        0.293 MB (on task  0)
  |   Average:        0.288 MB
  | Peak value for overall tracked memory usage:
  |   Minimum:        1.274 MB (on task 17 after allocating wave)
  |   Maximum:        1.348 MB (on task  4 after allocating wave)
  |   Average:        1.315 MB
  | Largest tracked array allocation so far:
  |   Minimum:        0.659 MB (gradient_basis_wave on task 17)
  |   Maximum:        0.709 MB (gradient_basis_wave on task 21)
  |   Average:        0.687 MB
  Note:  These values currently only include a subset of arrays which are explicitly tracked.
  The "true" memory usage will be greater.
------------------------------------------------------------

------------------------------------------------------------
          Begin self-consistency iteration #    4

  Date     :  20220517, Time     :  121427.503
------------------------------------------------------------
  Pulay mixing of updated and previous charge densities.
  Renormalizing the density to the exact electron count on the 3D integration grid.
  | Formal number of electrons (from input files) :     120.0000000000
  | Integrated number of electrons on 3D grid     :     120.0000000000
  | Charge integration error                      :       0.0000000000
  | Normalization factor for density and gradient :       1.0000000000

  Evaluating partitioned Hartree potential by multipole expansion.
  | Original multipole sum: apparent total charge =   0.675116E-13
  | Sum of charges compensated after spline to logarithmic grids =   0.575229E-04
  | Analytical far-field extrapolation by fixed multipoles:
  | Hartree multipole sum: apparent total charge =   0.681496E-13
  Summing up the Hartree potential.
  Time summed over all CPUs for potential: real work        0.380 s, elapsed        0.392 s
  | RMS charge density error from multipole expansion :   0.193077E-01

  Integrating Hamiltonian matrix: batch-based integration.
  Time summed over all CPUs for integration: real work        0.706 s, elapsed        0.748 s

  Updating Kohn-Sham eigenvalues and eigenvectors using ELSI and the ELPA eigensolver.
  Starting ELPA eigensolver
  Finished transformation to standard eigenproblem
  | Time :     0.001 s
  Finished solving standard eigenproblem
  | Time :     0.003 s
  Finished back-transformation of eigenvectors
  | Time :     0.000 s

  Obtaining occupation numbers and chemical potential using ELSI.
  | Chemical potential (Fermi level):    -7.54955658 eV
  Highest occupied state (VBM) at     -8.33966573 eV
  | Occupation number:      2.00000000

  Lowest unoccupied state (CBM) at    -4.89199948 eV
  | Occupation number:      0.00000000

  Overall HOMO-LUMO gap:      3.44766625 eV.

  Total energy components:
  | Sum of eigenvalues            :        -886.89249865 Ha      -24133.57279103 eV
  | XC energy correction          :        -145.15265522 Ha       -3949.80471243 eV
  | XC potential correction       :         189.00724170 Ha        5143.14872726 eV
  | Free-atom electrostatic energy:        -781.30844268 Ha      -21260.48444699 eV
  | Hartree energy correction     :          -0.73028080 Ha         -19.87195169 eV
  | Entropy correction            :           0.00000000 Ha           0.00000000 eV
  | ---------------------------
  | Total energy                  :       -1625.07663566 Ha      -44220.58517488 eV
  | Total energy, T -> 0          :       -1625.07663566 Ha      -44220.58517488 eV  <-- do not rely on this value for anything but (periodic) metals
  | Electronic free energy        :       -1625.07663566 Ha      -44220.58517488 eV

  Derived energy quantities:
  | Kinetic energy                :        1627.74148030 Ha       44293.09928698 eV
  | Electrostatic energy          :       -3107.66546074 Ha      -84563.87974943 eV
  | Energy correction for multipole
  | error in Hartree potential    :           0.05531225 Ha           1.50512280 eV
  | Sum of eigenvalues per atom                           :       -2011.13106592 eV
  | Total energy (T->0) per atom                          :       -3685.04876457 eV  <-- do not rely on this value for anything but (periodic) metals
  | Electronic free energy per atom                       :       -3685.04876457 eV
  Evaluating new KS density.
  Integration grid: deviation in total charge (<rho> - N_e) =   0.000000E+00

  Self-consistency convergence accuracy:
  | Change of charge density      :  0.8159E-01
  | Change of sum of eigenvalues  : -0.3061E+01 eV
  | Change of total energy        :  0.5800E-01 eV


------------------------------------------------------------
  End self-consistency iteration #     4       :  max(cpu_time)    wall_clock(cpu1)
  | Time for this iteration                     :        0.087 s           0.084 s
  | Charge density update                       :        0.028 s           0.028 s
  | Density mixing                              :        0.004 s           0.002 s
  | Hartree multipole update                    :        0.001 s           0.001 s
  | Hartree multipole summation                 :        0.017 s           0.017 s
  | Integration                                 :        0.032 s           0.031 s
  | Solution of K.-S. eqns.                     :        0.004 s           0.004 s
  | Total energy evaluation                     :        0.000 s           0.000 s

  Partial memory accounting:
  | Current value for overall tracked memory usage:
  |   Minimum:        0.274 MB (on task 23)
  |   Maximum:        0.293 MB (on task  0)
  |   Average:        0.288 MB
  | Peak value for overall tracked memory usage:
  |   Minimum:        1.274 MB (on task 17 after allocating wave)
  |   Maximum:        1.348 MB (on task  4 after allocating wave)
  |   Average:        1.315 MB
  | Largest tracked array allocation so far:
  |   Minimum:        0.659 MB (gradient_basis_wave on task 17)
  |   Maximum:        0.709 MB (gradient_basis_wave on task 21)
  |   Average:        0.687 MB
  Note:  These values currently only include a subset of arrays which are explicitly tracked.
  The "true" memory usage will be greater.
------------------------------------------------------------

------------------------------------------------------------
          Begin self-consistency iteration #    5

  Date     :  20220517, Time     :  121427.593
------------------------------------------------------------
  Pulay mixing of updated and previous charge densities.
  Renormalizing the density to the exact electron count on the 3D integration grid.
  | Formal number of electrons (from input files) :     120.0000000000
  | Integrated number of electrons on 3D grid     :     120.0000000000
  | Charge integration error                      :      -0.0000000000
  | Normalization factor for density and gradient :       1.0000000000

  Evaluating partitioned Hartree potential by multipole expansion.
  | Original multipole sum: apparent total charge =  -0.411090E-14
  | Sum of charges compensated after spline to logarithmic grids =   0.584259E-04
  | Analytical far-field extrapolation by fixed multipoles:
  | Hartree multipole sum: apparent total charge =  -0.112535E-14
  Summing up the Hartree potential.
  Time summed over all CPUs for potential: real work        0.380 s, elapsed        0.392 s
  | RMS charge density error from multipole expansion :   0.191307E-01

  Integrating Hamiltonian matrix: batch-based integration.
  Time summed over all CPUs for integration: real work        0.707 s, elapsed        0.744 s

  Updating Kohn-Sham eigenvalues and eigenvectors using ELSI and the ELPA eigensolver.
  Starting ELPA eigensolver
  Finished transformation to standard eigenproblem
  | Time :     0.001 s
  Finished solving standard eigenproblem
  | Time :     0.003 s
  Finished back-transformation of eigenvectors
  | Time :     0.000 s

  Obtaining occupation numbers and chemical potential using ELSI.
  | Chemical potential (Fermi level):    -7.54189328 eV
  Highest occupied state (VBM) at     -8.42421242 eV
  | Occupation number:      2.00000000

  Lowest unoccupied state (CBM) at    -4.82808850 eV
  | Occupation number:      0.00000000

  Overall HOMO-LUMO gap:      3.59612392 eV.

  Total energy components:
  | Sum of eigenvalues            :        -886.70355145 Ha      -24128.43127590 eV
  | XC energy correction          :        -145.14995973 Ha       -3949.73136438 eV
  | XC potential correction       :         189.00386110 Ha        5143.05673624 eV
  | Free-atom electrostatic energy:        -781.30844268 Ha      -21260.48444699 eV
  | Hartree energy correction     :          -0.91841377 Ha         -24.99131014 eV
  | Entropy correction            :           0.00000000 Ha           0.00000000 eV
[...]
   Total forces(   7)            : -0.264838E+00  0.238612E+01  0.162614E+00
  atom #    8
   Hellmann-Feynman              :  0.688655E+00 -0.786671E+00  0.272168E+00
   Ionic forces                  :  0.000000E+00  0.000000E+00  0.000000E+00
   Multipole                     :  0.370309E+00 -0.233104E+00 -0.973081E-01
   Hartree pot. SCF incomplete   :  0.937867E-05 -0.474051E-05 -0.767533E-05
   Pulay + GGA                   : -0.317594E+01  0.254836E+01  0.343920E+00
   ----------------------------------------------------------------
   Total forces(   8)            : -0.211697E+01  0.152858E+01  0.518772E+00
  atom #    9
   Hellmann-Feynman              : -0.621894E+00  0.896363E+00 -0.312774E+01
   Ionic forces                  :  0.000000E+00  0.000000E+00  0.000000E+00
   Multipole                     : -0.143537E+00  0.223271E+00 -0.854808E+00
   Hartree pot. SCF incomplete   : -0.250068E-05  0.868989E-06 -0.326362E-05
   Pulay + GGA                   :  0.140497E+01 -0.203131E+01  0.732945E+01
   ----------------------------------------------------------------
   Total forces(   9)            :  0.639532E+00 -0.911680E+00  0.334690E+01
  atom #   10
   Hellmann-Feynman              : -0.320425E+00  0.607428E+00  0.879513E+00
   Ionic forces                  :  0.000000E+00  0.000000E+00  0.000000E+00
   Multipole                     :  0.301604E-01  0.472237E+00  0.211305E+00
   Hartree pot. SCF incomplete   : -0.237927E-05  0.148878E-04 -0.166487E-05
   Pulay + GGA                   :  0.403161E+00 -0.318282E+01 -0.211174E+01
   ----------------------------------------------------------------
   Total forces(  10)            :  0.112894E+00 -0.210314E+01 -0.102092E+01
  atom #   11
   Hellmann-Feynman              :  0.306842E+01  0.968672E+00  0.120970E+01
   Ionic forces                  :  0.000000E+00  0.000000E+00  0.000000E+00
   Multipole                     :  0.745126E+00  0.281824E+00  0.265988E+00
   Hartree pot. SCF incomplete   :  0.743281E-06  0.837972E-06  0.166887E-05
   Pulay + GGA                   : -0.675561E+01 -0.216553E+01 -0.275178E+01
   ----------------------------------------------------------------
   Total forces(  11)            : -0.294207E+01 -0.915030E+00 -0.127609E+01
  atom #   12
   Hellmann-Feynman              : -0.207913E+00 -0.288019E+00  0.288860E+00
   Ionic forces                  :  0.000000E+00  0.000000E+00  0.000000E+00
   Multipole                     : -0.325222E+00 -0.335209E+00  0.844881E-01
   Hartree pot. SCF incomplete   : -0.827742E-05 -0.121608E-05 -0.422999E-05
   Pulay + GGA                   :  0.202736E+01  0.139657E+01 -0.570692E+00
   ----------------------------------------------------------------
   Total forces(  12)            :  0.149422E+01  0.773345E+00 -0.197348E+00


  Self-consistency convergence accuracy:
  | Change of charge density      :  0.1162E-05
  | Change of sum of eigenvalues  : -0.3117E-04 eV
  | Change of total energy        :  0.6828E-07 eV
  | Change of forces              :  0.1861E-05 eV/A

  Writing Kohn-Sham eigenvalues.

  State    Occupation    Eigenvalue [Ha]    Eigenvalue [eV]
      1       2.00000         -55.668092        -1514.80587
      2       2.00000         -55.642843        -1514.11880
      3       2.00000         -55.596494        -1512.85759
      4       2.00000         -24.316129         -661.67554
      5       2.00000         -24.314913         -661.64244
      6       2.00000         -24.301998         -661.29101
      7       2.00000         -24.278566         -660.65340
      8       2.00000         -24.275728         -660.57618
      9       2.00000         -24.245100         -659.74275
     10       2.00000         -24.217519         -658.99222
     11       2.00000         -24.173665         -657.79888
     12       2.00000         -24.161899         -657.47871
     13       2.00000          -4.120350         -112.12044
     14       2.00000          -4.094381         -111.41377
     15       2.00000          -4.047563         -110.13980
     16       2.00000          -2.713432          -73.83623
     17       2.00000          -2.712285          -73.80504
     18       2.00000          -2.710115          -73.74599
     19       2.00000          -2.687474          -73.12988
     20       2.00000          -2.685926          -73.08777
     21       2.00000          -2.684517          -73.04942
     22       2.00000          -2.642065          -71.89426
     23       2.00000          -2.639242          -71.81744
     24       2.00000          -2.635912          -71.72683
     25       2.00000          -1.189232          -32.36064
     26       2.00000          -1.179770          -32.10319
     27       2.00000          -1.159554          -31.55306
     28       2.00000          -1.146849          -31.20736
     29       2.00000          -1.129808          -30.74364
     30       2.00000          -1.091908          -29.71233
     31       2.00000          -1.064708          -28.97217
     32       2.00000          -1.022711          -27.82938
     33       2.00000          -1.006900          -27.39914
     34       2.00000          -0.577037          -15.70197
     35       2.00000          -0.563961          -15.34616
     36       2.00000          -0.544182          -14.80795
     37       2.00000          -0.518795          -14.11712
     38       2.00000          -0.514199          -13.99206
     39       2.00000          -0.496912          -13.52165
     40       2.00000          -0.495546          -13.48449
     41       2.00000          -0.492787          -13.40940
     42       2.00000          -0.478796          -13.02869
     43       2.00000          -0.472672          -12.86207
     44       2.00000          -0.460793          -12.53882
     45       2.00000          -0.451965          -12.29859
     46       2.00000          -0.447243          -12.17010
     47       2.00000          -0.437587          -11.90734
     48       2.00000          -0.433890          -11.80675
     49       2.00000          -0.421927          -11.48123
     50       2.00000          -0.413678          -11.25676
     51       2.00000          -0.397594          -10.81909
     52       2.00000          -0.396459          -10.78818
     53       2.00000          -0.389489          -10.59853
     54       2.00000          -0.370860          -10.09163
     55       2.00000          -0.369646          -10.05858
     56       2.00000          -0.357506           -9.72824
     57       2.00000          -0.333350           -9.07091
     58       2.00000          -0.327112           -8.90117
     59       2.00000          -0.313948           -8.54297
     60       2.00000          -0.308629           -8.39823
     61       0.00000          -0.177509           -4.83028
     62       0.00000          -0.115517           -3.14337
     63       0.00000          -0.076446           -2.08021
     64       0.00000          -0.065451           -1.78101
     65       0.00000          -0.061441           -1.67188
     66       0.00000          -0.025781           -0.70153
     67       0.00000           0.012079            0.32868
     68       0.00000           0.019598            0.53328
     69       0.00000           0.034226            0.93134
     70       0.00000           0.057464            1.56368
     71       0.00000           0.084818            2.30801
     72       0.00000           0.095696            2.60402
     73       0.00000           0.134318            3.65499
     74       0.00000           0.148265            4.03449
     75       0.00000           0.151558            4.12411
     76       0.00000           0.158283            4.30710
     77       0.00000           0.175725            4.78172
     78       0.00000           0.185944            5.05981
     79       0.00000           0.195348            5.31570
     80       0.00000           0.210936            5.73985
     81       0.00000           0.213380            5.80636
     82       0.00000           0.219173            5.96400
     83       0.00000           0.226276            6.15730
     84       0.00000           0.228527            6.21853
     85       0.00000           0.243418            6.62374
     86       0.00000           0.245808            6.68877
     87       0.00000           0.249098            6.77829
     88       0.00000           0.259457            7.06019
     89       0.00000           0.276695            7.52926
     90       0.00000           0.282468            7.68635
     91       0.00000           0.284729            7.74786
     92       0.00000           0.337364            9.18014
     93       0.00000           0.343327            9.34240
     94       0.00000           0.358953            9.76761
     95       0.00000           0.368761           10.03450
     96       0.00000           0.379747           10.33345

  Highest occupied state (VBM) at     -8.39822820 eV
  | Occupation number:      2.00000000

  Lowest unoccupied state (CBM) at    -4.83027777 eV
  | Occupation number:      0.00000000

  Overall HOMO-LUMO gap:      3.56795044 eV.
  | Chemical Potential                          :    -7.53927289 eV

  Self-consistency cycle converged.


------------------------------------------------------------
  End self-consistency iteration #    13       :  max(cpu_time)    wall_clock(cpu1)
  | Time for this iteration                     :        0.363 s           0.368 s
  | Charge density & force component update     :        0.176 s           0.179 s
  | Density mixing                              :        0.008 s           0.004 s
  | Hartree multipole update                    :        0.009 s           0.008 s
  | Hartree multipole summation                 :        0.049 s           0.049 s
  | Hartree pot. SCF incomplete forces          :        0.032 s           0.055 s
  | Integration                                 :        0.033 s           0.033 s
  | Solution of K.-S. eqns.                     :        0.018 s           0.019 s
  | Total energy evaluation                     :        0.000 s           0.000 s

  Partial memory accounting:
  | Current value for overall tracked memory usage:
  |   Minimum:        0.274 MB (on task 23)
  |   Maximum:        0.293 MB (on task  0)
  |   Average:        0.289 MB
  | Peak value for overall tracked memory usage:
  |   Minimum:        2.737 MB (on task 17 after allocating hessian_basis_wave)
  |   Maximum:        2.889 MB (on task 21 after allocating hessian_basis_wave)
  |   Average:        2.826 MB
  | Largest tracked array allocation so far:
  |   Minimum:        1.318 MB (hessian_basis_wave on task 17)
  |   Maximum:        1.417 MB (hessian_basis_wave on task 21)
  |   Average:        1.374 MB
  Note:  These values currently only include a subset of arrays which are explicitly tracked.
  The "true" memory usage will be greater.
------------------------------------------------------------
  Removing unitary transformations (pure translations, rotations) from forces on atoms.
  Atomic forces before filtering:
  | Net force on center of mass :  -0.113774E-01 -0.644746E-02  0.677883E-03 eV/A
  | Net torque on center of mass:   0.312459E-04  0.109135E-01 -0.222366E-02 eV
  Atomic forces after filtering:
  | Net force on center of mass :   0.178406E-15 -0.267609E-15 -0.111504E-15 eV/A
  | Net torque on center of mass:   0.472042E-15 -0.472042E-16 -0.188817E-15 eV

  Energy and forces in a compact form:
  | Total energy uncorrected      :         -0.442205813543418E+05 eV
  | Total energy corrected        :         -0.442205813543418E+05 eV  <-- do not rely on this value for anything but (periodic) metals
  | Electronic free energy        :         -0.442205813543418E+05 eV
  Total atomic forces (unitary forces cleaned) [eV/Ang]:
  |    1         -0.320182136863886E+01         -0.107800351688377E+01          0.139921939319136E+01
  |    2          0.255243150453391E+01          0.342016728646341E+00          0.182264100284453E+01
  |    3         -0.127163438261644E+00          0.499980578444504E+00         -0.236663998072719E+01
  |    4          0.830172061907140E+00         -0.154070429291139E+01         -0.142986798183707E+01
  |    5          0.248229148760650E+01         -0.165570512603836E+01         -0.280831913848649E+00
  |    6          0.534870356149526E+00          0.267075645440148E+01         -0.678979122005904E+00
  |    7         -0.263893397917945E+00          0.238674581540350E+01          0.162752350926437E+00
  |    8         -0.211571136445694E+01          0.152922257928450E+01          0.519096012954685E+00
  |    9          0.641126654289354E+00         -0.911297701426355E+00          0.334675403682635E+01
  |   10          0.113761569316415E+00         -0.210256959319242E+01         -0.102093936986697E+01
  |   11         -0.294147034794750E+01         -0.914174810135343E+00         -0.127555225306148E+01
  |   12          0.149540628342004E+01          0.773732884407311E+00         -0.197652175396104E+00

  ------------------------------------ 
  Start decomposition of the XC Energy 
  ------------------------------------ 
  X and C from original XC functional choice 
  Hartree-Fock Energy :          0.000000000 Ha              0.000000000 eV
  X Energy            :       -140.199078065 Ha          -3815.011019775 eV
  C Energy            :         -4.954653566 Ha           -134.822983237 eV
  Total XC Energy     :       -145.153731631 Ha          -3949.834003012 eV
  ------------------------------------ 
  LDA X and C from self-consistent density 
  X Energy LDA        :       -132.786306015 Ha          -3613.299229310 eV
  C Energy LDA        :         -8.827144644 Ha           -240.198826956 eV
  ------------------------------------ 
  End decomposition of the XC Energy 
  ------------------------------------ 

------------------------------------------------------------

------------------------------------------------------------------------------
  Final output of selected total energy values:

  The following output summarizes some interesting total energy values
  at the end of a run (AFTER all relaxation, molecular dynamics, etc.).

  | Total energy of the DFT / Hartree-Fock s.c.f. calculation      :         -44220.581354342 eV
  | Final zero-broadening corrected energy (caution - metals only) :         -44220.581354342 eV
  | For reference only, the value of 1 Hartree used in FHI-aims is :             27.211384500 eV

  Before relying on these values, please be sure to understand exactly which
  total energy value is referred to by a given number. Different objects may
  all carry the same name 'total energy'. Definitions:

  Total energy of the DFT / Hartree-Fock s.c.f. calculation:
  | Note that this energy does not include ANY quantities calculated after the
  | s.c.f. cycle, in particular not ANY RPA, MP2, etc. many-body perturbation terms.

  Final zero-broadening corrected energy:
  | For metallic systems only, a broadening of the occupation numbers at the Fermi
  | level can be extrapolated back to zero broadening by an electron-gas inspired
  | formula. For all systems that are not real metals, this value can be
  | meaningless and should be avoided.

------------------------------------------------------------------------------
  Methods described in the following list of references were used in this FHI-aims run.
  If you publish the results, please make sure to cite these reference if they apply.
  FHI-aims is an academic code, and for our developers (often, Ph.D. students
  and postdocs), scientific credit in the community is essential.
  Thank you for helping us!

  For any use of FHI-aims, please cite:

    Volker Blum, Ralf Gehrke, Felix Hanke, Paula Havu, Ville Havu,
    Xinguo Ren, Karsten Reuter, and Matthias Scheffler
    'Ab initio molecular simulations with numeric atom-centered orbitals'
    Computer Physics Communications 180, 2175-2196 (2009)
    http://dx.doi.org/10.1016/j.cpc.2009.06.022


  The ELSI infrastructure was used in your run to solve the Kohn-Sham electronic structure.
  Please check out http://elsi-interchange.org to learn more.
  If scalability is important for your project, please acknowledge ELSI by citing:

    V. W-z. Yu, F. Corsetti, A. Garcia, W. P. Huhn, M. Jacquelin, W. Jia,
    B. Lange, L. Lin, J. Lu, W. Mi, A. Seifitokaldani, A. Vazquez-Mayagoitia,
    C. Yang, H. Yang, and V. Blum
    'ELSI: A unified software interface for Kohn-Sham electronic structure solvers'
    Computer Physics Communications 222, 267-285 (2018).
    http://dx.doi.org/10.1016/j.cpc.2017.09.007


  For the real-space grid partitioning and parallelization used in this calculation, please cite:

    Ville Havu, Volker Blum, Paula Havu, and Matthias Scheffler,
    'Efficient O(N) integration for all-electron electronic structure calculation'
    'using numerically tabulated basis functions'
    Journal of Computational Physics 228, 8367-8379 (2009).
    http://dx.doi.org/10.1016/j.jcp.2009.08.008

  Of course, there are many other important community references, e.g., those cited in the
  above references. Our list is limited to references that describe implementations in the
  FHI-aims code. The reason is purely practical (length of this list) - please credit others as well.

------------------------------------------------------------
          Leaving FHI-aims.
          Date     :  20220517, Time     :  121428.999

          Computational steps:
          | Number of self-consistency cycles          :           13
          | Number of SCF (re)initializations          :            1

          Detailed time accounting                     :  max(cpu_time)    wall_clock(cpu1)
          | Total time                                  :        2.090 s           2.149 s
          | Preparation time                            :        0.184 s           0.184 s
          | Boundary condition initalization            :        0.000 s           0.000 s
          | Grid partitioning                           :        0.040 s           0.040 s
          | Preloading free-atom quantities on grid     :        0.016 s           0.017 s
          | Free-atom superposition energy              :        0.005 s           0.005 s
          | Total time for integrations                 :        0.468 s           0.468 s
          | Total time for solution of K.-S. equations  :        0.133 s           0.134 s
          | Total time for density & force components   :        0.676 s           0.678 s
          | Total time for mixing                       :        0.065 s           0.033 s
          | Total time for Hartree multipole update     :        0.047 s           0.047 s
          | Total time for Hartree multipole sum        :        0.283 s           0.282 s
          | Total time for total energy evaluation      :        0.003 s           0.003 s
          | Total time NSC force correction             :        0.063 s           0.087 s
          | Total time for scaled ZORA corrections      :        0.000 s           0.000 s

          Partial memory accounting:
          | Residual value for overall tracked memory usage across tasks:     0.000000 MB (should be 0.000000 MB)
          | Peak values for overall tracked memory usage:
          |   Minimum:        2.737 MB (on task 17 after allocating hessian_basis_wave)
          |   Maximum:        2.889 MB (on task 21 after allocating hessian_basis_wave)
          |   Average:        2.826 MB
          | Largest tracked array allocation:
          |   Minimum:        1.318 MB (hessian_basis_wave on task 17)
          |   Maximum:        1.417 MB (hessian_basis_wave on task 21)
          |   Average:        1.374 MB
          Note:  These values currently only include a subset of arrays which are explicitly tracked.
          The "true" memory usage will be greater.

          Have a nice day.
------------------------------------------------------------
