********************************************************************************
*                       GENERAL UTILITY LATTICE PROGRAM                        *
*                                 Julian Gale                                  *
*                       Curtin Institute for Computation                       *
*                           Department of Chemistry                            *
*                    Curtin University, Western Australia                      *
********************************************************************************
* Version = 5.1.1 * Last modified =  11th January 2019                         *
********************************************************************************
*  single       - perform a single point run                                   *
*  phonon       - calculate phonons for final geometry                         *
*  eigenvectors - output phonon eigenvectors                                   *
********************************************************************************

  Job Started  at 10:29.41 17th May        2022                               

  Number of CPUs =     1

  Host name      = login04                                 


  Total number of configurations input =      1

********************************************************************************
*  Input for Configuration =   1                                               *
********************************************************************************

  Formula = Al3F9                                                       

  Number of irreducible atoms/shells =      21


  Total number atoms/shells =      21

  Dimensionality = 0               :  Cluster


  Charge on cluster =  -0.000000


  Initial cluster dipoles : x =      0.533117 e.Angs
                            y =     -1.082219 e.Angs
                            z =     -0.357830 e.Angs

  Temperature of configuration =  0.000     K 

  Symmetry number =      1

  Cartesian coordinates of cluster :

--------------------------------------------------------------------------------
   No.  Atomic       x           y          z         Charge      Occupancy
        Label      (Angs)      (Angs)     (Angs)        (e)         (Frac)  
--------------------------------------------------------------------------------
      1 Al    c      1.4349     -0.1286      2.3633     3.00000    1.000000    
      2 Al    c      1.1516      1.3353     -0.0169     3.00000    1.000000    
      3 Al    c     -0.1668      0.6582     -2.4027     3.00000    1.000000    
      4 F     c     -1.7630     -0.2621     -2.1699     0.59000    1.000000    
      5 F     c      2.0753     -0.3260      0.5955     0.59000    1.000000    
      6 F     c     -0.0372      1.9218     -3.7519     0.59000    1.000000    
      7 F     c     -0.4156      1.8943     -0.9164     0.59000    1.000000    
      8 F     c      2.6318      2.3697     -0.3436     0.59000    1.000000    
      9 F     c      1.3696      0.0207     -1.5043     0.59000    1.000000    
     10 F     c      0.4795      1.4545      1.7471     0.59000    1.000000    
     11 F     c      2.4572      0.6965      3.6702     0.59000    1.000000    
     12 F     c     -0.0719     -1.0929      2.8622     0.59000    1.000000    
     13 F     s     -1.7630     -0.2621     -2.1699    -1.59000    1.000000    
     14 F     s      2.0753     -0.3260      0.5955    -1.59000    1.000000    
     15 F     s     -0.0372      1.9218     -3.7519    -1.59000    1.000000    
     16 F     s     -0.4156      1.8943     -0.9164    -1.59000    1.000000    
     17 F     s      2.6318      2.3697     -0.3436    -1.59000    1.000000    
     18 F     s      1.3696      0.0207     -1.5043    -1.59000    1.000000    
     19 F     s      0.4795      1.4545      1.7471    -1.59000    1.000000    
     20 F     s      2.4572      0.6965      3.6702    -1.59000    1.000000    
     21 F     s     -0.0719     -1.0929      2.8622    -1.59000    1.000000    
--------------------------------------------------------------------------------


  Brillouin zone sampling points :

--------------------------------------------------------------------------------
  Point number          x          y          z            Weight
--------------------------------------------------------------------------------
        1           0.000000   0.000000   0.000000     1.00000000
--------------------------------------------------------------------------------


********************************************************************************
*  General input information                                                   *
********************************************************************************

  Species output for all configurations : 

--------------------------------------------------------------------------------
  Species    Type    Atomic    Atomic    Charge       Radii (Angs)     Library
                     Number     Mass       (e)     Cova   Ionic  VDW   Symbol
--------------------------------------------------------------------------------
    Al       Core       13      26.98   3.000000   1.350  0.000  2.050          
    F        Core        9      19.00   0.590000   0.710  0.000  1.300          
    F        Shell       9       0.00  -1.590000   0.710  0.000  1.300          
--------------------------------------------------------------------------------


  Accuracy factor for short range sums = 12.000

  Time limit = Infinity

  Maximum range for interatomic potentials =    100000.000000 Angstroms

  General interatomic potentials :

--------------------------------------------------------------------------------
Atom  Types   Potential      Parameter       Value         Units   Cutoffs(Ang)
  1     2                                                            Min /  Max 
--------------------------------------------------------------------------------
Al   c F    s Buckingham    Buckingham A     3760.0008    eV        0.000 10.000
                            Buckingham rho  0.22200000    Ang       
                            Buckingham C     0.0000000    eV*Ang^6  
--------------------------------------------------------------------------------
F    s F    s Buck 4 range  Buck4 A          1127.7000    eV        0.000 12.000
                            Buck4 rho       0.27530000    Ang       
                            Buck4 C          15.830000    eV*Ang^6  
                            Buck4 minimum    2.7900000    Ang       
--------------------------------------------------------------------------------
F    c F    s Spring (c-s)  Spring k 2       20.770000    eV*Ang^-2 0.000  0.800
                            Spring k 4       0.0000000    eV*Ang^-4 
--------------------------------------------------------------------------------

********************************************************************************
*  Output for configuration   1                                                *
********************************************************************************


  Components of energy : 

--------------------------------------------------------------------------------
  Interatomic potentials     =           9.53927456 eV    
  Monopole - monopole (real) =        -175.68401965 eV    
--------------------------------------------------------------------------------
  Total lattice energy       =        -166.14474509 eV    
--------------------------------------------------------------------------------
  Total lattice energy       =          -16030.4281 kJ/mol
--------------------------------------------------------------------------------

  Born effective charge tensors : 

-------------------------------------------------------------------------------
  Atom             x           y             z
-------------------------------------------------------------------------------
    1 Al    x       2.2130      0.3188      0.1587
            y       0.3180      2.0899     -0.1435
            z       0.0277     -0.0989      2.6561
-------------------------------------------------------------------------------
    2 Al    x       2.2227     -0.0733      0.1234
            y      -0.0197      2.1230     -0.0764
            z       0.1323     -0.0584      2.5719
-------------------------------------------------------------------------------
    3 Al    x       2.3413      0.2461      0.1904
            y       0.2339      2.1360     -0.2218
            z       0.3192     -0.2708      2.4817
-------------------------------------------------------------------------------
    4 F     x      -1.1628     -0.3509      0.0248
            y      -0.3877     -0.6936      0.0368
            z      -0.0787     -0.0304     -0.5665
-------------------------------------------------------------------------------
    5 F     x      -0.5504      0.2808     -0.0515
            y       0.2521     -0.7553      0.1130
            z      -0.0010      0.2452     -0.9455
-------------------------------------------------------------------------------
    6 F     x      -0.5151     -0.0237     -0.0259
            y      -0.0188     -0.8532      0.3733
            z      -0.0161      0.4845     -1.0925
-------------------------------------------------------------------------------
    7 F     x      -0.6856      0.1399     -0.2165
            y       0.1801     -0.5899     -0.1323
            z      -0.1923     -0.1928     -0.8449
-------------------------------------------------------------------------------
    8 F     x      -0.9808     -0.3471      0.0773
            y      -0.4147     -0.7563      0.1103
            z       0.0662      0.0876     -0.5880
-------------------------------------------------------------------------------
    9 F     x      -0.6438      0.1189     -0.1501
            y       0.1898     -0.6226     -0.1605
            z      -0.1935     -0.2785     -0.9847
-------------------------------------------------------------------------------
   10 F     x      -0.5032      0.2098      0.0607
            y       0.2115     -0.6837      0.0916
            z       0.0435      0.1661     -0.9335
-------------------------------------------------------------------------------
   11 F     x      -0.7516     -0.2176     -0.3706
            y      -0.1455     -0.6387     -0.1800
            z      -0.3677     -0.2654     -1.0706
-------------------------------------------------------------------------------
   12 F     x      -0.9836     -0.3016      0.1792
            y      -0.3989     -0.7556      0.1895
            z       0.2606      0.2116     -0.6836
-------------------------------------------------------------------------------




  Moment of inertia tensor (10^-46 x kgm^2): 

-------------------------------------------------------------------------------
                x           y           z           Principal axis system
-------------------------------------------------------------------------------
       x        241.95       -7.25      -55.34           80.831457
       y         -7.25      261.64       32.29          246.235046
       z        -55.34       32.29      104.76          281.280775
-------------------------------------------------------------------------------
  Centre of mass (Ang) =     0.766352     0.703215     0.008218
-------------------------------------------------------------------------------


  Vibrational Frequency Calculation : 

--------------------------------------------------------------------------------

  Frequencies (cm-1) and Eigenvectors : 

  Frequency    -353.9080 -252.5352  -67.8938  -39.8725   -0.0000   -0.0000
  IR Intensity    0.0034    0.0111    0.0006    0.0003    0.0000    0.0000
     in X         0.0007    0.0011    0.0001    0.0001    0.0000    0.0000
     in Y         0.0024    0.0003    0.0000    0.0001    0.0000    0.0000
     in Z         0.0003    0.0097    0.0005    0.0000    0.0000    0.0000
  Raman Intsty    0.6236    0.0000    0.0000    0.2303    0.0000    0.0000

     1 x       0.237770  0.344791  0.325765 -0.273346  0.262086 -0.195208
     1 y      -0.259688 -0.378236  0.295599 -0.125187 -0.192732 -0.261956
     1 z      -0.195396 -0.215017 -0.008917 -0.206396 -0.035416 -0.019031
     2 x      -0.503689  0.002198 -0.042090  0.363157  0.262086 -0.195208
     2 y       0.564089 -0.001080  0.020674  0.339517 -0.192732 -0.261956
     2 z       0.262400  0.006544 -0.125237 -0.065995 -0.035416 -0.019031
     3 x       0.280577 -0.366424 -0.295251 -0.109711  0.262086 -0.195208
     3 y      -0.280718  0.388863 -0.310587 -0.205574 -0.192732 -0.261956
     3 z      -0.068020  0.150641  0.099709  0.280523 -0.035416 -0.019031
     4 x       0.055929 -0.091905 -0.226715 -0.082859  0.219938 -0.163815
     4 y       0.001950  0.046324 -0.207582 -0.138908 -0.161737 -0.219828
     4 z       0.002676  0.017536  0.059460  0.215705 -0.029720 -0.015970
     5 x      -0.006478  0.208855  0.198366  0.076142  0.219938 -0.163815
     5 y      -0.036397 -0.298149  0.168698  0.078425 -0.161737 -0.219828
     5 z      -0.032239  0.088861 -0.037557 -0.057390 -0.029720 -0.015970
     6 x       0.024245 -0.062542 -0.190129 -0.067831  0.219938 -0.163815
     6 y      -0.043761  0.085675 -0.229150 -0.145628 -0.161737 -0.219828
     6 z       0.032714 -0.007628  0.089742  0.209133 -0.029720 -0.015970
     7 x      -0.022049 -0.133156 -0.133584  0.096264  0.219938 -0.163815
     7 y       0.049611  0.092122 -0.113005  0.013441 -0.161737 -0.219828
     7 z       0.036261 -0.053372  0.007474  0.092851 -0.029720 -0.015970
     8 x      -0.084513  0.004794 -0.023763  0.274672  0.219938 -0.163815
     8 y       0.011167 -0.002356  0.011672  0.230285 -0.161737 -0.219828
     8 z       0.030246  0.014267 -0.070705 -0.054291 -0.029720 -0.015970
     9 x       0.010268 -0.086080 -0.197626  0.102518  0.219938 -0.163815
     9 y      -0.044624  0.237837 -0.169062  0.065465 -0.161737 -0.219828
     9 z       0.017588  0.276467  0.039761  0.021104 -0.029720 -0.015970
    10 x      -0.034229  0.066348  0.122523  0.023768  0.219938 -0.163815
    10 y       0.055594 -0.059303  0.118438  0.049056 -0.161737 -0.219828
    10 z       0.000021 -0.145417 -0.040385 -0.122872 -0.029720 -0.015970
    11 x      -0.004102  0.037317  0.227667 -0.191845  0.219938 -0.163815
    11 y      -0.029836 -0.073283  0.210711 -0.084705 -0.161737 -0.219828
    11 z      -0.051633 -0.067430  0.021952 -0.159889 -0.029720 -0.015970
    12 x       0.043461  0.079527  0.237055 -0.207116  0.219938 -0.163815
    12 y       0.008075 -0.040243  0.202504 -0.077865 -0.161737 -0.219828
    12 z      -0.034423 -0.054368 -0.028695 -0.154041 -0.029720 -0.015970


  Frequency       0.0000  130.6322  138.5938  149.2183  151.3418  152.6898
  IR Intensity    0.0000    0.0441    0.0037    0.0008    0.0001    0.0000
     in X         0.0000    0.0044    0.0004    0.0001    0.0001    0.0000
     in Y         0.0000    0.0011    0.0001    0.0000    0.0000    0.0000
     in Z         0.0000    0.0387    0.0033    0.0007    0.0000    0.0000
  Raman Intsty    0.0000    0.0000    0.0000    0.0000    0.4655    0.0000

     1 x       0.017142  0.090699  0.050693  0.002407 -0.016540 -0.013319
     1 y      -0.036368 -0.103269  0.073652 -0.022154  0.049518 -0.043684
     1 z       0.324765 -0.021987 -0.008097  0.008664 -0.090113  0.033019
     2 x       0.017142  0.040874 -0.012307  0.000916 -0.027415 -0.019002
     2 y      -0.036368 -0.020079  0.006046 -0.000450 -0.072273  0.009334
     2 z       0.324765  0.121624 -0.036620  0.002725 -0.002719 -0.056541
     3 x       0.017142 -0.075642 -0.052591  0.005333  0.044677  0.034396
     3 y      -0.036368  0.095872 -0.072720  0.018352  0.019446  0.033331
     3 z       0.324765  0.066791  0.002449  0.014367  0.092043  0.029697
     4 x       0.014385 -0.266852  0.097274  0.051125  0.046235  0.150722
     4 y      -0.030519  0.231360 -0.226096  0.061711 -0.030448 -0.073249
     4 z       0.272537  0.072726  0.065971  0.449684  0.024889  0.203471
     5 x       0.014385 -0.232060 -0.403729  0.004310 -0.042250 -0.094969
     5 y      -0.030519  0.226459 -0.367163  0.069845 -0.069300 -0.060312
     5 z       0.272537 -0.135885 -0.103208 -0.011639 -0.038729 -0.024608
     6 x       0.014385 -0.269585 -0.200356 -0.205928  0.333105 -0.105689
     6 y      -0.030519  0.288077 -0.105560 -0.143775  0.297043  0.175959
     6 z       0.272537  0.114668 -0.049267 -0.203028  0.402704  0.146127
     7 x       0.014385  0.070940 -0.099788  0.236207 -0.153796 -0.107507
     7 y      -0.030519 -0.144894 -0.076383  0.285231 -0.206913 -0.092647
     7 z       0.272537  0.062918  0.026394 -0.206875  0.182330  0.135929
     8 x       0.014385  0.062578  0.097092 -0.017316  0.006507 -0.247878
     8 y      -0.030519 -0.030741 -0.047696  0.008507 -0.160523  0.121765
     8 z       0.272537  0.186206  0.288906 -0.051526 -0.028694 -0.737589
     9 x       0.014385  0.083944  0.298638 -0.017115 -0.017793  0.067515
     9 y      -0.030519 -0.153699  0.418787 -0.063555 -0.081313  0.073794
     9 z       0.272537 -0.304845 -0.209498 -0.026462  0.034041 -0.057073
    10 x       0.014385 -0.005695  0.103012 -0.339118 -0.250947  0.175363
    10 y      -0.030519  0.112843  0.074800 -0.234672 -0.159190  0.059325
    10 z       0.272537  0.131222 -0.016801 -0.099356 -0.106749  0.065959
    11 x       0.014385  0.255737  0.141893  0.059441  0.058636  0.153765
    11 y      -0.030519 -0.281275  0.134278  0.215731  0.431874 -0.199584
    11 z       0.272537 -0.155871 -0.124690 -0.232854 -0.414018 -0.003059
    12 x       0.014385  0.234343 -0.017111  0.218081  0.019443  0.006204
    12 y      -0.030519 -0.215389  0.186715 -0.193955 -0.017287 -0.003837
    12 z       0.272537 -0.169463  0.172562  0.351365 -0.054832  0.263486


  Frequency     154.0457  159.4880  165.3742  167.3584  185.1246  185.8529
  IR Intensity    0.0004    0.0042    0.0018    0.0000    0.0009    0.0168
     in X         0.0002    0.0019    0.0002    0.0000    0.0007    0.0017
     in Y         0.0002    0.0022    0.0000    0.0000    0.0001    0.0004
     in Z         0.0000    0.0001    0.0016    0.0000    0.0001    0.0147
  Raman Intsty    0.2330    0.1732    0.0000    0.3077    0.0039    0.0000

     1 x      -0.008070 -0.041004  0.024189 -0.002382 -0.076851 -0.090669
     1 y      -0.043322 -0.048099  0.013479  0.049225 -0.002023 -0.077988
     1 z       0.041388  0.002234  0.014371 -0.004049  0.016098  0.049363
     2 x       0.075764  0.076808 -0.010421 -0.051870  0.037758  0.055844
     2 y       0.092478  0.094765  0.005121 -0.119202 -0.003906 -0.027433
     2 z      -0.010195 -0.010168 -0.031011 -0.002247 -0.013340  0.166166
     3 x      -0.035085 -0.038879 -0.012238  0.005267 -0.071319  0.109391
     3 y      -0.030050 -0.049143 -0.019352  0.045467 -0.004747  0.068789
     3 z      -0.038997  0.008558  0.021193  0.018712  0.032578  0.006362
     4 x      -0.029578 -0.403575 -0.296064  0.039494  0.088799  0.069910
     4 y      -0.158682  0.324319  0.324013  0.015659 -0.291197  0.171305
     4 z      -0.451978 -0.238356  0.169119  0.332397 -0.148967 -0.159233
     5 x       0.188600 -0.102721 -0.172567  0.067013 -0.325479  0.091889
     5 y       0.167899 -0.087448 -0.138157  0.081698 -0.147600  0.002710
     5 z       0.028814 -0.013628 -0.053781  0.004550 -0.030261  0.183942
     6 x      -0.047922  0.305155  0.311884  0.333840  0.173183 -0.339848
     6 y       0.022348 -0.202947 -0.290412 -0.233206  0.041787 -0.205323
     6 z       0.005683 -0.002565 -0.060415 -0.138614  0.099082 -0.326288
     7 x      -0.144451  0.047276 -0.094012 -0.110664  0.154740 -0.027979
     7 y      -0.217036  0.016941 -0.087583 -0.086957  0.293643 -0.195851
     7 z       0.087616 -0.006162  0.089268  0.020019 -0.188323  0.238503
     8 x      -0.155176  0.122276 -0.055844 -0.385281 -0.181032 -0.032978
     8 y       0.438077 -0.005872  0.027434  0.368851  0.283392  0.016206
     8 z       0.124463 -0.042063 -0.166172  0.190375  0.107628 -0.098108
     9 x       0.150593 -0.082849  0.120122  0.059007 -0.257527  0.034469
     9 y       0.186571 -0.097211  0.163920  0.085631 -0.180979 -0.064801
     9 z      -0.084286  0.045507 -0.102274 -0.019277  0.171932  0.192100
    10 x      -0.188602  0.043192  0.136533 -0.109003  0.263666  0.182108
    10 y      -0.195346  0.018947  0.066693 -0.087771  0.240123  0.120158
    10 z      -0.043767 -0.018316  0.037257  0.024958  0.135814  0.220081
    11 x      -0.039598  0.226465 -0.257448  0.326718  0.084526  0.100164
    11 y       0.018258 -0.164292  0.263671 -0.229708  0.085317  0.323075
    11 z       0.030433 -0.236725  0.222393 -0.159801 -0.164682 -0.386938
    12 x       0.227275 -0.151555  0.305574 -0.162750  0.130694 -0.166590
    12 y      -0.284858  0.200515 -0.328684  0.115010 -0.311765 -0.123826
    12 z       0.312322  0.511564 -0.140820 -0.269402 -0.024330 -0.128473


  Frequency     192.0749  199.0128  211.8891  223.4452  262.2028  266.5992
  IR Intensity    0.0058    0.0000    0.1092    0.0001    0.0754    0.0010
     in X         0.0048    0.0000    0.0108    0.0001    0.0075    0.0003
     in Y         0.0004    0.0000    0.0026    0.0000    0.0018    0.0006
     in Z         0.0007    0.0000    0.0958    0.0000    0.0661    0.0001
  Raman Intsty    0.0152    0.0000    0.0000    0.0012    0.0000    3.6759

     1 x      -0.067904 -0.044178  0.117218  0.047486 -0.130639  0.010763
     1 y       0.064689 -0.092518 -0.148243  0.078295  0.204735 -0.091868
     1 z       0.048447 -0.117616  0.053934 -0.035834  0.008008  0.125943
     2 x      -0.064588 -0.011563  0.068278  0.169904 -0.073106  0.035787
     2 y       0.070280  0.005679 -0.033541  0.130017  0.035917  0.228509
     2 z       0.033309 -0.034406  0.203165 -0.035634 -0.217536  0.025701
     3 x      -0.076715 -0.024903 -0.047776  0.066823  0.089553 -0.074559
     3 y       0.069019  0.126454  0.114129  0.068798 -0.184553 -0.049948
     3 z       0.022229 -0.087944  0.152699  0.021701 -0.130263 -0.127916
     4 x       0.120031  0.144800 -0.130832  0.222972  0.041306 -0.240921
     4 y      -0.218751 -0.101340 -0.238860  0.122998  0.259300 -0.199327
     4 z      -0.093653  0.304310 -0.079001 -0.014445  0.083616  0.157939
     5 x      -0.119946  0.099905 -0.221618 -0.360165  0.068895 -0.033316
     5 y       0.320358  0.186318  0.091594 -0.202370 -0.155832 -0.020464
     5 z       0.074677 -0.071257  0.285552 -0.113063  0.305064  0.069134
     6 x       0.193758  0.173501  0.106844 -0.081299 -0.120709  0.130358
     6 y      -0.200084  0.113325 -0.032180 -0.019998  0.085529  0.335381
     6 z      -0.119886 -0.261496 -0.108382 -0.211665  0.163449 -0.295158
     7 x      -0.233158 -0.257413  0.170205 -0.098720 -0.104262 -0.057655
     7 y       0.147093 -0.309708 -0.222658 -0.177477 -0.202381 -0.159905
     7 z       0.111158 -0.006881 -0.306699  0.259429 -0.333686 -0.195903
     8 x       0.299079  0.074225 -0.065381  0.212837  0.028743  0.245216
     8 y      -0.326143 -0.036463  0.032119  0.264207 -0.014117  0.079262
     8 z      -0.154354  0.220868 -0.194545 -0.027909  0.085515 -0.069325
     9 x      -0.109028 -0.140248  0.337130 -0.241861  0.139749 -0.069462
     9 y       0.314992 -0.166501 -0.148342 -0.260488  0.053335 -0.002714
     9 z       0.107164 -0.048798  0.058164  0.238970  0.315784 -0.038431
    10 x      -0.238178  0.232504 -0.295613 -0.249363 -0.093402  0.053690
    10 y       0.149565  0.321944  0.284264 -0.103474  0.299477 -0.214607
    10 z       0.096217 -0.067246 -0.066465 -0.188831 -0.254480  0.135414
    11 x       0.206568 -0.304311 -0.146438  0.057636  0.184832  0.311163
    11 y      -0.206379 -0.049066  0.051629 -0.088249 -0.117019  0.246567
    11 z      -0.081758 -0.127729 -0.009428  0.201746  0.027336  0.242853
    12 x       0.130173  0.073136  0.081590  0.199285 -0.009076 -0.305698
    12 y      -0.223731 -0.005717  0.263055  0.134636 -0.275142 -0.167501
    12 z      -0.063479  0.344181 -0.067527 -0.084928  0.012313 -0.034798


  Frequency     305.5956  317.0084  336.1696  346.1930  351.0365  354.2353
  IR Intensity    0.0356    0.0437    0.0517    0.0013    0.1915    0.0961
     in X         0.0035    0.0023    0.0373    0.0001    0.1501    0.0095
     in Y         0.0009    0.0390    0.0122    0.0000    0.0311    0.0023
     in Z         0.0312    0.0024    0.0022    0.0011    0.0102    0.0843
  Raman Intsty    0.0000    0.7957    1.6029    0.0000    0.0027    0.0000

     1 x       0.209830  0.140161 -0.039961 -0.380959  0.361892  0.108548
     1 y      -0.152759 -0.093355  0.080380 -0.282693  0.152228  0.118373
     1 z      -0.100935  0.031605 -0.251040  0.022715  0.069812  0.157362
     2 x      -0.031117 -0.070388  0.125409  0.022278 -0.132469  0.004186
     2 y       0.015286 -0.168035  0.088559 -0.010910 -0.196891 -0.002034
     2 z      -0.092595 -0.004087 -0.027525  0.066236  0.012029  0.012424
     3 x      -0.212890  0.084670  0.123769  0.346301  0.263971 -0.005830
     3 y       0.154270 -0.066100 -0.000045  0.299600  0.200458 -0.168865
     3 z       0.091822 -0.133485  0.236134 -0.125514 -0.221912  0.148404
     4 x       0.377116  0.066203 -0.082850 -0.205389 -0.296531 -0.041413
     4 y       0.180797  0.130967 -0.027075 -0.160315 -0.229390  0.029630
     4 z      -0.087933  0.041088 -0.042783  0.039227  0.083495 -0.027759
     5 x      -0.182995 -0.195674 -0.164801  0.013540 -0.093680 -0.189580
     5 y       0.257368  0.244920  0.263553  0.085244  0.092207  0.139451
     5 z      -0.001836 -0.092299 -0.353221  0.006708 -0.074667  0.263298
     6 x       0.009251 -0.071458 -0.023444 -0.126498 -0.068834  0.018780
     6 y      -0.274381 -0.086538  0.069920 -0.203401 -0.071680  0.167111
     6 z       0.211237  0.230700 -0.137105  0.213415  0.090995 -0.182899
     7 x      -0.093216 -0.128495  0.127956 -0.273552  0.191673 -0.379582
     7 y       0.003961 -0.156836 -0.154264  0.094073  0.000121  0.337662
     7 z      -0.077742 -0.391710 -0.072756 -0.087463  0.262532  0.037798
     8 x       0.009452  0.271551 -0.363350  0.012598  0.127505  0.002058
     8 y      -0.004650  0.225082 -0.308888 -0.006216  0.142954 -0.001029
     8 z       0.028145 -0.054101  0.071116  0.037540 -0.019243  0.006159
     9 x       0.120617 -0.078660  0.101714 -0.015197 -0.022103  0.293671
     9 y      -0.226727  0.187435  0.132629 -0.084439  0.057012 -0.190594
     9 z      -0.183786  0.255870  0.439829 -0.011692  0.138231  0.046397
    10 x       0.028532  0.112609  0.130481  0.158648 -0.000962  0.293802
    10 y       0.027822 -0.275277 -0.155502 -0.037653  0.094746 -0.295537
    10 z      -0.114733  0.325708 -0.065234 -0.254360 -0.311042 -0.292996
    11 x       0.143806 -0.201718  0.068829  0.247076 -0.115756 -0.139125
    11 y       0.199188 -0.022545  0.024593  0.144205 -0.048571 -0.107981
    11 z       0.244201 -0.156899  0.137457  0.145279 -0.048776 -0.175234
    12 x      -0.371836  0.041601 -0.043844  0.203526 -0.309259  0.013997
    12 y      -0.183395  0.143041 -0.046228  0.161356 -0.223052 -0.016121
    12 z       0.103644 -0.032082  0.073261 -0.045085  0.045389 -0.053931


  Frequency     373.0621  387.5885  392.5206  440.0840  499.6217  557.9234
  IR Intensity    0.2680    0.8179    0.4898    0.5523    0.0308    0.0002
     in X         0.0762    0.0810    0.0043    0.4937    0.0177    0.0000
     in Y         0.1914    0.0195    0.4770    0.0007    0.0095    0.0000
     in Z         0.0004    0.7174    0.0085    0.0579    0.0037    0.0002
  Raman Intsty    1.3483    0.0000    1.6968    0.1126    1.4135    0.0000

     1 x      -0.105039 -0.098293 -0.007720 -0.306598 -0.003103 -0.035831
     1 y      -0.275552  0.033231 -0.355829  0.155381  0.139594  0.226809
     1 z       0.055208 -0.432227 -0.068288  0.035039 -0.546456 -0.341050
     2 x      -0.087419 -0.097632  0.004265 -0.551379 -0.134692  0.245165
     2 y      -0.130849  0.047950 -0.381293 -0.108478 -0.279181 -0.120437
     2 z       0.007773 -0.290507 -0.064374  0.167392 -0.000825  0.729514
     3 x      -0.143603 -0.179207 -0.000561 -0.251391  0.333228 -0.194386
     3 y      -0.256622  0.103079 -0.359355  0.128260 -0.025627 -0.113716
     3 z      -0.059505 -0.393504 -0.046975  0.199314  0.454328 -0.343982
     4 x       0.110880 -0.074969 -0.048459  0.065597 -0.080390  0.050905
     4 y       0.108541 -0.097619  0.072474 -0.010746 -0.020251  0.037902
     4 z       0.000382  0.078060  0.007485 -0.052272 -0.050877  0.028864
     5 x      -0.168843 -0.109515  0.047754  0.131207 -0.021048  0.000787
     5 y       0.244352  0.077598  0.079232 -0.038593 -0.019832 -0.027878
     5 z       0.301374  0.329864 -0.279093 -0.264598  0.286737 -0.009739
     6 x       0.054688  0.023955  0.014690  0.059232 -0.028319  0.014059
     6 y       0.092485 -0.013104  0.189153 -0.005202  0.049261 -0.011612
     6 z      -0.034165  0.050392 -0.111142 -0.063082 -0.102940  0.066888
     7 x       0.369212  0.150593 -0.160509  0.192382 -0.056464 -0.092913
     7 y      -0.133039  0.052855  0.291781 -0.096724  0.021563  0.044885
     7 z       0.163741  0.275218  0.162323 -0.015763 -0.069730 -0.062060
     8 x      -0.035047  0.018495  0.077324  0.295419  0.136923 -0.022339
     8 y       0.019835 -0.009078  0.149655  0.157519  0.136688  0.010974
     8 z       0.015053  0.055020 -0.001281 -0.073276 -0.023449 -0.066473
     9 x      -0.289260  0.274734  0.210516  0.257434 -0.187836 -0.003660
     9 y       0.303507 -0.158758 -0.000722 -0.100601  0.062102  0.029290
     9 z      -0.056965  0.161727  0.205245  0.111006 -0.209559  0.001193
    10 x       0.186600  0.036324 -0.196004  0.154148 -0.002075  0.033554
    10 y      -0.043336 -0.144667  0.309222 -0.077941 -0.005156 -0.015725
    10 z      -0.379644  0.281010  0.056697 -0.129533  0.092112 -0.114568
    11 x       0.072987  0.011774  0.095701  0.084176  0.042767  0.029286
    11 y       0.083488 -0.004442  0.149352 -0.017457  0.014339 -0.009681
    11 z       0.020302  0.055919  0.129920  0.011145  0.108583  0.062089
    12 x       0.099247  0.115629 -0.036227  0.082368 -0.036442 -0.027493
    12 y       0.114249  0.077644  0.066455 -0.018987 -0.041839 -0.049402
    12 z      -0.034217  0.042942  0.043907 -0.002363  0.079890  0.040798




--------------------------------------------------------------------------------
  Vibrational properties (for cluster):  Temperature  =       0.000 K
--------------------------------------------------------------------------------
  Zero point energy            =        0.480813 eV
--------------------------------------------------------------------------------

  Phonon density of states : 

--------------------------------------------------------------------------------
 Frequency (cm-1) Density of States                                             
--------------------------------------------------------------------------------
    0.00000 |***************                                               0.033
    8.71755 |                                                              0.000
   17.43511 |                                                              0.000
   26.15266 |                                                              0.000
   34.87022 |                                                              0.000
   43.58777 |                                                              0.000
   52.30533 |                                                              0.000
   61.02288 |                                                              0.000
   69.74044 |                                                              0.000
   78.45799 |                                                              0.000
   87.17555 |                                                              0.000
   95.89310 |                                                              0.000
  104.61066 |                                                              0.000
  113.32821 |                                                              0.000
  122.04577 |***************                                               0.033
  130.76332 |***************                                               0.033
  139.48087 |                                                              0.000
  148.19843 |************************************************************  0.133
  156.91598 |******************************                                0.067
  165.63354 |***************                                               0.033
  174.35109 |                                                              0.000
  183.06865 |******************************                                0.067
  191.78620 |******************************                                0.067
  200.50376 |                                                              0.000
  209.22131 |***************                                               0.033
  217.93887 |***************                                               0.033
  226.65642 |                                                              0.000
  235.37398 |                                                              0.000
  244.09153 |                                                              0.000
  252.80909 |                                                              0.000
  261.52664 |******************************                                0.067
  270.24419 |                                                              0.000
  278.96175 |                                                              0.000
  287.67930 |                                                              0.000
  296.39686 |                                                              0.000
  305.11441 |***************                                               0.033
  313.83197 |***************                                               0.033
  322.54952 |                                                              0.000
  331.26708 |***************                                               0.033
  339.98463 |***************                                               0.033
  348.70219 |******************************                                0.067
  357.41974 |                                                              0.000
  366.13730 |***************                                               0.033
  374.85485 |                                                              0.000
  383.57241 |***************                                               0.033
  392.28996 |***************                                               0.033
  401.00751 |                                                              0.000
  409.72507 |                                                              0.000
  418.44262 |                                                              0.000
  427.16018 |                                                              0.000
  435.87773 |***************                                               0.033
  444.59529 |                                                              0.000
  453.31284 |                                                              0.000
  462.03040 |                                                              0.000
  470.74795 |                                                              0.000
  479.46551 |                                                              0.000
  488.18306 |                                                              0.000
  496.90062 |***************                                               0.033
  505.61817 |                                                              0.000
  514.33573 |                                                              0.000
  523.05328 |                                                              0.000
  531.77083 |                                                              0.000
  540.48839 |                                                              0.000
  549.20594 |***************                                               0.033
--------------------------------------------------------------------------------



  XYZ File written as 001/3/sp_mod_-60/sp_mod_-60_eig.xyz


  Time to end of properties =       0.0131 seconds


  Peak dynamic memory used =       0.64 MB 


  Timing analysis for GULP :

--------------------------------------------------------------------------------
  Task / Subroutine                                          Time (Seconds)
--------------------------------------------------------------------------------
  Calculation of phonons                                          0.0038
--------------------------------------------------------------------------------
  Total CPU time                                                  0.0131
--------------------------------------------------------------------------------


  Job Finished at 10:29.41 17th May        2022                               

