------------------------------------------------------------
          Invoking FHI-aims ...

          When using FHI-aims, please cite the following reference:

            Volker Blum, Ralf Gehrke, Felix Hanke, Paula Havu,
            Ville Havu, Xinguo Ren, Karsten Reuter, and Matthias Scheffler,
            'Ab Initio Molecular Simulations with Numeric Atom-Centered Orbitals',
            Computer Physics Communications 180, 2175-2196 (2009)

          In addition, many other developments in FHI-aims are likely important for
          your particular application. A partial list of references is given at the end of
          this file. Thank you for giving credit to the authors of these developments.

          For any questions about FHI-aims, please visit our slack channel at

            https://fhi-aims.slack.com

          and our main development and support site at

            https://aims-git.rz-berlin.mpg.de .

          The latter site, in particular, has a wiki to collect information, as well
          as an issue tracker to log discussions, suggest improvements, and report issues
          or bugs. https://aims-git.rz-berlin.mpg.de is also the main development site
          of the project and all new and updated code versions can be obtained there.
          Please send an email to aims-coordinators@fhi-berlin.mpg.de and we will add
          you to these sites. They are for you and everyone is welcome there.

------------------------------------------------------------



  Date     :  20220517, Time     :  121949.766
  Time zero on CPU 1             :   0.398450000000000E-01  s.
  Internal wall clock time zero  :           422021989.766  s.

  FHI-aims created a unique identifier for this run for later identification
  aims_uuid : F4FA380A-99B9-4759-A3F0-1CC54833345C

  Build configuration of the current instance of FHI-aims
  -------------------------------------------------------
  FHI-aims version      : 210914
  Commit number         : GITDIR-NOTFOUND
  CMake host system     : Linux-3.10.0-693.17.1.el7.x86_64
  CMake version         : 3.21.1
  Fortran compiler      : /shared/ucl/apps/intel/2018.Update3/impi/2018.3.222/intel64/bin/mpiifort (Intel) version 18.0.3.20180410
  Fortran compiler flags: -O3 -ip -fp-model precise
  C compiler            : /shared/ucl/apps/intel/2018.Update3/compilers_and_libraries_2018.3.222/linux/bin/intel64/icc (Intel) version 18.0.3.20180410
  C compiler flags      : -O3 -ip -fp-model precise -std=gnu99
  ELPA2 kernel          : AVX2
  Using MPI
  Using ScaLAPACK
  Using LibXC
  Using i-PI
  Using RLSY
  Linking against: /shared/ucl/apps/intel/2019.Update5/compilers_and_libraries_2019.5.281/linux/mkl/lib/intel64/libmkl_intel_lp64.so
                   /shared/ucl/apps/intel/2019.Update5/compilers_and_libraries_2019.5.281/linux/mkl/lib/intel64/libmkl_sequential.so
                   /shared/ucl/apps/intel/2019.Update5/compilers_and_libraries_2019.5.281/linux/mkl/lib/intel64/libmkl_core.so
                   /shared/ucl/apps/intel/2019.Update5/compilers_and_libraries_2019.5.281/linux/mkl/lib/intel64/libmkl_blacs_intelmpi_lp64.so
                   /shared/ucl/apps/intel/2019.Update5/compilers_and_libraries_2019.5.281/linux/mkl/lib/intel64/libmkl_scalapack_lp64.so

  Using       24 parallel tasks.
  Task        0 on host node-k98a-019 reporting.
  Task        1 on host node-k98a-019 reporting.
  Task        2 on host node-k98a-019 reporting.
  Task        3 on host node-k98a-019 reporting.
  Task        4 on host node-k98a-019 reporting.
  Task        5 on host node-k98a-019 reporting.
  Task        6 on host node-k98a-019 reporting.
  Task        7 on host node-k98a-019 reporting.
  Task        8 on host node-k98a-019 reporting.
  Task        9 on host node-k98a-019 reporting.
  Task       10 on host node-k98a-019 reporting.
  Task       11 on host node-k98a-019 reporting.
  Task       12 on host node-k98a-019 reporting.
  Task       13 on host node-k98a-019 reporting.
  Task       14 on host node-k98a-019 reporting.
  Task       15 on host node-k98a-019 reporting.
  Task       16 on host node-k98a-019 reporting.
  Task       17 on host node-k98a-019 reporting.
  Task       18 on host node-k98a-019 reporting.
  Task       19 on host node-k98a-019 reporting.
  Task       20 on host node-k98a-019 reporting.
  Task       21 on host node-k98a-019 reporting.
  Task       22 on host node-k98a-019 reporting.
  Task       23 on host node-k98a-019 reporting.

  Performing system and environment tests:
  | Environment variable OMP_NUM_THREADS correctly set to 1.
  | Checking for ScaLAPACK...
  | Testing pdtran()...
  | All pdtran() tests passed.

  Obtaining array dimensions for all initial allocations:
  
  -----------------------------------------------------------------------
  Parsing control.in (first pass over file, find array dimensions only).
  The contents of control.in will be repeated verbatim below
  unless switched off by setting 'verbatim_writeout .false.' .
  in the first line of control.in .
  -----------------------------------------------------------------------
  
  #########################################################################################  Physical model
  #########################################################################################
  xc                 pbesol
  spin               none
  relativistic       atomic_zora scalar
  charge             0.0
  #  SCF convergence
  occupation_type    gaussian 0.01
  mixer              pulay
  n_max_pulay        10
  charge_mix_param   0.5
  sc_accuracy_rho    1E-5
  sc_accuracy_eev    1E-3
  sc_accuracy_etot   1E-6
  sc_accuracy_forces 1E-4
  sc_iter_limit      1500
  #  Relaxation
  #relax_geometry   bfgs 1.e-3
  
  ################################################################################
  #
  #  FHI-aims code project
  #  VB, Fritz-Haber Institut, 2009
  #
  #  Suggested "light" defaults for Al atom (to be pasted into control.in file)
  #  Be sure to double-check any results obtained with these settings for post-processing,
  #  e.g., with the "tight" defaults and larger basis sets.
  #
  ################################################################################
    species        Al
  #     global species definitions
      nucleus             13
      mass                26.9815386
  #
      l_hartree           4
  #
      cut_pot             3.5          1.5  1.0
      basis_dep_cutoff    1e-4
  #
      radial_base         41 5.0
      radial_multiplier   1
      angular_grids       specified
        division   0.6594  110
        division   0.8170  194
        division   0.9059  302
  #      division   1.0363  434
  #      division   1.1443  590
  #      division   1.2621  770
  #      division   2.8177  974
  #      outer_grid   974
        outer_grid   302
  ################################################################################
  #
  #  Definition of "minimal" basis
  #
  ################################################################################
  #     valence basis states
      valence      3  s   2.
      valence      3  p   1.
  #     ion occupancy
      ion_occ      3  s   1.
      ion_occ      2  p   6.
  ################################################################################
  #
  #  Suggested additional basis functions. For production calculations,
  #  uncomment them one after another (the most important basis functions are
  #  listed first).
  #
  #  Constructed for dimers: 2.0 A, 2.5 A, 3.0 A, 3.75 A, 4.5 A
  #
  ################################################################################
  #  "First tier" - improvements: -199.47 meV to -10.63 meV
       ionic 3 d auto
       ionic 3 p auto
  #     hydro 4 f 4.7
       ionic 3 s auto
  #  "Second tier" - improvements: -5.35 meV to -1.57 meV
  #     hydro 5 g 7
  #     hydro 3 d 6
  #     hydro 2 s 11.6
  #     hydro 2 p 0.9
  #  "Third tier" - improvements: -0.63 meV to -0.20 meV
  #     hydro 5 f 7.6
  #     hydro 4 p 7.2
  #     hydro 4 s 3.7
  #     hydro 4 d 7.6
  #  "Fourth tier" - improvements: -0.17 meV to -0.08 meV
  #     hydro 4 d 13.6
  #     hydro 5 g 11.2
  #     hydro 4 d 0.9
  #     hydro 1 s 0.4
  #     hydro 4 p 0.1
  #     hydro 5 f 9.8
  #  Further basis functions that fell out of the optimization - noise level...
  #     hydro 4 p 5
  
  ################################################################################
  #
  #  FHI-aims code project
  #  VB, Fritz-Haber Institut, 2009
  #
  #  Suggested "light" defaults for F atom (to be pasted into control.in file)
  #  Be sure to double-check any results obtained with these settings for post-processing,
  #  e.g., with the "tight" defaults and larger basis sets.
  #
  ################################################################################
    species        F
  #     global species definitions
      nucleus             9
      mass                18.9984032
  #
      l_hartree           4
  #
      cut_pot             3.5  1.5  1.0
      basis_dep_cutoff    1e-4
  #
      radial_base         37 5.0
      radial_multiplier   1
      angular_grids specified
        division   0.4014  110
        division   0.5291  194
        division   0.6019  302
  #      division   0.6814  434
  #      division   0.7989  590
  #      division   0.8965  770
  #      division   1.3427  974
  #      outer_grid   974
        outer_grid   302
  ################################################################################
  #
  #  Definition of "minimal" basis
  #
  ################################################################################
  #     valence basis states
      valence      2  s   2.
      valence      2  p   5.
  #     ion occupancy
      ion_occ      2  s   1.
      ion_occ      2  p   4.
  ################################################################################
  #
  #  Suggested additional basis functions. For production calculations,
  #  uncomment them one after another (the most important basis functions are
  #  listed first).
  #
  #  Constructed for dimers: 1.2 A, 1.418 A, 1.75 A, 2.25 A, 3.25 A
  #
  ################################################################################
  #  "First tier" - improvements: -149.44 meV to -45.88 meV
       hydro 2 p 1.7
       hydro 3 d 7.4
       hydro 3 s 6.8
  #  "Second tier" - improvements: -12.96 meV to -1.56 meV
  #     hydro 4 f 11.2
  #     ionic 2 p auto
  #     hydro 1 s 0.75
  #     hydro 4 d 8.8
  #     hydro 5 g 16.8
  #  "Third tier" - improvements: -0.58 meV to -0.05 meV
  #     hydro 3 p 6.2
  #     hydro 3 s 3.2
  #     hydro 4 f 9.6
  #     hydro 3 s 19.6
  #     hydro 4 d 8.6
  #     hydro 5 g 14.4
  # Further basis functions: -0.05 meV and below
  #     hydro 3 p 4.2
  
  -----------------------------------------------------------------------
  Completed first pass over input file control.in .
  -----------------------------------------------------------------------
  
  
  -----------------------------------------------------------------------
  Parsing geometry.in (first pass over file, find array dimensions only).
  The contents of geometry.in will be repeated verbatim below
  unless switched off by setting 'verbatim_writeout .false.' .
  in the first line of geometry.in .
  -----------------------------------------------------------------------
  
  atom -1.700640189 2.559361485 -1.230217206 Al
  atom -0.531359370 0.000498204 -2.347429356 Al
  atom -2.200992986 -0.339213912 -0.515325849 Al
  atom -0.757432480 3.685722711 -0.161800573 F
  atom -3.017205170 3.176292066 -2.315637519 F
  atom -1.377281488 -1.674999037 -1.720676954 F
  atom -2.525984880 1.449661110 0.053251585 F
  atom -3.247282930 -1.303082546 0.602402164 F
  atom 0.621338290 -0.515953260 -3.642669600 F
  atom -0.335373893 1.895373922 -2.350524922 F
  atom -2.454892157 0.474372151 -2.304185228 F
  atom -0.302636363 0.158799180 -0.401304388 F
  
  -----------------------------------------------------------------------
  Completed first pass over input file geometry.in .
  -----------------------------------------------------------------------
  

  Basic array size parameters:
  | Number of species                 :        2
  | Number of atoms                   :       12
  | Max. basis fn. angular momentum   :        2
  | Max. atomic/ionic basis occupied n:        3
  | Max. number of basis fn. types    :        3
  | Max. radial fns per species/type  :        5
  | Max. logarithmic grid size        :     1340
  | Max. radial integration grid size :       41
  | Max. angular integration grid size:      302
  | Max. angular grid division number :        8
  | Radial grid for Hartree potential :     1340
  | Number of spin channels           :        1

------------------------------------------------------------
          Reading file control.in.
------------------------------------------------------------
  XC: Using PBEsol gradient-corrected functionals.
  Spin treatment: No spin polarisation.
  Scalar relativistic treatment of kinetic energy: on-site free-atom approximation to ZORA.
  Charge =   0.000000E+00: Neutral system requested explicitly.
  Occupation type: Gaussian broadening, width =   0.100000E-01 eV.
  Using pulay charge density mixing.
  Pulay mixing - number of memorized iterations:   10
  Charge density mixing - mixing parameter:     0.5000
  Convergence accuracy of self-consistent charge density:  0.1000E-04
  Convergence accuracy of sum of eigenvalues:  0.1000E-02
  Convergence accuracy of total energy:  0.1000E-05
  Convergence accuracy of forces:  0.1000E-03
  Maximum number of s.-c. iterations  :  1500
 
  Reading configuration options for species Al                  .
  | Found nuclear charge :  13.0000
  | Found atomic mass :    26.9815386000000      amu
  | Found l_max for Hartree potential  :   4
  | Found cutoff potl. onset [A], width [A], scale factor :    3.50000    1.50000    1.00000
  | Threshold for basis-dependent cutoff potential is   0.100000E-03
  | Found data for basic radial integration grid :    41 points, outermost radius =    5.000 A
  | Found multiplier for basic radial grid :   1
  | Found angular grid specification: user-specified.
  | Specified grid contains     4 separate shells.
  | Check grid settings after all constraints further below.
  | Found free-atom valence shell :  3 s   2.000
  | Found free-atom valence shell :  3 p   1.000
  | Found free-ion valence shell :  3 s   1.000
  | Found free-ion valence shell :  2 p   6.000
  | Found ionic basis function :  3 d , default cutoff radius.
  | Found ionic basis function :  3 p , default cutoff radius.
  | Found ionic basis function :  3 s , default cutoff radius.
  Species Al                  : Missing cutoff potential type.
  Defaulting to exp(1/x)/(1-x)^2 type cutoff potential.
  Species Al: No 'logarithmic' tag. Using default grid for free atom:
  | Default logarithmic grid data [bohr] : 0.1000E-03 0.1000E+03 0.1012E+01
  | Will include ionic basis functions of  2.0-fold positive Al                   ion.
  Species Al: On-site basis accuracy parameter (for Gram-Schmidt orthonormalisation) not specified.
  Using default value basis_acc =  0.1000000E-03.
  Species Al                  : Using default innermost maximum threshold i_radial=  2 for radial functions.
  Species Al                  : Default cutoff onset for free atom density etc. : 0.35000000E+01 AA.
  Species Al                  : Basic radial grid will be enhanced according to radial_multiplier =   1, to contain    41 grid points.
 
  Reading configuration options for species F                   .
  | Found nuclear charge :   9.0000
  | Found atomic mass :    18.9984032000000      amu
  | Found l_max for Hartree potential  :   4
  | Found cutoff potl. onset [A], width [A], scale factor :    3.50000    1.50000    1.00000
  | Threshold for basis-dependent cutoff potential is   0.100000E-03
  | Found data for basic radial integration grid :    37 points, outermost radius =    5.000 A
  | Found multiplier for basic radial grid :   1
  | Found angular grid specification: user-specified.
  | Specified grid contains     4 separate shells.
  | Check grid settings after all constraints further below.
  | Found free-atom valence shell :  2 s   2.000
  | Found free-atom valence shell :  2 p   5.000
  | Found free-ion valence shell :  2 s   1.000
  | Found free-ion valence shell :  2 p   4.000
  | Found hydrogenic basis function :  2 p   1.700
  | Found hydrogenic basis function :  3 d   7.400
  | Found hydrogenic basis function :  3 s   6.800
  Species F                   : Missing cutoff potential type.
  Defaulting to exp(1/x)/(1-x)^2 type cutoff potential.
  Species F : No 'logarithmic' tag. Using default grid for free atom:
  | Default logarithmic grid data [bohr] : 0.1000E-03 0.1000E+03 0.1012E+01
  Species F : On-site basis accuracy parameter (for Gram-Schmidt orthonormalisation) not specified.
  Using default value basis_acc =  0.1000000E-03.
  Species F                   : Using default innermost maximum threshold i_radial=  2 for radial functions.
  Species F                   : Default cutoff onset for free atom density etc. : 0.35000000E+01 AA.
  Species F                   : Basic radial grid will be enhanced according to radial_multiplier =   1, to contain    37 grid points.
 
  Finished reading input file 'control.in'.
 
------------------------------------------------------------


------------------------------------------------------------
          Reading geometry description geometry.in.
------------------------------------------------------------
  | The smallest distance between any two atoms is         1.80916591 AA.
  | The first atom of this pair is atom number                      2 .
  | The second atom of this pair is atom number                     9 .
  Input structure read successfully.
  The structure contains       12 atoms,  and a total of        120.000 electrons.

  Input geometry:
  | No unit cell requested.
  | Atomic structure:
  |       Atom                x [A]            y [A]            z [A]
  |    1: Species Al           -1.70064019        2.55936149       -1.23021721
  |    2: Species Al           -0.53135937        0.00049820       -2.34742936
  |    3: Species Al           -2.20099299       -0.33921391       -0.51532585
  |    4: Species F            -0.75743248        3.68572271       -0.16180057
  |    5: Species F            -3.01720517        3.17629207       -2.31563752
  |    6: Species F            -1.37728149       -1.67499904       -1.72067695
  |    7: Species F            -2.52598488        1.44966111        0.05325158
  |    8: Species F            -3.24728293       -1.30308255        0.60240216
  |    9: Species F             0.62133829       -0.51595326       -3.64266960
  |   10: Species F            -0.33537389        1.89537392       -2.35052492
  |   11: Species F            -2.45489216        0.47437215       -2.30418523
  |   12: Species F            -0.30263636        0.15879918       -0.40130439

 
  Finished reading input file 'control.in'.
 

------------------------------------------------------------
          Reading geometry description geometry.in.
------------------------------------------------------------
 
  Consistency checks for stacksize environment parameter are next.
 
  | Maximum stacksize for task 0: unlimited
  | Maximum stacksize for task 1: unlimited
  | Maximum stacksize for task 2: unlimited
  | Maximum stacksize for task 3: unlimited
  | Maximum stacksize for task 4: unlimited
  | Maximum stacksize for task 5: unlimited
  | Maximum stacksize for task 6: unlimited
  | Maximum stacksize for task 7: unlimited
  | Maximum stacksize for task 8: unlimited
  | Maximum stacksize for task 9: unlimited
  | Maximum stacksize for task 10: unlimited
  | Maximum stacksize for task 11: unlimited
  | Maximum stacksize for task 12: unlimited
  | Maximum stacksize for task 13: unlimited
  | Maximum stacksize for task 14: unlimited
  | Maximum stacksize for task 15: unlimited
  | Maximum stacksize for task 16: unlimited
  | Maximum stacksize for task 17: unlimited
  | Maximum stacksize for task 18: unlimited
  | Maximum stacksize for task 19: unlimited
  | Maximum stacksize for task 20: unlimited
  | Maximum stacksize for task 21: unlimited
  | Maximum stacksize for task 22: unlimited
  | Maximum stacksize for task 23: unlimited
  | Current stacksize for task 0: unlimited
  | Current stacksize for task 1: unlimited
  | Current stacksize for task 2: unlimited
  | Current stacksize for task 3: unlimited
  | Current stacksize for task 4: unlimited
  | Current stacksize for task 5: unlimited
  | Current stacksize for task 6: unlimited
  | Current stacksize for task 7: unlimited
  | Current stacksize for task 8: unlimited
  | Current stacksize for task 9: unlimited
  | Current stacksize for task 10: unlimited
  | Current stacksize for task 11: unlimited
  | Current stacksize for task 12: unlimited
  | Current stacksize for task 13: unlimited
  | Current stacksize for task 14: unlimited
  | Current stacksize for task 15: unlimited
  | Current stacksize for task 16: unlimited
  | Current stacksize for task 17: unlimited
  | Current stacksize for task 18: unlimited
  | Current stacksize for task 19: unlimited
  | Current stacksize for task 20: unlimited
  | Current stacksize for task 21: unlimited
  | Current stacksize for task 22: unlimited
  | Current stacksize for task 23: unlimited
 
  Consistency checks for the contents of control.in are next.
 
  MPI_IN_PLACE appears to work with this MPI implementation.
  | Keeping use_mpi_in_place .true. (see manual).
  Target number of points in a grid batch is not set. Defaulting to  100
  Method for grid partitioning is not set. Defaulting to parallel hash+maxmin partitioning.
  Batch size limit is not set. Defaulting to    200
  By default, will store active basis functions for each batch.
  If in need of memory, prune_basis_once .false. can be used to disable this option.
  communication_type for Hartree potential was not specified.
  Defaulting to calc_hartree .
  Pulay mixer: Number of initial linear mixing iterations not set.
  Defaulting to    0 iterations.
  Work space size for distributed Hartree potential not set.
  Defaulting to   0.200000E+03 MB.
  Algorithm-dependent basis array size parameters:
  | n_max_pulay                         :       10
  Presetting      1001 iterations before the initial mixing cycle
  is restarted anyway using the sc_init_iter criterion / keyword.
  Presetting a factor      1.000 between actual scf density residual
  and density convergence criterion sc_accuracy_rho below which sc_init_iter
  takes no effect.
  Geometry relaxation not requested: no relaxation will be performed.
  Forces evaluation will include force correction term due to incomplete self-consistency (default).
  Handling of forces: Unphysical translation and rotation will be removed from forces.
  No accuracy limit for integral partition fn. given. Defaulting to  0.1000E-14.
  No threshold value for u(r) in integrations given. Defaulting to  0.1000E-05.
  No accuracy for occupation numbers given. Defaulting to  0.1000E-12.
  No threshold value for occupation numbers given. Defaulting to  0.0000E+00.
  No accuracy for fermi level given. Defaulting to  0.1000E-19.
  Maximum # of iterations to find E_F not set. Defaulting to  200.
  Preferred method for the eigenvalue solver ('KS_method') not specified in 'control.in'.
  Calling BLACS routine to test compilation state
  Since ScaLAPACK support is enabled, defaulting to ELPA (via ELSI).
  Will not use alltoall communication since running on < 1024 CPUs.
  Threshold for basis singularities not set.
  Default threshold for basis singularities:  0.1000E-04
  partition_type (choice of integration weights) for integrals was not specified.
  | Using a version of the partition function of Stratmann and coworkers ('stratmann_sparse').
  | At each grid point, the set of atoms used to build the partition table is smoothly restricted to
  | only those atoms whose free-atom density would be non-zero at that grid point.
  Partitioning for Hartree potential was not defined. Using partition_type for integrals.
  | Adjusted default value of keyword multip_moments_threshold to:       0.10000000E-11
  | This value may affect high angular momentum components of the Hartree potential in periodic systems.
  No q(lm)/r^(l+1) cutoff set for long-range Hartree potential.
  | Using default value of  0.100000E-09 .
  | Verify using the multipole_threshold keyword.
  Defaulting to new monopole extrapolation.
  Density update method: automatic selection selected.
  Charge integration errors on the 3D integration grid will be compensated
  by explicit normalization and distribution of residual charges.
  Use the "compensate_multipole_errors" flag to change this behaviour.
  Set 'collect_eigenvectors' to be '.true.' for use_density_matrix .false.
 
  Consistency checks for the contents of geometry.in are next.
 
  Number of empty states per atom not set in control.in - providing a guess from actual geometry.
  | Total number of empty states used during s.c.f. cycle:       36
  If you use a very high smearing, use empty_states (per atom!) in control.in to increase this value.

  Structure-dependent array size parameters: 
  | Maximum number of distinct radial functions  :       14
  | Maximum number of basis functions            :      180
  | Number of Kohn-Sham states (occupied + empty):       96
------------------------------------------------------------

------------------------------------------------------------
          Preparing all fixed parts of the calculation.
------------------------------------------------------------
  Determining machine precision:
    2.225073858507201E-308
  Setting up grids for atomic and cluster calculations.

  Creating wave function, potential, and density for free atoms.

  Species: Al

  List of occupied orbitals and eigenvalues:
    n    l              occ      energy [Ha]    energy [eV]
    1    0           2.0000       -55.621123     -1513.5278
    2    0           2.0000        -3.957030      -107.6763
    3    0           2.0000        -0.272233        -7.4078
    2    1           6.0000        -2.540949       -69.1427
    3    1           1.0000        -0.083300        -2.2667


  Species: F

  List of occupied orbitals and eigenvalues:
    n    l              occ      energy [Ha]    energy [eV]
    1    0           2.0000       -24.399611      -663.9472
    2    0           2.0000        -1.098702       -29.8972
    2    1           5.0000        -0.408210       -11.1080


  Adding cutoff potential to free-atom effective potential.
  Creating fixed part of basis set: Ionic, confined, hydrogenic.
 
  Al                   ion:

  List of free ionic orbitals and eigenvalues:
    n    l      energy [Ha]    energy [eV]
    1    0       -56.418846     -1535.2349
    2    0        -4.732717      -128.7838
    3    0        -0.872690       -23.7471
    2    1        -3.317230       -90.2664


  List of ionic basis orbitals and eigenvalues:
    n    l      energy [Ha]    energy [eV]    outer radius [A]
    3    2        -0.346815        -9.4373       4.594041
    3    1        -0.631870       -17.1940       4.538221
    3    0        -0.872657       -23.7462       4.538221

 
  F                    hydrogenic:
 
  List of hydrogenic basis orbitals: 
    n    l      effective z      eigenvalue [eV]  inner max. [A]     outer max. [A]     outer radius [A]   
    2    1         1.700000        -9.7616           1.243167           1.243167           4.598524
    3    2         7.400000       -82.7828           0.642437           0.642437           3.305741
    3    0         6.800000       -69.9026           0.057798           1.022307           3.781556
 
  Creating atomic-like basis functions for current effective potential.

  Species Al                  :

  List of atomic basis orbitals and eigenvalues:
    n    l      energy [Ha]    energy [eV]    outer radius [A]
    1    0       -55.621123     -1513.5278       0.850197
    2    0        -3.957030      -107.6763       3.144911
    3    0        -0.272233        -7.4078       4.594041
    2    1        -2.540949       -69.1427       3.731966
    3    1        -0.083300        -2.2667       4.594041


  Species F                   :

  List of atomic basis orbitals and eigenvalues:
    n    l      energy [Ha]    energy [eV]    outer radius [A]
    1    0       -24.399611      -663.9472       1.258458
    2    0        -1.098702       -29.8972       4.325857
    2    1        -0.408210       -11.1080       4.487453

  Assembling full basis from fixed parts.
  | Species Al :   atomic orbital   1 s accepted.
  | Species Al :   atomic orbital   2 s accepted.
  | Species Al :    ionic orbital   3 s accepted.
  | Species Al :   atomic orbital   3 s accepted.
  | Species Al :   atomic orbital   2 p accepted.
  | Species Al :    ionic orbital   3 p accepted.
  | Species Al :   atomic orbital   3 p accepted.
  | Species Al :    ionic orbital   3 d accepted.
  | Species F :   atomic orbital   1 s accepted.
  | Species F :    hydro orbital   3 s accepted.
  | Species F :   atomic orbital   2 s accepted.
  | Species F :   atomic orbital   2 p accepted.
  | Species F :    hydro orbital   2 p accepted.
  | Species F :    hydro orbital   3 d accepted.
 
  Basis size parameters after reduction:
  | Total number of radial functions:       14
  | Total number of basis functions :      180
 
  Per-task memory consumption for arrays in subroutine allocate_ext:
  |           4.807768MB.
  Testing on-site integration grid accuracy.
  |  Species  Function  <phi|h_atom|phi> (log., in eV)  <phi|h_atom|phi> (rad., in eV)
           1        1              -1513.5277717935              -1513.5271881332
           1        2               -107.6762691836               -107.6762662489
           1        3                 -6.9467474784                 -6.9471269649
           1        4                  5.5771951849                  5.4862107220 ***
           1        5                -69.1427313144                -69.1427312731
           1        6                 -1.5197375330                 -1.5230432022
           1        7                  6.8210948310                  6.5529872240 ***
           1        8                  4.3216540965                  4.2851170187 ***
           2        9               -663.9471986398               -663.9470363334
           2       10                 16.8514011578                 16.8512525338
           2       11                -28.4490593856                -28.4490661472
           2       12                -11.1080115307                -11.1080620173
           2       13                  7.1940182175                  7.1685154137
           2       14                 44.8544281765                 44.8543763625
 * Note: Onsite integrals marked "***" above are less accurate than
 * onsite_accuracy_threshold =    0.03000 eV. Usually, this is harmless.
 * When in doubt, tighten the "radial" and/or "radial_multiplier" flags to check.

  Preparing densities etc. for the partition functions (integrals / Hartree potential).

  Preparations completed.
  max(cpu_time)          :      0.184 s.
  Wall clock time (cpu1) :      0.184 s.
------------------------------------------------------------

------------------------------------------------------------
          Begin self-consistency loop: Initialization.

          Date     :  20220517, Time     :  121949.997
------------------------------------------------------------

  Initializing index lists of integration centers etc. from given atomic structure:
  | Number of centers in hartree potential         :        12
  | Number of centers in hartree multipole         :        12
  | Number of centers in electron density summation:        12
  | Number of centers in basis integrals           :        12
  | Number of centers in integrals                 :        12
  | Number of centers in hamiltonian               :        12
  * Using 24 tasks for Scalapack Eigenvalue solver.
  Detailed listing of tasks and assigned k-points:
  (for non-periodic systems, the "k-point" denotes an internal label only)
   Task     0 k-point     1 on node-k98a-019
   Task     1 k-point     1 on node-k98a-019
   Task     2 k-point     1 on node-k98a-019
   Task     3 k-point     1 on node-k98a-019
   Task     4 k-point     1 on node-k98a-019
   Task     5 k-point     1 on node-k98a-019
   Task     6 k-point     1 on node-k98a-019
   Task     7 k-point     1 on node-k98a-019
   Task     8 k-point     1 on node-k98a-019
   Task     9 k-point     1 on node-k98a-019
   Task    10 k-point     1 on node-k98a-019
   Task    11 k-point     1 on node-k98a-019
   Task    12 k-point     1 on node-k98a-019
   Task    13 k-point     1 on node-k98a-019
   Task    14 k-point     1 on node-k98a-019
   Task    15 k-point     1 on node-k98a-019
   Task    16 k-point     1 on node-k98a-019
   Task    17 k-point     1 on node-k98a-019
   Task    18 k-point     1 on node-k98a-019
   Task    19 k-point     1 on node-k98a-019
   Task    20 k-point     1 on node-k98a-019
   Task    21 k-point     1 on node-k98a-019
   Task    22 k-point     1 on node-k98a-019
   Task    23 k-point     1 on node-k98a-019
  Tasks:    24 split into      6 X      4 BLACS grid
  Calculating block size based on n_basis =          180  max_nprow =            6  max_npcol =            4
  ScaLAPACK block size set to:           16
  Allocating        0.012 MB for ovlp
  Allocating        0.012 MB for ham
  Allocating        0.012 MB for eigenvec
  Required Scalapack workspace - INTEGER:            1  REAL:             1
  Partitioning the integration grid into batches with parallel hashing+maxmin method.
  | Number of batches:     1066
  | Maximal batch size:     197
  | Minimal batch size:      43
  | Average batch size:      86.229
  | Standard deviation of batch sizes:      20.322

  Integration load balanced across    24 MPI tasks.
  Work distribution over tasks is as follows:
  Task     0 has       3857 integration points.
  Task     1 has       3870 integration points.
  Task     2 has       3791 integration points.
  Task     3 has       3884 integration points.
  Task     4 has       3768 integration points.
  Task     5 has       3891 integration points.
  Task     6 has       3786 integration points.
  Task     7 has       3807 integration points.
  Task     8 has       3875 integration points.
  Task     9 has       3848 integration points.
  Task    10 has       3853 integration points.
  Task    11 has       3774 integration points.
  Task    12 has       3862 integration points.
  Task    13 has       3774 integration points.
  Task    14 has       3866 integration points.
  Task    15 has       3869 integration points.
  Task    16 has       3844 integration points.
  Task    17 has       3800 integration points.
  Task    18 has       3795 integration points.
  Task    19 has       3770 integration points.
  Task    20 has       3887 integration points.
  Task    21 has       3788 integration points.
  Task    22 has       3794 integration points.
  Task    23 has       3867 integration points.
  Initializing partition tables, free-atom densities, potentials, etc. across the integration grid (initialize_grid_storage).
  | initialize_grid_storage: Actual outermost partition radius vs. multipole_radius_free
  | (-- VB: in principle, multipole_radius_free should be larger, hence this output)
  | Species        1: Confinement radius =              4.999999999999999 AA, multipole_radius_free =              5.004487022111096 AA.
  | Species        1: outer_partition_radius set to              5.004487022111096 AA .
  | Species        2: Confinement radius =              4.999999999999999 AA, multipole_radius_free =              5.009370088163274 AA.
  | Species        2: outer_partition_radius set to              5.009370088163274 AA .
  | The sparse table of interatomic distances needs          1.64 kbyte instead of         1.15 kbyte of memory.
  | Using the partition_type stratmann_smoother will reduce your memory usage.
  | Net number of integration points:    91920
  | of which are non-zero points    :    84988
  Renormalizing the initial density to the exact electron count on the 3D integration grid.
  | Initial density: Formal number of electrons (from input files) :     120.0000000000
  | Integrated number of electrons on 3D grid     :     119.9999505786
  | Charge integration error                      :      -0.0000494214
  | Normalization factor for density and gradient :       1.0000004118
  Renormalizing the free-atom superposition density to the exact electron count on the 3D integration grid.
  | Formal number of electrons (from input files) :     120.0000000000
  | Integrated number of electrons on 3D grid     :     119.9999505786
  | Charge integration error                      :      -0.0000494214
  | Normalization factor for density and gradient :       1.0000004118
  Obtaining max. number of non-zero basis functions in each batch (get_n_compute_maxes).
  | Maximal number of non-zero basis functions:      172 in task     0
  | Maximal number of non-zero basis functions:      165 in task     1
  | Maximal number of non-zero basis functions:      166 in task     2
  | Maximal number of non-zero basis functions:      166 in task     3
  | Maximal number of non-zero basis functions:      170 in task     4
  | Maximal number of non-zero basis functions:      169 in task     5
  | Maximal number of non-zero basis functions:      165 in task     6
  | Maximal number of non-zero basis functions:      166 in task     7
  | Maximal number of non-zero basis functions:      172 in task     8
  | Maximal number of non-zero basis functions:      166 in task     9
  | Maximal number of non-zero basis functions:      170 in task    10
  | Maximal number of non-zero basis functions:      166 in task    11
  | Maximal number of non-zero basis functions:      173 in task    12
  | Maximal number of non-zero basis functions:      165 in task    13
  | Maximal number of non-zero basis functions:      165 in task    14
  | Maximal number of non-zero basis functions:      164 in task    15
  | Maximal number of non-zero basis functions:      166 in task    16
  | Maximal number of non-zero basis functions:      172 in task    17
  | Maximal number of non-zero basis functions:      170 in task    18
  | Maximal number of non-zero basis functions:      173 in task    19
  | Maximal number of non-zero basis functions:      170 in task    20
  | Maximal number of non-zero basis functions:      171 in task    21
  | Maximal number of non-zero basis functions:      167 in task    22
  | Maximal number of non-zero basis functions:      165 in task    23
  Selecting the method for density update.
  Loop over occupied states selected for charge density update.
  Allocating        0.132 MB for KS_eigenvector
  Integrating Hamiltonian matrix: batch-based integration.
  Time summed over all CPUs for integration: real work        0.764 s, elapsed        0.809 s
  Integrating overlap matrix.
  Time summed over all CPUs for integration: real work        0.293 s, elapsed        0.311 s
  Deallocating overlap matrix.

  Updating Kohn-Sham eigenvalues and eigenvectors using ELSI and the ELPA eigensolver.
  Overlap matrix is not singular
  | Lowest and highest eigenvalues :  0.2182E-02,  0.5790E+01
  Finished singularity check of overlap matrix
  | Time :     0.004 s
  Starting ELPA eigensolver
  Finished Cholesky decomposition
  | Time :     0.001 s
  Finished transformation to standard eigenproblem
  | Time :     0.001 s
  Finished solving standard eigenproblem
  | Time :     0.004 s
  Finished back-transformation of eigenvectors
  | Time :     0.000 s

  Obtaining occupation numbers and chemical potential using ELSI.
  | Chemical potential (Fermi level):    -7.48227562 eV
  Writing Kohn-Sham eigenvalues.

  State    Occupation    Eigenvalue [Ha]    Eigenvalue [eV]
      1       2.00000         -55.487042        -1509.87922
      2       2.00000         -55.487041        -1509.87922
      3       2.00000         -55.483747        -1509.78957
      4       2.00000         -24.363046         -662.95221
      5       2.00000         -24.363046         -662.95221
      6       2.00000         -24.354009         -662.70631
      7       2.00000         -24.352237         -662.65808
      8       2.00000         -24.349324         -662.57883
      9       2.00000         -24.341378         -662.36260
     10       2.00000         -24.341378         -662.36260
     11       2.00000         -24.340778         -662.34626
     12       2.00000         -24.340518         -662.33918
     13       2.00000          -3.952827         -107.56190
     14       2.00000          -3.952696         -107.55834
     15       2.00000          -3.948963         -107.45675
     16       2.00000          -2.547085          -69.30971
     17       2.00000          -2.545946          -69.27871
     18       2.00000          -2.544384          -69.23622
     19       2.00000          -2.544207          -69.23138
     20       2.00000          -2.543083          -69.20082
     21       2.00000          -2.542948          -69.19714
     22       2.00000          -2.541296          -69.15217
     23       2.00000          -2.540654          -69.13472
     24       2.00000          -2.540575          -69.13255
     25       2.00000          -1.194088          -32.49278
     26       2.00000          -1.183218          -32.19700
     27       2.00000          -1.175889          -31.99756
     28       2.00000          -1.169927          -31.83533
     29       2.00000          -1.158677          -31.52920
     30       2.00000          -1.150246          -31.29978
     31       2.00000          -1.150181          -31.29801
     32       2.00000          -1.149700          -31.28492
     33       2.00000          -1.147808          -31.23343
     34       2.00000          -0.568701          -15.47515
     35       2.00000          -0.551712          -15.01284
     36       2.00000          -0.548458          -14.92430
     37       2.00000          -0.529517          -14.40889
     38       2.00000          -0.520016          -14.15035
     39       2.00000          -0.510198          -13.88318
     40       2.00000          -0.508227          -13.82955
     41       2.00000          -0.503519          -13.70144
     42       2.00000          -0.498410          -13.56241
     43       2.00000          -0.497073          -13.52604
     44       2.00000          -0.488088          -13.28156
     45       2.00000          -0.481980          -13.11535
     46       2.00000          -0.480239          -13.06798
     47       2.00000          -0.474344          -12.90754
     48       2.00000          -0.472057          -12.84532
     49       2.00000          -0.468973          -12.76140
     50       2.00000          -0.466057          -12.68206
     51       2.00000          -0.460606          -12.53373
     52       2.00000          -0.453127          -12.33023
     53       2.00000          -0.452433          -12.31134
     54       2.00000          -0.452264          -12.30673
     55       2.00000          -0.452141          -12.30337
     56       2.00000          -0.451114          -12.27544
     57       2.00000          -0.448785          -12.21205
     58       2.00000          -0.447308          -12.17188
     59       2.00000          -0.446950          -12.16211
     60       2.00000          -0.441272          -12.00763
     61       0.00000          -0.139391           -3.79303
     62       0.00000          -0.079725           -2.16944
     63       0.00000          -0.077459           -2.10776
     64       0.00000          -0.028601           -0.77827
     65       0.00000          -0.015561           -0.42344
     66       0.00000           0.006900            0.18776
     67       0.00000           0.021611            0.58808
     68       0.00000           0.028586            0.77787
     69       0.00000           0.050895            1.38492
     70       0.00000           0.062371            1.69721
     71       0.00000           0.091380            2.48658
     72       0.00000           0.125973            3.42789
     73       0.00000           0.141367            3.84680
     74       0.00000           0.165998            4.51702
     75       0.00000           0.173263            4.71474
     76       0.00000           0.174555            4.74989
     77       0.00000           0.185654            5.05190
     78       0.00000           0.191847            5.22041
     79       0.00000           0.211261            5.74869
     80       0.00000           0.224126            6.09879
     81       0.00000           0.224529            6.10974
     82       0.00000           0.233551            6.35524
     83       0.00000           0.239516            6.51756
     84       0.00000           0.248417            6.75976
     85       0.00000           0.258399            7.03139
     86       0.00000           0.261723            7.12184
     87       0.00000           0.267698            7.28445
     88       0.00000           0.270243            7.35369
     89       0.00000           0.271156            7.37852
     90       0.00000           0.305179            8.30435
     91       0.00000           0.313027            8.51790
     92       0.00000           0.332348            9.04365
     93       0.00000           0.350736            9.54402
     94       0.00000           0.359468            9.78163
     95       0.00000           0.374892           10.20133
     96       0.00000           0.379720           10.33271

  Highest occupied state (VBM) at    -12.00762638 eV
  | Occupation number:      2.00000000

  Lowest unoccupied state (CBM) at    -3.79302578 eV
  | Occupation number:      0.00000000

  Overall HOMO-LUMO gap:      8.21460060 eV.
  Calculating total energy contributions from superposition of free atom densities.

  Total energy components:
  | Sum of eigenvalues            :        -887.80301567 Ha      -24158.34921958 eV
  | XC energy correction          :        -144.42347819 Ha       -3929.96279575 eV
  | XC potential correction       :         188.05230364 Ha        5117.16354039 eV
  | Free-atom electrostatic energy:        -781.17166109 Ha      -21256.76243033 eV
  | Hartree energy correction     :           0.00000000 Ha           0.00000000 eV
  | Entropy correction            :           0.00000000 Ha           0.00000000 eV
  | ---------------------------
  | Total energy                  :       -1625.34585130 Ha      -44227.91090527 eV
  | Total energy, T -> 0          :       -1625.34585130 Ha      -44227.91090527 eV  <-- do not rely on this value for anything but (periodic) metals
  | Electronic free energy        :       -1625.34585130 Ha      -44227.91090527 eV

  Derived energy quantities:
  | Kinetic energy                :        1627.81624047 Ha       44295.13361472 eV
  | Electrostatic energy          :       -3108.73861358 Ha      -84593.08172424 eV
  | Energy correction for multipole
  | error in Hartree potential    :           0.00000000 Ha           0.00000000 eV
  | Sum of eigenvalues per atom                           :       -2013.19576830 eV
  | Total energy (T->0) per atom                          :       -3685.65924211 eV  <-- do not rely on this value for anything but (periodic) metals
  | Electronic free energy per atom                       :       -3685.65924211 eV
  Initialize hartree_potential_storage
  Max. number of atoms included in rho_multipole:           12

  End scf initialization - timings             :  max(cpu_time)    wall_clock(cpu1)
  | Time for scf. initialization                :        0.121 s           0.121 s
  | Boundary condition initialization           :        0.000 s           0.000 s
  | Integration                                 :        0.048 s           0.048 s
  | Solution of K.-S. eqns.                     :        0.011 s           0.012 s
  | Grid partitioning                           :        0.038 s           0.039 s
  | Preloading free-atom quantities on grid     :        0.016 s           0.016 s
  | Free-atom superposition energy              :        0.005 s           0.005 s
  | Total energy evaluation                     :        0.000 s           0.000 s

  Partial memory accounting:
  | Current value for overall tracked memory usage:
  |   Minimum:        0.273 MB (on task 23)
  |   Maximum:        0.292 MB (on task  0)
  |   Average:        0.287 MB
  | Peak value for overall tracked memory usage:
  |   Minimum:        1.353 MB (on task 23 after allocating wave)
  |   Maximum:        1.428 MB (on task 12 after allocating wave)
  |   Average:        1.389 MB
  | Largest tracked array allocation so far:
  |   Minimum:        0.246 MB (H_times_psi on task 15)
  |   Maximum:        0.529 MB (all_coords on task 10)
  |   Average:        0.285 MB
  Note:  These values currently only include a subset of arrays which are explicitly tracked.
  The "true" memory usage will be greater.
------------------------------------------------------------
  Evaluating new KS density.
  Integration grid: deviation in total charge (<rho> - N_e) =  -1.421085E-14

  Time for density update prior                :  max(cpu_time)    wall_clock(cpu1)
  | self-consistency iterative process          :        0.030 s           0.030 s

------------------------------------------------------------
          Begin self-consistency iteration #    1

  Date     :  20220517, Time     :  121950.149
------------------------------------------------------------
  Pulay mixing of updated and previous charge densities.
  Renormalizing the density to the exact electron count on the 3D integration grid.
  | Formal number of electrons (from input files) :     120.0000000000
  | Integrated number of electrons on 3D grid     :     120.0000000000
  | Charge integration error                      :      -0.0000000000
  | Normalization factor for density and gradient :       1.0000000000

  Evaluating partitioned Hartree potential by multipole expansion.
  | Original multipole sum: apparent total charge =  -0.535739E-13
  | Sum of charges compensated after spline to logarithmic grids =   0.734960E-04
  | Analytical far-field extrapolation by fixed multipoles:
  | Hartree multipole sum: apparent total charge =  -0.538076E-13
  Summing up the Hartree potential.
  Time summed over all CPUs for potential: real work        0.382 s, elapsed        0.391 s
  | RMS charge density error from multipole expansion :   0.111246E-01

  Integrating Hamiltonian matrix: batch-based integration.
  Time summed over all CPUs for integration: real work        0.715 s, elapsed        0.755 s

  Updating Kohn-Sham eigenvalues and eigenvectors using ELSI and the ELPA eigensolver.
  Starting ELPA eigensolver
  Finished transformation to standard eigenproblem
  | Time :     0.000 s
  Finished solving standard eigenproblem
  | Time :     0.003 s
  Finished back-transformation of eigenvectors
  | Time :     0.001 s

  Obtaining occupation numbers and chemical potential using ELSI.
  | Chemical potential (Fermi level):    -7.55443252 eV
  Writing Kohn-Sham eigenvalues.

  State    Occupation    Eigenvalue [Ha]    Eigenvalue [eV]
      1       2.00000         -55.669412        -1514.84176
      2       2.00000         -55.669411        -1514.84175
      3       2.00000         -55.627981        -1513.71437
      4       2.00000         -24.249648         -659.86649
      5       2.00000         -24.227742         -659.27041
      6       2.00000         -24.223543         -659.15614
      7       2.00000         -24.223537         -659.15598
      8       2.00000         -24.184371         -658.09021
      9       2.00000         -24.076315         -655.14985
     10       2.00000         -24.076314         -655.14983
     11       2.00000         -24.056907         -654.62174
     12       2.00000         -24.053007         -654.51563
     13       2.00000          -4.107505         -111.77089
     14       2.00000          -4.107378         -111.76745
     15       2.00000          -4.067440         -110.68068
     16       2.00000          -2.701361          -73.50776
     17       2.00000          -2.700275          -73.47822
     18       2.00000          -2.700257          -73.47772
     19       2.00000          -2.700132          -73.47433
     20       2.00000          -2.699438          -73.45544
     21       2.00000          -2.699322          -73.45230
     22       2.00000          -2.661376          -72.41973
     23       2.00000          -2.660345          -72.39166
     24       2.00000          -2.658437          -72.33976
     25       2.00000          -1.172665          -31.90984
     26       2.00000          -1.147566          -31.22685
     27       2.00000          -1.144947          -31.15560
     28       2.00000          -1.139518          -31.00787
     29       2.00000          -1.106902          -30.12032
     30       2.00000          -1.022671          -27.82829
     31       2.00000          -1.022386          -27.82053
     32       2.00000          -1.006187          -27.37975
     33       2.00000          -1.000426          -27.22297
     34       2.00000          -0.570078          -15.51262
     35       2.00000          -0.537278          -14.62008
     36       2.00000          -0.531262          -14.45637
     37       2.00000          -0.506271          -13.77632
     38       2.00000          -0.501179          -13.63778
     39       2.00000          -0.486587          -13.24072
     40       2.00000          -0.481485          -13.10187
     41       2.00000          -0.468896          -12.75932
     42       2.00000          -0.458938          -12.48835
     43       2.00000          -0.438715          -11.93805
     44       2.00000          -0.436819          -11.88645
     45       2.00000          -0.428429          -11.65816
     46       2.00000          -0.427750          -11.63967
     47       2.00000          -0.414581          -11.28132
     48       2.00000          -0.392361          -10.67669
     49       2.00000          -0.390403          -10.62341
     50       2.00000          -0.380221          -10.34633
     51       2.00000          -0.377297          -10.26678
     52       2.00000          -0.351431           -9.56293
     53       2.00000          -0.334072           -9.09055
     54       2.00000          -0.333832           -9.08402
     55       2.00000          -0.330420           -8.99119
     56       2.00000          -0.327648           -8.91577
     57       2.00000          -0.319197           -8.68578
     58       2.00000          -0.316180           -8.60370
     59       2.00000          -0.307729           -8.37373
     60       2.00000          -0.304102           -8.27503
     61       0.00000          -0.154532           -4.20502
     62       0.00000          -0.090393           -2.45972
     63       0.00000          -0.080059           -2.17851
     64       0.00000          -0.052988           -1.44187
     65       0.00000          -0.039879           -1.08516
     66       0.00000          -0.015715           -0.42763
     67       0.00000           0.015375            0.41838
     68       0.00000           0.025112            0.68333
     69       0.00000           0.037081            1.00902
     70       0.00000           0.056176            1.52862
     71       0.00000           0.092824            2.52587
     72       0.00000           0.105208            2.86284
     73       0.00000           0.144474            3.93134
     74       0.00000           0.151836            4.13167
     75       0.00000           0.156483            4.25812
     76       0.00000           0.166241            4.52365
     77       0.00000           0.175344            4.77134
     78       0.00000           0.200561            5.45755
     79       0.00000           0.210308            5.72277
     80       0.00000           0.211881            5.76557
     81       0.00000           0.219772            5.98029
     82       0.00000           0.222272            6.04832
     83       0.00000           0.222932            6.06629
     84       0.00000           0.227488            6.19027
     85       0.00000           0.241658            6.57584
     86       0.00000           0.251414            6.84131
     87       0.00000           0.253205            6.89006
     88       0.00000           0.263515            7.17061
     89       0.00000           0.269350            7.32939
     90       0.00000           0.291529            7.93291
     91       0.00000           0.317175            8.63078
     92       0.00000           0.327375            8.90832
     93       0.00000           0.363093            9.88026
     94       0.00000           0.363567            9.89316
     95       0.00000           0.373572           10.16542
     96       0.00000           0.379199           10.31854

  Highest occupied state (VBM) at     -8.27502593 eV
  | Occupation number:      2.00000000

  Lowest unoccupied state (CBM) at    -4.20502237 eV
  | Occupation number:      0.00000000

  Overall HOMO-LUMO gap:      4.07000356 eV.

  Total energy components:
  | Sum of eigenvalues            :        -883.43576371 Ha      -24039.51024740 eV
  | XC energy correction          :        -145.68583909 Ha       -3964.31338381 eV
  | XC potential correction       :         189.71136697 Ha        5162.30895069 eV
  | Free-atom electrostatic energy:        -781.17166109 Ha      -21256.76243033 eV
  | Hartree energy correction     :          -4.55988225 Ha        -124.08070905 eV
  | Entropy correction            :           0.00000000 Ha           0.00000000 eV
  | ---------------------------
  | Total energy                  :       -1625.14177917 Ha      -44222.35781990 eV
  | Total energy, T -> 0          :       -1625.14177917 Ha      -44222.35781990 eV  <-- do not rely on this value for anything but (periodic) metals
  | Electronic free energy        :       -1625.14177917 Ha      -44222.35781990 eV

  Derived energy quantities:
  | Kinetic energy                :        1633.80206467 Ha       44458.01617872 eV
  | Electrostatic energy          :       -3113.25800474 Ha      -84716.06061481 eV
  | Energy correction for multipole
  | error in Hartree potential    :           0.03104460 Ha           0.84476664 eV
  | Sum of eigenvalues per atom                           :       -2003.29252062 eV
  | Total energy (T->0) per atom                          :       -3685.19648499 eV  <-- do not rely on this value for anything but (periodic) metals
  | Electronic free energy per atom                       :       -3685.19648499 eV
  Evaluating new KS density.
  Integration grid: deviation in total charge (<rho> - N_e) =  -1.421085E-14

  Self-consistency convergence accuracy:
  | Change of charge density      :  0.5842E+00
  | Change of sum of eigenvalues  :  0.1188E+03 eV
  | Change of total energy        :  0.5553E+01 eV


------------------------------------------------------------
  End self-consistency iteration #     1       :  max(cpu_time)    wall_clock(cpu1)
  | Time for this iteration                     :        0.085 s           0.085 s
  | Charge density update                       :        0.029 s           0.029 s
  | Density mixing                              :        0.001 s           0.000 s
  | Hartree multipole update                    :        0.001 s           0.002 s
  | Hartree multipole summation                 :        0.017 s           0.016 s
  | Integration                                 :        0.032 s           0.032 s
  | Solution of K.-S. eqns.                     :        0.004 s           0.004 s
  | Total energy evaluation                     :        0.000 s           0.001 s

  Partial memory accounting:
  | Current value for overall tracked memory usage:
  |   Minimum:        0.273 MB (on task 23)
  |   Maximum:        0.292 MB (on task  0)
  |   Average:        0.287 MB
  | Peak value for overall tracked memory usage:
  |   Minimum:        1.353 MB (on task 23 after allocating wave)
  |   Maximum:        1.428 MB (on task 12 after allocating wave)
  |   Average:        1.389 MB
  | Largest tracked array allocation so far:
  |   Minimum:        0.739 MB (gradient_basis_wave on task 15)
  |   Maximum:        0.780 MB (gradient_basis_wave on task 12)
  |   Average:        0.758 MB
  Note:  These values currently only include a subset of arrays which are explicitly tracked.
  The "true" memory usage will be greater.
------------------------------------------------------------

------------------------------------------------------------
          Begin self-consistency iteration #    2

  Date     :  20220517, Time     :  121950.239
------------------------------------------------------------
  Pulay mixing of updated and previous charge densities.
  Renormalizing the density to the exact electron count on the 3D integration grid.
  | Formal number of electrons (from input files) :     120.0000000000
  | Integrated number of electrons on 3D grid     :     120.0000000000
  | Charge integration error                      :      -0.0000000000
  | Normalization factor for density and gradient :       1.0000000000

  Evaluating partitioned Hartree potential by multipole expansion.
  | Original multipole sum: apparent total charge =  -0.100457E-12
  | Sum of charges compensated after spline to logarithmic grids =   0.335514E-04
  | Analytical far-field extrapolation by fixed multipoles:
  | Hartree multipole sum: apparent total charge =  -0.100408E-12
  Summing up the Hartree potential.
  Time summed over all CPUs for potential: real work        0.380 s, elapsed        0.389 s
  | RMS charge density error from multipole expansion :   0.128871E-01

  Integrating Hamiltonian matrix: batch-based integration.
  Time summed over all CPUs for integration: real work        0.716 s, elapsed        0.758 s

  Updating Kohn-Sham eigenvalues and eigenvectors using ELSI and the ELPA eigensolver.
  Starting ELPA eigensolver
  Finished transformation to standard eigenproblem
  | Time :     0.000 s
  Finished solving standard eigenproblem
  | Time :     0.003 s
  Finished back-transformation of eigenvectors
  | Time :     0.000 s

  Obtaining occupation numbers and chemical potential using ELSI.
  | Chemical potential (Fermi level):    -7.76520834 eV
  Highest occupied state (VBM) at     -9.33496612 eV
  | Occupation number:      2.00000000

  Lowest unoccupied state (CBM) at    -4.39461615 eV
  | Occupation number:      0.00000000

  Overall HOMO-LUMO gap:      4.94034997 eV.

  Checking to see if s.c.f. parameters should be adjusted.

  Total energy components:
  | Sum of eigenvalues            :        -886.20118893 Ha      -24114.76129632 eV
  | XC energy correction          :        -145.22685845 Ha       -3951.82388499 eV
  | XC potential correction       :         189.10752799 Ha        5145.87765604 eV
  | Free-atom electrostatic energy:        -781.17166109 Ha      -21256.76243033 eV
  | Hartree energy correction     :          -1.59281282 Ha         -43.34264206 eV
  | Entropy correction            :           0.00000000 Ha           0.00000000 eV
  | ---------------------------
  | Total energy                  :       -1625.08499329 Ha      -44220.81259767 eV
  | Total energy, T -> 0          :       -1625.08499329 Ha      -44220.81259767 eV  <-- do not rely on this value for anything but (periodic) metals
  | Electronic free energy        :       -1625.08499329 Ha      -44220.81259767 eV

  Derived energy quantities:
  | Kinetic energy                :        1630.11298649 Ha       44357.63125373 eV
  | Electrostatic energy          :       -3109.97112133 Ha      -84626.61996641 eV
  | Energy correction for multipole
  | error in Hartree potential    :           0.03495910 Ha           0.95128562 eV
  | Sum of eigenvalues per atom                           :       -2009.56344136 eV
  | Total energy (T->0) per atom                          :       -3685.06771647 eV  <-- do not rely on this value for anything but (periodic) metals
  | Electronic free energy per atom                       :       -3685.06771647 eV
  Evaluating new KS density.
  Integration grid: deviation in total charge (<rho> - N_e) =   7.105427E-14

  Self-consistency convergence accuracy:
  | Change of charge density      :  0.4487E+00
  | Change of sum of eigenvalues  : -0.7525E+02 eV
  | Change of total energy        :  0.1545E+01 eV


------------------------------------------------------------
  End self-consistency iteration #     2       :  max(cpu_time)    wall_clock(cpu1)
  | Time for this iteration                     :        0.088 s           0.086 s
  | Charge density update                       :        0.029 s           0.029 s
  | Density mixing                              :        0.005 s           0.003 s
  | Hartree multipole update                    :        0.001 s           0.001 s
  | Hartree multipole summation                 :        0.017 s           0.017 s
  | Integration                                 :        0.032 s           0.032 s
  | Solution of K.-S. eqns.                     :        0.004 s           0.004 s
  | Total energy evaluation                     :        0.000 s           0.000 s

  Partial memory accounting:
  | Current value for overall tracked memory usage:
  |   Minimum:        0.274 MB (on task 23)
  |   Maximum:        0.293 MB (on task  0)
  |   Average:        0.288 MB
  | Peak value for overall tracked memory usage:
  |   Minimum:        1.353 MB (on task 23 after allocating wave)
  |   Maximum:        1.428 MB (on task 12 after allocating wave)
  |   Average:        1.389 MB
  | Largest tracked array allocation so far:
  |   Minimum:        0.739 MB (gradient_basis_wave on task 15)
  |   Maximum:        0.780 MB (gradient_basis_wave on task 12)
  |   Average:        0.758 MB
  Note:  These values currently only include a subset of arrays which are explicitly tracked.
  The "true" memory usage will be greater.
------------------------------------------------------------

------------------------------------------------------------
          Begin self-consistency iteration #    3

  Date     :  20220517, Time     :  121950.331
------------------------------------------------------------
  Pulay mixing of updated and previous charge densities.
  Renormalizing the density to the exact electron count on the 3D integration grid.
  | Formal number of electrons (from input files) :     120.0000000000
  | Integrated number of electrons on 3D grid     :     120.0000000000
  | Charge integration error                      :       0.0000000000
  | Normalization factor for density and gradient :       1.0000000000

  Evaluating partitioned Hartree potential by multipole expansion.
  | Original multipole sum: apparent total charge =   0.284719E-13
  | Sum of charges compensated after spline to logarithmic grids =   0.384062E-04
  | Analytical far-field extrapolation by fixed multipoles:
  | Hartree multipole sum: apparent total charge =   0.268607E-13
  Summing up the Hartree potential.
  Time summed over all CPUs for potential: real work        0.380 s, elapsed        0.389 s
  | RMS charge density error from multipole expansion :   0.173132E-01

  Integrating Hamiltonian matrix: batch-based integration.
  Time summed over all CPUs for integration: real work        0.716 s, elapsed        0.758 s

  Updating Kohn-Sham eigenvalues and eigenvectors using ELSI and the ELPA eigensolver.
  Starting ELPA eigensolver
  Finished transformation to standard eigenproblem
  | Time :     0.000 s
  Finished solving standard eigenproblem
  | Time :     0.004 s
  Finished back-transformation of eigenvectors
  | Time :     0.000 s

  Obtaining occupation numbers and chemical potential using ELSI.
  | Chemical potential (Fermi level):    -7.76284529 eV
  Highest occupied state (VBM) at     -9.03344478 eV
  | Occupation number:      2.00000000

  Lowest unoccupied state (CBM) at    -4.59174164 eV
  | Occupation number:      0.00000000

  Overall HOMO-LUMO gap:      4.44170314 eV.

  Total energy components:
  | Sum of eigenvalues            :        -887.14408124 Ha      -24140.41870155 eV
  | XC energy correction          :        -145.19219277 Ha       -3950.88058377 eV
  | XC potential correction       :         189.06077782 Ha        5144.60551918 eV
  | Free-atom electrostatic energy:        -781.17166109 Ha      -21256.76243033 eV
  | Hartree energy correction     :          -0.63714852 Ha         -17.33769338 eV
  | Entropy correction            :           0.00000000 Ha           0.00000000 eV
  | ---------------------------
  | Total energy                  :       -1625.08430579 Ha      -44220.79388986 eV
  | Total energy, T -> 0          :       -1625.08430579 Ha      -44220.79388986 eV  <-- do not rely on this value for anything but (periodic) metals
  | Electronic free energy        :       -1625.08430579 Ha      -44220.79388986 eV

  Derived energy quantities:
  | Kinetic energy                :        1628.48823600 Ha       44313.41954360 eV
  | Electrostatic energy          :       -3108.38034903 Ha      -84583.33284968 eV
  | Energy correction for multipole
  | error in Hartree potential    :           0.04710239 Ha           1.28172126 eV
  | Sum of eigenvalues per atom                           :       -2011.70155846 eV
  | Total energy (T->0) per atom                          :       -3685.06615749 eV  <-- do not rely on this value for anything but (periodic) metals
  | Electronic free energy per atom                       :       -3685.06615749 eV
  Evaluating new KS density.
  Integration grid: deviation in total charge (<rho> - N_e) =   7.105427E-14

  Self-consistency convergence accuracy:
  | Change of charge density      :  0.1207E+00
  | Change of sum of eigenvalues  : -0.2566E+02 eV
  | Change of total energy        :  0.1871E-01 eV


------------------------------------------------------------
  End self-consistency iteration #     3       :  max(cpu_time)    wall_clock(cpu1)
  | Time for this iteration                     :        0.088 s           0.086 s
  | Charge density update                       :        0.029 s           0.030 s
  | Density mixing                              :        0.004 s           0.002 s
  | Hartree multipole update                    :        0.001 s           0.001 s
  | Hartree multipole summation                 :        0.016 s           0.017 s
  | Integration                                 :        0.032 s           0.032 s
  | Solution of K.-S. eqns.                     :        0.004 s           0.004 s
  | Total energy evaluation                     :        0.000 s           0.000 s

  Partial memory accounting:
  | Current value for overall tracked memory usage:
  |   Minimum:        0.274 MB (on task 23)
  |   Maximum:        0.293 MB (on task  0)
  |   Average:        0.288 MB
  | Peak value for overall tracked memory usage:
  |   Minimum:        1.353 MB (on task 23 after allocating wave)
  |   Maximum:        1.428 MB (on task 12 after allocating wave)
  |   Average:        1.389 MB
  | Largest tracked array allocation so far:
  |   Minimum:        0.739 MB (gradient_basis_wave on task 15)
  |   Maximum:        0.780 MB (gradient_basis_wave on task 12)
  |   Average:        0.758 MB
  Note:  These values currently only include a subset of arrays which are explicitly tracked.
  The "true" memory usage will be greater.
------------------------------------------------------------

------------------------------------------------------------
          Begin self-consistency iteration #    4

  Date     :  20220517, Time     :  121950.423
------------------------------------------------------------
  Pulay mixing of updated and previous charge densities.
  Renormalizing the density to the exact electron count on the 3D integration grid.
  | Formal number of electrons (from input files) :     120.0000000000
  | Integrated number of electrons on 3D grid     :     120.0000000000
  | Charge integration error                      :       0.0000000000
  | Normalization factor for density and gradient :       1.0000000000

  Evaluating partitioned Hartree potential by multipole expansion.
  | Original multipole sum: apparent total charge =  -0.267746E-13
  | Sum of charges compensated after spline to logarithmic grids =   0.402469E-04
  | Analytical far-field extrapolation by fixed multipoles:
  | Hartree multipole sum: apparent total charge =  -0.255325E-13
  Summing up the Hartree potential.
  Time summed over all CPUs for potential: real work        0.380 s, elapsed        0.389 s
  | RMS charge density error from multipole expansion :   0.194132E-01

  Integrating Hamiltonian matrix: batch-based integration.
  Time summed over all CPUs for integration: real work        0.716 s, elapsed        0.757 s

  Updating Kohn-Sham eigenvalues and eigenvectors using ELSI and the ELPA eigensolver.
  Starting ELPA eigensolver
  Finished transformation to standard eigenproblem
  | Time :     0.000 s
  Finished solving standard eigenproblem
  | Time :     0.003 s
  Finished back-transformation of eigenvectors
  | Time :     0.001 s

  Obtaining occupation numbers and chemical potential using ELSI.
  | Chemical potential (Fermi level):    -7.74013895 eV
  Highest occupied state (VBM) at     -9.05590260 eV
  | Occupation number:      2.00000000

  Lowest unoccupied state (CBM) at    -4.55778278 eV
  | Occupation number:      0.00000000

  Overall HOMO-LUMO gap:      4.49811983 eV.

  Total energy components:
  | Sum of eigenvalues            :        -887.26714113 Ha      -24143.76733150 eV
  | XC energy correction          :        -145.17739520 Ha       -3950.47792155 eV
  | XC potential correction       :         189.04065893 Ha        5144.05805641 eV
  | Free-atom electrostatic energy:        -781.17166109 Ha      -21256.76243033 eV
  | Hartree energy correction     :          -0.50675053 Ha         -13.78938352 eV
  | Entropy correction            :           0.00000000 Ha           0.00000000 eV
  | ---------------------------
  | Total energy                  :       -1625.08228901 Ha      -44220.73901050 eV
  | Total energy, T -> 0          :       -1625.08228901 Ha      -44220.73901050 eV  <-- do not rely on this value for anything but (periodic) metals
  | Electronic free energy        :       -1625.08228901 Ha      -44220.73901050 eV

  Derived energy quantities:
  | Kinetic energy                :        1627.82316852 Ha       44295.32213649 eV
  | Electrostatic energy          :       -3107.72806233 Ha      -84565.58322544 eV
  | Energy correction for multipole
  | error in Hartree potential    :           0.05225667 Ha           1.42197637 eV
  | Sum of eigenvalues per atom                           :       -2011.98061096 eV
  | Total energy (T->0) per atom                          :       -3685.06158421 eV  <-- do not rely on this value for anything but (periodic) metals
  | Electronic free energy per atom                       :       -3685.06158421 eV
  Evaluating new KS density.
  Integration grid: deviation in total charge (<rho> - N_e) =   7.105427E-14

  Self-consistency convergence accuracy:
  | Change of charge density      :  0.8068E-01
  | Change of sum of eigenvalues  : -0.3349E+01 eV
  | Change of total energy        :  0.5488E-01 eV


------------------------------------------------------------
  End self-consistency iteration #     4       :  max(cpu_time)    wall_clock(cpu1)
  | Time for this iteration                     :        0.088 s           0.085 s
  | Charge density update                       :        0.029 s           0.029 s
  | Density mixing                              :        0.004 s           0.002 s
  | Hartree multipole update                    :        0.001 s           0.001 s
  | Hartree multipole summation                 :        0.017 s           0.017 s
  | Integration                                 :        0.032 s           0.032 s
  | Solution of K.-S. eqns.                     :        0.004 s           0.004 s
  | Total energy evaluation                     :        0.000 s           0.000 s

  Partial memory accounting:
  | Current value for overall tracked memory usage:
  |   Minimum:        0.274 MB (on task 23)
  |   Maximum:        0.293 MB (on task  0)
  |   Average:        0.288 MB
  | Peak value for overall tracked memory usage:
  |   Minimum:        1.353 MB (on task 23 after allocating wave)
  |   Maximum:        1.428 MB (on task 12 after allocating wave)
  |   Average:        1.389 MB
  | Largest tracked array allocation so far:
  |   Minimum:        0.739 MB (gradient_basis_wave on task 15)
  |   Maximum:        0.780 MB (gradient_basis_wave on task 12)
  |   Average:        0.758 MB
  Note:  These values currently only include a subset of arrays which are explicitly tracked.
  The "true" memory usage will be greater.
------------------------------------------------------------

------------------------------------------------------------
          Begin self-consistency iteration #    5

  Date     :  20220517, Time     :  121950.514
------------------------------------------------------------
  Pulay mixing of updated and previous charge densities.
  Renormalizing the density to the exact electron count on the 3D integration grid.
  | Formal number of electrons (from input files) :     120.0000000000
  | Integrated number of electrons on 3D grid     :     120.0000000000
  | Charge integration error                      :       0.0000000000
  | Normalization factor for density and gradient :       1.0000000000

  Evaluating partitioned Hartree potential by multipole expansion.
  | Original multipole sum: apparent total charge =  -0.398114E-13
  | Sum of charges compensated after spline to logarithmic grids =   0.411379E-04
  | Analytical far-field extrapolation by fixed multipoles:
  | Hartree multipole sum: apparent total charge =  -0.384463E-13
  Summing up the Hartree potential.
  Time summed over all CPUs for potential: real work        0.380 s, elapsed        0.389 s
  | RMS charge density error from multipole expansion :   0.192533E-01

  Integrating Hamiltonian matrix: batch-based integration.
  Time summed over all CPUs for integration: real work        0.716 s, elapsed        0.757 s

  Updating Kohn-Sham eigenvalues and eigenvectors using ELSI and the ELPA eigensolver.
  Starting ELPA eigensolver
  Finished transformation to standard eigenproblem
  | Time :     0.001 s
  Finished solving standard eigenproblem
  | Time :     0.003 s
  Finished back-transformation of eigenvectors
  | Time :     0.000 s

  Obtaining occupation numbers and chemical potential using ELSI.
  | Chemical potential (Fermi level):    -7.73346906 eV
  Highest occupied state (VBM) at     -9.12242839 eV
  | Occupation number:      2.00000000

  Lowest unoccupied state (CBM) at    -4.50562362 eV
  | Occupation number:      0.00000000

  Overall HOMO-LUMO gap:      4.61680477 eV.

  Total energy components:
  | Sum of eigenvalues            :        -887.08707015 Ha      -24138.86735089 eV
  | XC energy correction          :        -145.17533369 Ha       -3950.42182492 eV
  | XC potential correction       :         189.03809872 Ha        5143.98838931 eV
  | Free-atom electrostatic energy:        -781.17166109 Ha      -21256.76243033 eV
  | Hartree energy correction     :          -0.68620738 Ha         -18.67265293 eV
  | Entropy correction            :           0.00000000 Ha           0.00000000 eV
[...]
   Total forces(   7)            :  0.716387E+00 -0.765464E+00 -0.112363E+01
  atom #    8
   Hellmann-Feynman              : -0.203209E+01 -0.180255E+01  0.215610E+01
   Ionic forces                  :  0.000000E+00  0.000000E+00  0.000000E+00
   Multipole                     : -0.481317E+00 -0.475928E+00  0.552196E+00
   Hartree pot. SCF incomplete   : -0.137625E-05 -0.823666E-06  0.142438E-05
   Pulay + GGA                   :  0.446936E+01  0.405395E+01 -0.481973E+01
   ----------------------------------------------------------------
   Total forces(   8)            :  0.195595E+01  0.177547E+01 -0.211143E+01
  atom #    9
   Hellmann-Feynman              :  0.221232E+01 -0.937800E+00 -0.249768E+01
   Ionic forces                  :  0.000000E+00  0.000000E+00  0.000000E+00
   Multipole                     :  0.573854E+00 -0.261373E+00 -0.605757E+00
   Hartree pot. SCF incomplete   :  0.139614E-05 -0.259503E-06 -0.161486E-05
   Pulay + GGA                   : -0.495821E+01  0.213592E+01  0.552130E+01
   ----------------------------------------------------------------
   Total forces(   9)            : -0.217204E+01  0.936743E+00  0.241786E+01
  atom #   10
   Hellmann-Feynman              :  0.890798E+00  0.341527E+00 -0.488558E+00
   Ionic forces                  :  0.000000E+00  0.000000E+00  0.000000E+00
   Multipole                     :  0.949323E-01  0.169793E+00 -0.880111E-01
   Hartree pot. SCF incomplete   :  0.340503E-05  0.577136E-05 -0.227868E-05
   Pulay + GGA                   : -0.186608E+01 -0.160188E+01  0.120644E+01
   ----------------------------------------------------------------
   Total forces(  10)            : -0.880345E+00 -0.109055E+01  0.629864E+00
  atom #   11
   Hellmann-Feynman              :  0.795212E+00  0.949864E+00  0.898445E+00
   Ionic forces                  :  0.000000E+00  0.000000E+00  0.000000E+00
   Multipole                     : -0.387486E+00  0.216924E+00 -0.312957E+00
   Hartree pot. SCF incomplete   : -0.407415E-05  0.120442E-05 -0.348710E-05
   Pulay + GGA                   :  0.126086E+01 -0.186645E+01  0.804784E+00
   ----------------------------------------------------------------
   Total forces(  11)            :  0.166858E+01 -0.699658E+00  0.139027E+01
  atom #   12
   Hellmann-Feynman              : -0.166088E+00  0.118381E+01  0.679134E-01
   Ionic forces                  :  0.000000E+00  0.000000E+00  0.000000E+00
   Multipole                     :  0.431731E+00  0.538125E-01  0.402921E+00
   Hartree pot. SCF incomplete   :  0.375478E-05  0.145637E-05  0.368837E-05
   Pulay + GGA                   : -0.199143E+01 -0.159450E+01 -0.210922E+01
   ----------------------------------------------------------------
   Total forces(  12)            : -0.172578E+01 -0.356876E+00 -0.163838E+01


  Self-consistency convergence accuracy:
  | Change of charge density      :  0.1389E-06
  | Change of sum of eigenvalues  : -0.5447E-07 eV
  | Change of total energy        :  0.2586E-08 eV
  | Change of forces              :  0.4661E-06 eV/A

  Writing Kohn-Sham eigenvalues.

  State    Occupation    Eigenvalue [Ha]    Eigenvalue [eV]
      1       2.00000         -55.654876        -1514.44624
      2       2.00000         -55.654876        -1514.44623
      3       2.00000         -55.603833        -1513.05727
      4       2.00000         -24.316859         -661.69540
      5       2.00000         -24.306972         -661.42637
      6       2.00000         -24.295353         -661.11019
      7       2.00000         -24.295349         -661.11007
      8       2.00000         -24.278315         -660.64656
      9       2.00000         -24.222449         -659.12637
     10       2.00000         -24.222446         -659.12629
     11       2.00000         -24.188525         -658.20326
     12       2.00000         -24.185347         -658.11678
     13       2.00000          -4.105922         -111.72781
     14       2.00000          -4.105796         -111.72440
     15       2.00000          -4.056684         -110.38800
     16       2.00000          -2.699420          -73.45496
     17       2.00000          -2.699303          -73.45178
     18       2.00000          -2.697426          -73.40071
     19       2.00000          -2.696718          -73.38144
     20       2.00000          -2.696252          -73.36875
     21       2.00000          -2.695756          -73.35524
     22       2.00000          -2.649941          -72.10858
     23       2.00000          -2.649461          -72.09551
     24       2.00000          -2.645051          -71.97550
     25       2.00000          -1.190185          -32.38659
     26       2.00000          -1.168183          -31.78786
     27       2.00000          -1.164245          -31.68072
     28       2.00000          -1.160179          -31.57008
     29       2.00000          -1.134317          -30.86633
     30       2.00000          -1.069315          -29.09753
     31       2.00000          -1.069056          -29.09048
     32       2.00000          -1.037688          -28.23693
     33       2.00000          -1.032398          -28.09298
     34       2.00000          -0.584753          -15.91195
     35       2.00000          -0.554042          -15.07626
     36       2.00000          -0.546046          -14.85868
     37       2.00000          -0.524126          -14.26219
     38       2.00000          -0.519434          -14.13453
     39       2.00000          -0.507125          -13.79956
     40       2.00000          -0.500853          -13.62891
     41       2.00000          -0.487834          -13.27465
     42       2.00000          -0.483220          -13.14909
     43       2.00000          -0.462019          -12.57217
     44       2.00000          -0.459180          -12.49492
     45       2.00000          -0.448661          -12.20869
     46       2.00000          -0.447867          -12.18707
     47       2.00000          -0.439547          -11.96068
     48       2.00000          -0.430263          -11.70806
     49       2.00000          -0.423145          -11.51435
     50       2.00000          -0.418352          -11.38395
     51       2.00000          -0.405129          -11.02413
     52       2.00000          -0.382327          -10.40364
     53       2.00000          -0.377232          -10.26499
     54       2.00000          -0.376799          -10.25322
     55       2.00000          -0.372654          -10.14043
     56       2.00000          -0.370367          -10.07821
     57       2.00000          -0.346886           -9.43925
     58       2.00000          -0.344783           -9.38202
     59       2.00000          -0.337473           -9.18311
     60       2.00000          -0.334414           -9.09986
     61       0.00000          -0.165587           -4.50587
     62       0.00000          -0.102834           -2.79826
     63       0.00000          -0.087716           -2.38686
     64       0.00000          -0.057893           -1.57535
     65       0.00000          -0.043454           -1.18244
     66       0.00000          -0.020772           -0.56523
     67       0.00000           0.015331            0.41718
     68       0.00000           0.022746            0.61894
     69       0.00000           0.031730            0.86343
     70       0.00000           0.055126            1.50005
     71       0.00000           0.088428            2.40624
     72       0.00000           0.101422            2.75984
     73       0.00000           0.137575            3.74360
     74       0.00000           0.147428            4.01171
     75       0.00000           0.155875            4.24157
     76       0.00000           0.158441            4.31139
     77       0.00000           0.172764            4.70116
     78       0.00000           0.197198            5.36604
     79       0.00000           0.207882            5.65676
     80       0.00000           0.208523            5.67420
     81       0.00000           0.216897            5.90208
     82       0.00000           0.217341            5.91415
     83       0.00000           0.219202            5.96479
     84       0.00000           0.222692            6.05976
     85       0.00000           0.236632            6.43907
     86       0.00000           0.244639            6.65696
     87       0.00000           0.249118            6.77885
     88       0.00000           0.255915            6.96380
     89       0.00000           0.263530            7.17101
     90       0.00000           0.290668            7.90948
     91       0.00000           0.304477            8.28523
     92       0.00000           0.326586            8.88684
     93       0.00000           0.358807            9.76363
     94       0.00000           0.359198            9.77428
     95       0.00000           0.366002            9.95942
     96       0.00000           0.372489           10.13593

  Highest occupied state (VBM) at     -9.09985742 eV
  | Occupation number:      2.00000000

  Lowest unoccupied state (CBM) at    -4.50586509 eV
  | Occupation number:      0.00000000

  Overall HOMO-LUMO gap:      4.59399233 eV.
  | Chemical Potential                          :    -7.73026843 eV

  Self-consistency cycle converged.


------------------------------------------------------------
  End self-consistency iteration #    14       :  max(cpu_time)    wall_clock(cpu1)
  | Time for this iteration                     :        0.278 s           0.277 s
  | Charge density & force component update     :        0.156 s           0.156 s
  | Density mixing                              :        0.005 s           0.003 s
  | Hartree multipole update                    :        0.001 s           0.001 s
  | Hartree multipole summation                 :        0.047 s           0.047 s
  | Hartree pot. SCF incomplete forces          :        0.031 s           0.031 s
  | Integration                                 :        0.032 s           0.032 s
  | Solution of K.-S. eqns.                     :        0.004 s           0.004 s
  | Total energy evaluation                     :        0.000 s           0.000 s

  Partial memory accounting:
  | Current value for overall tracked memory usage:
  |   Minimum:        0.274 MB (on task 23)
  |   Maximum:        0.293 MB (on task  0)
  |   Average:        0.289 MB
  | Peak value for overall tracked memory usage:
  |   Minimum:        3.020 MB (on task 15 after allocating hessian_basis_wave)
  |   Maximum:        3.164 MB (on task 12 after allocating hessian_basis_wave)
  |   Average:        3.085 MB
  | Largest tracked array allocation so far:
  |   Minimum:        1.479 MB (hessian_basis_wave on task 15)
  |   Maximum:        1.560 MB (hessian_basis_wave on task 12)
  |   Average:        1.516 MB
  Note:  These values currently only include a subset of arrays which are explicitly tracked.
  The "true" memory usage will be greater.
------------------------------------------------------------
  Removing unitary transformations (pure translations, rotations) from forces on atoms.
  Atomic forces before filtering:
  | Net force on center of mass :   0.538885E-02 -0.254466E-02 -0.487875E-03 eV/A
  | Net torque on center of mass:   0.790510E-02 -0.103988E-02 -0.153245E-01 eV
  Atomic forces after filtering:
  | Net force on center of mass :   0.713624E-15 -0.267609E-15  0.713624E-15 eV/A
  | Net torque on center of mass:   0.264344E-14  0.302107E-14  0.169935E-14 eV

  Energy and forces in a compact form:
  | Total energy uncorrected      :         -0.442207356384600E+05 eV
  | Total energy corrected        :         -0.442207356384600E+05 eV  <-- do not rely on this value for anything but (periodic) metals
  | Electronic free energy        :         -0.442207356384600E+05 eV
  Total atomic forces (unitary forces cleaned) [eV/Ang]:
  |    1         -0.637457438818922E+00          0.340774855081588E+01          0.490675323270410E-01
  |    2          0.228427941091328E+01         -0.860310991675034E+00         -0.234647864078250E+01
  |    3         -0.188825305610513E+01         -0.170923209079686E+01          0.223066436689558E+01
  |    4         -0.154341710654402E+01         -0.196588227877748E+01         -0.177171046952944E+01
  |    5          0.219245478367609E+01         -0.101310680396211E+01          0.181033802194924E+01
  |    6          0.314393957069895E-01          0.233959489294682E+01          0.462807410219837E+00
  |    7          0.715774717229616E+00         -0.765311546881637E+00         -0.112368273535934E+01
  |    8          0.195630008843136E+01          0.177549264811666E+01         -0.211087964171624E+01
  |    9         -0.217213612977388E+01          0.937196955926929E+00          0.241808587008568E+01
  |   10         -0.881209200800555E+00         -0.109015580093441E+01          0.629628426060428E+00
  |   11          0.166819852566145E+01         -0.699971428685580E+00          0.139041573188279E+01
  |   12         -0.172597398957628E+01         -0.356062106093166E+00         -0.163825587203308E+01

  ------------------------------------ 
  Start decomposition of the XC Energy 
  ------------------------------------ 
  X and C from original XC functional choice 
  Hartree-Fock Energy :          0.000000000 Ha              0.000000000 eV
  X Energy            :       -140.218733448 Ha          -3815.545869959 eV
  C Energy            :         -4.959856216 Ha           -134.964554546 eV
  Total XC Energy     :       -145.178589664 Ha          -3950.510424505 eV
  ------------------------------------ 
  LDA X and C from self-consistent density 
  X Energy LDA        :       -132.810382156 Ha          -3613.954374438 eV
  C Energy LDA        :         -8.829047939 Ha           -240.250618228 eV
  ------------------------------------ 
  End decomposition of the XC Energy 
  ------------------------------------ 

------------------------------------------------------------

------------------------------------------------------------------------------
  Final output of selected total energy values:

  The following output summarizes some interesting total energy values
  at the end of a run (AFTER all relaxation, molecular dynamics, etc.).

  | Total energy of the DFT / Hartree-Fock s.c.f. calculation      :         -44220.735638460 eV
  | Final zero-broadening corrected energy (caution - metals only) :         -44220.735638460 eV
  | For reference only, the value of 1 Hartree used in FHI-aims is :             27.211384500 eV

  Before relying on these values, please be sure to understand exactly which
  total energy value is referred to by a given number. Different objects may
  all carry the same name 'total energy'. Definitions:

  Total energy of the DFT / Hartree-Fock s.c.f. calculation:
  | Note that this energy does not include ANY quantities calculated after the
  | s.c.f. cycle, in particular not ANY RPA, MP2, etc. many-body perturbation terms.

  Final zero-broadening corrected energy:
  | For metallic systems only, a broadening of the occupation numbers at the Fermi
  | level can be extrapolated back to zero broadening by an electron-gas inspired
  | formula. For all systems that are not real metals, this value can be
  | meaningless and should be avoided.

------------------------------------------------------------------------------
  Methods described in the following list of references were used in this FHI-aims run.
  If you publish the results, please make sure to cite these reference if they apply.
  FHI-aims is an academic code, and for our developers (often, Ph.D. students
  and postdocs), scientific credit in the community is essential.
  Thank you for helping us!

  For any use of FHI-aims, please cite:

    Volker Blum, Ralf Gehrke, Felix Hanke, Paula Havu, Ville Havu,
    Xinguo Ren, Karsten Reuter, and Matthias Scheffler
    'Ab initio molecular simulations with numeric atom-centered orbitals'
    Computer Physics Communications 180, 2175-2196 (2009)
    http://dx.doi.org/10.1016/j.cpc.2009.06.022


  The ELSI infrastructure was used in your run to solve the Kohn-Sham electronic structure.
  Please check out http://elsi-interchange.org to learn more.
  If scalability is important for your project, please acknowledge ELSI by citing:

    V. W-z. Yu, F. Corsetti, A. Garcia, W. P. Huhn, M. Jacquelin, W. Jia,
    B. Lange, L. Lin, J. Lu, W. Mi, A. Seifitokaldani, A. Vazquez-Mayagoitia,
    C. Yang, H. Yang, and V. Blum
    'ELSI: A unified software interface for Kohn-Sham electronic structure solvers'
    Computer Physics Communications 222, 267-285 (2018).
    http://dx.doi.org/10.1016/j.cpc.2017.09.007


  For the real-space grid partitioning and parallelization used in this calculation, please cite:

    Ville Havu, Volker Blum, Paula Havu, and Matthias Scheffler,
    'Efficient O(N) integration for all-electron electronic structure calculation'
    'using numerically tabulated basis functions'
    Journal of Computational Physics 228, 8367-8379 (2009).
    http://dx.doi.org/10.1016/j.jcp.2009.08.008

  Of course, there are many other important community references, e.g., those cited in the
  above references. Our list is limited to references that describe implementations in the
  FHI-aims code. The reason is purely practical (length of this list) - please credit others as well.

------------------------------------------------------------
          Leaving FHI-aims.
          Date     :  20220517, Time     :  121951.829

          Computational steps:
          | Number of self-consistency cycles          :           14
          | Number of SCF (re)initializations          :            1

          Detailed time accounting                     :  max(cpu_time)    wall_clock(cpu1)
          | Total time                                  :        1.998 s           2.063 s
          | Preparation time                            :        0.184 s           0.184 s
          | Boundary condition initalization            :        0.000 s           0.000 s
          | Grid partitioning                           :        0.038 s           0.039 s
          | Preloading free-atom quantities on grid     :        0.016 s           0.016 s
          | Free-atom superposition energy              :        0.005 s           0.005 s
          | Total time for integrations                 :        0.496 s           0.495 s
          | Total time for solution of K.-S. equations  :        0.070 s           0.069 s
          | Total time for density & force components   :        0.692 s           0.694 s
          | Total time for mixing                       :        0.063 s           0.032 s
          | Total time for Hartree multipole update     :        0.018 s           0.020 s
          | Total time for Hartree multipole sum        :        0.293 s           0.293 s
          | Total time for total energy evaluation      :        0.002 s           0.001 s
          | Total time NSC force correction             :        0.062 s           0.062 s
          | Total time for scaled ZORA corrections      :        0.000 s           0.000 s

          Partial memory accounting:
          | Residual value for overall tracked memory usage across tasks:     0.000000 MB (should be 0.000000 MB)
          | Peak values for overall tracked memory usage:
          |   Minimum:        3.020 MB (on task 15 after allocating hessian_basis_wave)
          |   Maximum:        3.164 MB (on task 12 after allocating hessian_basis_wave)
          |   Average:        3.085 MB
          | Largest tracked array allocation:
          |   Minimum:        1.479 MB (hessian_basis_wave on task 15)
          |   Maximum:        1.560 MB (hessian_basis_wave on task 12)
          |   Average:        1.516 MB
          Note:  These values currently only include a subset of arrays which are explicitly tracked.
          The "true" memory usage will be greater.

          Have a nice day.
------------------------------------------------------------
