------------------------------------------------------------
          Invoking FHI-aims ...

          When using FHI-aims, please cite the following reference:

            Volker Blum, Ralf Gehrke, Felix Hanke, Paula Havu,
            Ville Havu, Xinguo Ren, Karsten Reuter, and Matthias Scheffler,
            'Ab Initio Molecular Simulations with Numeric Atom-Centered Orbitals',
            Computer Physics Communications 180, 2175-2196 (2009)

          In addition, many other developments in FHI-aims are likely important for
          your particular application. A partial list of references is given at the end of
          this file. Thank you for giving credit to the authors of these developments.

          For any questions about FHI-aims, please visit our slack channel at

            https://fhi-aims.slack.com

          and our main development and support site at

            https://aims-git.rz-berlin.mpg.de .

          The latter site, in particular, has a wiki to collect information, as well
          as an issue tracker to log discussions, suggest improvements, and report issues
          or bugs. https://aims-git.rz-berlin.mpg.de is also the main development site
          of the project and all new and updated code versions can be obtained there.
          Please send an email to aims-coordinators@fhi-berlin.mpg.de and we will add
          you to these sites. They are for you and everyone is welcome there.

------------------------------------------------------------



  Date     :  20220517, Time     :  115004.145
  Time zero on CPU 1             :   0.421330000000000E-01  s.
  Internal wall clock time zero  :           422020204.145  s.

  FHI-aims created a unique identifier for this run for later identification
  aims_uuid : 5F4BF397-63C5-4857-AC41-B928B5240518

  Build configuration of the current instance of FHI-aims
  -------------------------------------------------------
  FHI-aims version      : 210914
  Commit number         : GITDIR-NOTFOUND
  CMake host system     : Linux-3.10.0-693.17.1.el7.x86_64
  CMake version         : 3.21.1
  Fortran compiler      : /shared/ucl/apps/intel/2018.Update3/impi/2018.3.222/intel64/bin/mpiifort (Intel) version 18.0.3.20180410
  Fortran compiler flags: -O3 -ip -fp-model precise
  C compiler            : /shared/ucl/apps/intel/2018.Update3/compilers_and_libraries_2018.3.222/linux/bin/intel64/icc (Intel) version 18.0.3.20180410
  C compiler flags      : -O3 -ip -fp-model precise -std=gnu99
  ELPA2 kernel          : AVX2
  Using MPI
  Using ScaLAPACK
  Using LibXC
  Using i-PI
  Using RLSY
  Linking against: /shared/ucl/apps/intel/2019.Update5/compilers_and_libraries_2019.5.281/linux/mkl/lib/intel64/libmkl_intel_lp64.so
                   /shared/ucl/apps/intel/2019.Update5/compilers_and_libraries_2019.5.281/linux/mkl/lib/intel64/libmkl_sequential.so
                   /shared/ucl/apps/intel/2019.Update5/compilers_and_libraries_2019.5.281/linux/mkl/lib/intel64/libmkl_core.so
                   /shared/ucl/apps/intel/2019.Update5/compilers_and_libraries_2019.5.281/linux/mkl/lib/intel64/libmkl_blacs_intelmpi_lp64.so
                   /shared/ucl/apps/intel/2019.Update5/compilers_and_libraries_2019.5.281/linux/mkl/lib/intel64/libmkl_scalapack_lp64.so

  Using       24 parallel tasks.
  Task        0 on host node-k98a-025 reporting.
  Task        1 on host node-k98a-025 reporting.
  Task        2 on host node-k98a-025 reporting.
  Task        3 on host node-k98a-025 reporting.
  Task        4 on host node-k98a-025 reporting.
  Task        5 on host node-k98a-025 reporting.
  Task        6 on host node-k98a-025 reporting.
  Task        7 on host node-k98a-025 reporting.
  Task        8 on host node-k98a-025 reporting.
  Task        9 on host node-k98a-025 reporting.
  Task       10 on host node-k98a-025 reporting.
  Task       11 on host node-k98a-025 reporting.
  Task       12 on host node-k98a-025 reporting.
  Task       13 on host node-k98a-025 reporting.
  Task       14 on host node-k98a-025 reporting.
  Task       15 on host node-k98a-025 reporting.
  Task       16 on host node-k98a-025 reporting.
  Task       17 on host node-k98a-025 reporting.
  Task       18 on host node-k98a-025 reporting.
  Task       19 on host node-k98a-025 reporting.
  Task       20 on host node-k98a-025 reporting.
  Task       21 on host node-k98a-025 reporting.
  Task       22 on host node-k98a-025 reporting.
  Task       23 on host node-k98a-025 reporting.

  Performing system and environment tests:
  | Environment variable OMP_NUM_THREADS correctly set to 1.
  | Checking for ScaLAPACK...
  | Testing pdtran()...
  | All pdtran() tests passed.

  Obtaining array dimensions for all initial allocations:
  
  -----------------------------------------------------------------------
  Parsing control.in (first pass over file, find array dimensions only).
  The contents of control.in will be repeated verbatim below
  unless switched off by setting 'verbatim_writeout .false.' .
  in the first line of control.in .
  -----------------------------------------------------------------------
  
  #########################################################################################  Physical model
  #########################################################################################
  xc                 pbesol
  spin               none
  relativistic       atomic_zora scalar
  charge             0.0
  #  SCF convergence
  occupation_type    gaussian 0.01
  mixer              pulay
  n_max_pulay        10
  charge_mix_param   0.5
  sc_accuracy_rho    1E-5
  sc_accuracy_eev    1E-3
  sc_accuracy_etot   1E-6
  sc_accuracy_forces 1E-4
  sc_iter_limit      1500
  #  Relaxation
  #relax_geometry   bfgs 1.e-3
  
  ################################################################################
  #
  #  FHI-aims code project
  #  VB, Fritz-Haber Institut, 2009
  #
  #  Suggested "light" defaults for Al atom (to be pasted into control.in file)
  #  Be sure to double-check any results obtained with these settings for post-processing,
  #  e.g., with the "tight" defaults and larger basis sets.
  #
  ################################################################################
    species        Al
  #     global species definitions
      nucleus             13
      mass                26.9815386
  #
      l_hartree           4
  #
      cut_pot             3.5          1.5  1.0
      basis_dep_cutoff    1e-4
  #
      radial_base         41 5.0
      radial_multiplier   1
      angular_grids       specified
        division   0.6594  110
        division   0.8170  194
        division   0.9059  302
  #      division   1.0363  434
  #      division   1.1443  590
  #      division   1.2621  770
  #      division   2.8177  974
  #      outer_grid   974
        outer_grid   302
  ################################################################################
  #
  #  Definition of "minimal" basis
  #
  ################################################################################
  #     valence basis states
      valence      3  s   2.
      valence      3  p   1.
  #     ion occupancy
      ion_occ      3  s   1.
      ion_occ      2  p   6.
  ################################################################################
  #
  #  Suggested additional basis functions. For production calculations,
  #  uncomment them one after another (the most important basis functions are
  #  listed first).
  #
  #  Constructed for dimers: 2.0 A, 2.5 A, 3.0 A, 3.75 A, 4.5 A
  #
  ################################################################################
  #  "First tier" - improvements: -199.47 meV to -10.63 meV
       ionic 3 d auto
       ionic 3 p auto
  #     hydro 4 f 4.7
       ionic 3 s auto
  #  "Second tier" - improvements: -5.35 meV to -1.57 meV
  #     hydro 5 g 7
  #     hydro 3 d 6
  #     hydro 2 s 11.6
  #     hydro 2 p 0.9
  #  "Third tier" - improvements: -0.63 meV to -0.20 meV
  #     hydro 5 f 7.6
  #     hydro 4 p 7.2
  #     hydro 4 s 3.7
  #     hydro 4 d 7.6
  #  "Fourth tier" - improvements: -0.17 meV to -0.08 meV
  #     hydro 4 d 13.6
  #     hydro 5 g 11.2
  #     hydro 4 d 0.9
  #     hydro 1 s 0.4
  #     hydro 4 p 0.1
  #     hydro 5 f 9.8
  #  Further basis functions that fell out of the optimization - noise level...
  #     hydro 4 p 5
  
  ################################################################################
  #
  #  FHI-aims code project
  #  VB, Fritz-Haber Institut, 2009
  #
  #  Suggested "light" defaults for F atom (to be pasted into control.in file)
  #  Be sure to double-check any results obtained with these settings for post-processing,
  #  e.g., with the "tight" defaults and larger basis sets.
  #
  ################################################################################
    species        F
  #     global species definitions
      nucleus             9
      mass                18.9984032
  #
      l_hartree           4
  #
      cut_pot             3.5  1.5  1.0
      basis_dep_cutoff    1e-4
  #
      radial_base         37 5.0
      radial_multiplier   1
      angular_grids specified
        division   0.4014  110
        division   0.5291  194
        division   0.6019  302
  #      division   0.6814  434
  #      division   0.7989  590
  #      division   0.8965  770
  #      division   1.3427  974
  #      outer_grid   974
        outer_grid   302
  ################################################################################
  #
  #  Definition of "minimal" basis
  #
  ################################################################################
  #     valence basis states
      valence      2  s   2.
      valence      2  p   5.
  #     ion occupancy
      ion_occ      2  s   1.
      ion_occ      2  p   4.
  ################################################################################
  #
  #  Suggested additional basis functions. For production calculations,
  #  uncomment them one after another (the most important basis functions are
  #  listed first).
  #
  #  Constructed for dimers: 1.2 A, 1.418 A, 1.75 A, 2.25 A, 3.25 A
  #
  ################################################################################
  #  "First tier" - improvements: -149.44 meV to -45.88 meV
       hydro 2 p 1.7
       hydro 3 d 7.4
       hydro 3 s 6.8
  #  "Second tier" - improvements: -12.96 meV to -1.56 meV
  #     hydro 4 f 11.2
  #     ionic 2 p auto
  #     hydro 1 s 0.75
  #     hydro 4 d 8.8
  #     hydro 5 g 16.8
  #  "Third tier" - improvements: -0.58 meV to -0.05 meV
  #     hydro 3 p 6.2
  #     hydro 3 s 3.2
  #     hydro 4 f 9.6
  #     hydro 3 s 19.6
  #     hydro 4 d 8.6
  #     hydro 5 g 14.4
  # Further basis functions: -0.05 meV and below
  #     hydro 3 p 4.2
  
  -----------------------------------------------------------------------
  Completed first pass over input file control.in .
  -----------------------------------------------------------------------
  
  
  -----------------------------------------------------------------------
  Parsing geometry.in (first pass over file, find array dimensions only).
  The contents of geometry.in will be repeated verbatim below
  unless switched off by setting 'verbatim_writeout .false.' .
  in the first line of geometry.in .
  -----------------------------------------------------------------------
  
  atom -0.358235238 1.036274360 -1.728735736 Al
  atom -0.284337981 1.105212691 1.048520201 Al
  atom -3.083580903 0.444481478 -1.875292209 Al
  atom -3.558233655 0.307672336 -3.669888761 F
  atom -1.208571358 -0.405369304 -1.833875338 F
  atom -1.726999893 1.993445989 -1.879626761 F
  atom -1.980345777 0.728157055 0.497029909 F
  atom 0.329908416 1.213984697 -0.208736575 F
  atom -0.322867981 2.626751004 1.957374371 F
  atom 0.301513208 -0.262321671 2.012474158 F
  atom -4.335552167 0.199841526 -0.515500713 F
  atom 0.618510019 1.220881903 -3.117394444 F
  
  -----------------------------------------------------------------------
  Completed first pass over input file geometry.in .
  -----------------------------------------------------------------------
  

  Basic array size parameters:
  | Number of species                 :        2
  | Number of atoms                   :       12
  | Max. basis fn. angular momentum   :        2
  | Max. atomic/ionic basis occupied n:        3
  | Max. number of basis fn. types    :        3
  | Max. radial fns per species/type  :        5
  | Max. logarithmic grid size        :     1340
  | Max. radial integration grid size :       41
  | Max. angular integration grid size:      302
  | Max. angular grid division number :        8
  | Radial grid for Hartree potential :     1340
  | Number of spin channels           :        1

------------------------------------------------------------
          Reading file control.in.
------------------------------------------------------------
  XC: Using PBEsol gradient-corrected functionals.
  Spin treatment: No spin polarisation.
  Scalar relativistic treatment of kinetic energy: on-site free-atom approximation to ZORA.
  Charge =   0.000000E+00: Neutral system requested explicitly.
  Occupation type: Gaussian broadening, width =   0.100000E-01 eV.
  Using pulay charge density mixing.
  Pulay mixing - number of memorized iterations:   10
  Charge density mixing - mixing parameter:     0.5000
  Convergence accuracy of self-consistent charge density:  0.1000E-04
  Convergence accuracy of sum of eigenvalues:  0.1000E-02
  Convergence accuracy of total energy:  0.1000E-05
  Convergence accuracy of forces:  0.1000E-03
  Maximum number of s.-c. iterations  :  1500
 
  Reading configuration options for species Al                  .
  | Found nuclear charge :  13.0000
  | Found atomic mass :    26.9815386000000      amu
  | Found l_max for Hartree potential  :   4
  | Found cutoff potl. onset [A], width [A], scale factor :    3.50000    1.50000    1.00000
  | Threshold for basis-dependent cutoff potential is   0.100000E-03
  | Found data for basic radial integration grid :    41 points, outermost radius =    5.000 A
  | Found multiplier for basic radial grid :   1
  | Found angular grid specification: user-specified.
  | Specified grid contains     4 separate shells.
  | Check grid settings after all constraints further below.
  | Found free-atom valence shell :  3 s   2.000
  | Found free-atom valence shell :  3 p   1.000
  | Found free-ion valence shell :  3 s   1.000
  | Found free-ion valence shell :  2 p   6.000
  | Found ionic basis function :  3 d , default cutoff radius.
  | Found ionic basis function :  3 p , default cutoff radius.
  | Found ionic basis function :  3 s , default cutoff radius.
  Species Al                  : Missing cutoff potential type.
  Defaulting to exp(1/x)/(1-x)^2 type cutoff potential.
  Species Al: No 'logarithmic' tag. Using default grid for free atom:
  | Default logarithmic grid data [bohr] : 0.1000E-03 0.1000E+03 0.1012E+01
  | Will include ionic basis functions of  2.0-fold positive Al                   ion.
  Species Al: On-site basis accuracy parameter (for Gram-Schmidt orthonormalisation) not specified.
  Using default value basis_acc =  0.1000000E-03.
  Species Al                  : Using default innermost maximum threshold i_radial=  2 for radial functions.
  Species Al                  : Default cutoff onset for free atom density etc. : 0.35000000E+01 AA.
  Species Al                  : Basic radial grid will be enhanced according to radial_multiplier =   1, to contain    41 grid points.
 
  Reading configuration options for species F                   .
  | Found nuclear charge :   9.0000
  | Found atomic mass :    18.9984032000000      amu
  | Found l_max for Hartree potential  :   4
  | Found cutoff potl. onset [A], width [A], scale factor :    3.50000    1.50000    1.00000
  | Threshold for basis-dependent cutoff potential is   0.100000E-03
  | Found data for basic radial integration grid :    37 points, outermost radius =    5.000 A
  | Found multiplier for basic radial grid :   1
  | Found angular grid specification: user-specified.
  | Specified grid contains     4 separate shells.
  | Check grid settings after all constraints further below.
  | Found free-atom valence shell :  2 s   2.000
  | Found free-atom valence shell :  2 p   5.000
  | Found free-ion valence shell :  2 s   1.000
  | Found free-ion valence shell :  2 p   4.000
  | Found hydrogenic basis function :  2 p   1.700
  | Found hydrogenic basis function :  3 d   7.400
  | Found hydrogenic basis function :  3 s   6.800
  Species F                   : Missing cutoff potential type.
  Defaulting to exp(1/x)/(1-x)^2 type cutoff potential.
  Species F : No 'logarithmic' tag. Using default grid for free atom:
  | Default logarithmic grid data [bohr] : 0.1000E-03 0.1000E+03 0.1012E+01
  Species F : On-site basis accuracy parameter (for Gram-Schmidt orthonormalisation) not specified.
  Using default value basis_acc =  0.1000000E-03.
  Species F                   : Using default innermost maximum threshold i_radial=  2 for radial functions.
  Species F                   : Default cutoff onset for free atom density etc. : 0.35000000E+01 AA.
  Species F                   : Basic radial grid will be enhanced according to radial_multiplier =   1, to contain    37 grid points.
 
  Finished reading input file 'control.in'.
 
------------------------------------------------------------


------------------------------------------------------------
          Reading geometry description geometry.in.
------------------------------------------------------------
  | The smallest distance between any two atoms is         1.40350439 AA.
  | The first atom of this pair is atom number                      2 .
  | The second atom of this pair is atom number                     8 .
  Input structure read successfully.
  The structure contains       12 atoms,  and a total of        120.000 electrons.

  Input geometry:
  | No unit cell requested.
  | Atomic structure:
  |       Atom                x [A]            y [A]            z [A]
  |    1: Species Al           -0.35823524        1.03627436       -1.72873574
  |    2: Species Al           -0.28433798        1.10521269        1.04852020
  |    3: Species Al           -3.08358090        0.44448148       -1.87529221
  |    4: Species F            -3.55823365        0.30767234       -3.66988876
  |    5: Species F            -1.20857136       -0.40536930       -1.83387534
  |    6: Species F            -1.72699989        1.99344599       -1.87962676
  |    7: Species F            -1.98034578        0.72815706        0.49702991
  |    8: Species F             0.32990842        1.21398470       -0.20873658
  |    9: Species F            -0.32286798        2.62675100        1.95737437
  |   10: Species F             0.30151321       -0.26232167        2.01247416
  |   11: Species F            -4.33555217        0.19984153       -0.51550071
  |   12: Species F             0.61851002        1.22088190       -3.11739444

 
  Finished reading input file 'control.in'.
 

------------------------------------------------------------
          Reading geometry description geometry.in.
------------------------------------------------------------
 
  Consistency checks for stacksize environment parameter are next.
 
  | Maximum stacksize for task 0: unlimited
  | Maximum stacksize for task 1: unlimited
  | Maximum stacksize for task 2: unlimited
  | Maximum stacksize for task 3: unlimited
  | Maximum stacksize for task 4: unlimited
  | Maximum stacksize for task 5: unlimited
  | Maximum stacksize for task 6: unlimited
  | Maximum stacksize for task 7: unlimited
  | Maximum stacksize for task 8: unlimited
  | Maximum stacksize for task 9: unlimited
  | Maximum stacksize for task 10: unlimited
  | Maximum stacksize for task 11: unlimited
  | Maximum stacksize for task 12: unlimited
  | Maximum stacksize for task 13: unlimited
  | Maximum stacksize for task 14: unlimited
  | Maximum stacksize for task 15: unlimited
  | Maximum stacksize for task 16: unlimited
  | Maximum stacksize for task 17: unlimited
  | Maximum stacksize for task 18: unlimited
  | Maximum stacksize for task 19: unlimited
  | Maximum stacksize for task 20: unlimited
  | Maximum stacksize for task 21: unlimited
  | Maximum stacksize for task 22: unlimited
  | Maximum stacksize for task 23: unlimited
  | Current stacksize for task 0: unlimited
  | Current stacksize for task 1: unlimited
  | Current stacksize for task 2: unlimited
  | Current stacksize for task 3: unlimited
  | Current stacksize for task 4: unlimited
  | Current stacksize for task 5: unlimited
  | Current stacksize for task 6: unlimited
  | Current stacksize for task 7: unlimited
  | Current stacksize for task 8: unlimited
  | Current stacksize for task 9: unlimited
  | Current stacksize for task 10: unlimited
  | Current stacksize for task 11: unlimited
  | Current stacksize for task 12: unlimited
  | Current stacksize for task 13: unlimited
  | Current stacksize for task 14: unlimited
  | Current stacksize for task 15: unlimited
  | Current stacksize for task 16: unlimited
  | Current stacksize for task 17: unlimited
  | Current stacksize for task 18: unlimited
  | Current stacksize for task 19: unlimited
  | Current stacksize for task 20: unlimited
  | Current stacksize for task 21: unlimited
  | Current stacksize for task 22: unlimited
  | Current stacksize for task 23: unlimited
 
  Consistency checks for the contents of control.in are next.
 
  MPI_IN_PLACE appears to work with this MPI implementation.
  | Keeping use_mpi_in_place .true. (see manual).
  Target number of points in a grid batch is not set. Defaulting to  100
  Method for grid partitioning is not set. Defaulting to parallel hash+maxmin partitioning.
  Batch size limit is not set. Defaulting to    200
  By default, will store active basis functions for each batch.
  If in need of memory, prune_basis_once .false. can be used to disable this option.
  communication_type for Hartree potential was not specified.
  Defaulting to calc_hartree .
  Pulay mixer: Number of initial linear mixing iterations not set.
  Defaulting to    0 iterations.
  Work space size for distributed Hartree potential not set.
  Defaulting to   0.200000E+03 MB.
  Algorithm-dependent basis array size parameters:
  | n_max_pulay                         :       10
  Presetting      1001 iterations before the initial mixing cycle
  is restarted anyway using the sc_init_iter criterion / keyword.
  Presetting a factor      1.000 between actual scf density residual
  and density convergence criterion sc_accuracy_rho below which sc_init_iter
  takes no effect.
  Geometry relaxation not requested: no relaxation will be performed.
  Forces evaluation will include force correction term due to incomplete self-consistency (default).
  Handling of forces: Unphysical translation and rotation will be removed from forces.
  No accuracy limit for integral partition fn. given. Defaulting to  0.1000E-14.
  No threshold value for u(r) in integrations given. Defaulting to  0.1000E-05.
  No accuracy for occupation numbers given. Defaulting to  0.1000E-12.
  No threshold value for occupation numbers given. Defaulting to  0.0000E+00.
  No accuracy for fermi level given. Defaulting to  0.1000E-19.
  Maximum # of iterations to find E_F not set. Defaulting to  200.
  Preferred method for the eigenvalue solver ('KS_method') not specified in 'control.in'.
  Calling BLACS routine to test compilation state
  Since ScaLAPACK support is enabled, defaulting to ELPA (via ELSI).
  Will not use alltoall communication since running on < 1024 CPUs.
  Threshold for basis singularities not set.
  Default threshold for basis singularities:  0.1000E-04
  partition_type (choice of integration weights) for integrals was not specified.
  | Using a version of the partition function of Stratmann and coworkers ('stratmann_sparse').
  | At each grid point, the set of atoms used to build the partition table is smoothly restricted to
  | only those atoms whose free-atom density would be non-zero at that grid point.
  Partitioning for Hartree potential was not defined. Using partition_type for integrals.
  | Adjusted default value of keyword multip_moments_threshold to:       0.10000000E-11
  | This value may affect high angular momentum components of the Hartree potential in periodic systems.
  No q(lm)/r^(l+1) cutoff set for long-range Hartree potential.
  | Using default value of  0.100000E-09 .
  | Verify using the multipole_threshold keyword.
  Defaulting to new monopole extrapolation.
  Density update method: automatic selection selected.
  Charge integration errors on the 3D integration grid will be compensated
  by explicit normalization and distribution of residual charges.
  Use the "compensate_multipole_errors" flag to change this behaviour.
  Set 'collect_eigenvectors' to be '.true.' for use_density_matrix .false.
 
  Consistency checks for the contents of geometry.in are next.
 
  Number of empty states per atom not set in control.in - providing a guess from actual geometry.
  | Total number of empty states used during s.c.f. cycle:       36
  If you use a very high smearing, use empty_states (per atom!) in control.in to increase this value.

  Structure-dependent array size parameters: 
  | Maximum number of distinct radial functions  :       14
  | Maximum number of basis functions            :      180
  | Number of Kohn-Sham states (occupied + empty):       96
------------------------------------------------------------

------------------------------------------------------------
          Preparing all fixed parts of the calculation.
------------------------------------------------------------
  Determining machine precision:
    2.225073858507201E-308
  Setting up grids for atomic and cluster calculations.

  Creating wave function, potential, and density for free atoms.

  Species: Al

  List of occupied orbitals and eigenvalues:
    n    l              occ      energy [Ha]    energy [eV]
    1    0           2.0000       -55.621123     -1513.5278
    2    0           2.0000        -3.957030      -107.6763
    3    0           2.0000        -0.272233        -7.4078
    2    1           6.0000        -2.540949       -69.1427
    3    1           1.0000        -0.083300        -2.2667


  Species: F

  List of occupied orbitals and eigenvalues:
    n    l              occ      energy [Ha]    energy [eV]
    1    0           2.0000       -24.399611      -663.9472
    2    0           2.0000        -1.098702       -29.8972
    2    1           5.0000        -0.408210       -11.1080


  Adding cutoff potential to free-atom effective potential.
  Creating fixed part of basis set: Ionic, confined, hydrogenic.
 
  Al                   ion:

  List of free ionic orbitals and eigenvalues:
    n    l      energy [Ha]    energy [eV]
    1    0       -56.418846     -1535.2349
    2    0        -4.732717      -128.7838
    3    0        -0.872690       -23.7471
    2    1        -3.317230       -90.2664


  List of ionic basis orbitals and eigenvalues:
    n    l      energy [Ha]    energy [eV]    outer radius [A]
    3    2        -0.346815        -9.4373       4.594041
    3    1        -0.631870       -17.1940       4.538221
    3    0        -0.872657       -23.7462       4.538221

 
  F                    hydrogenic:
 
  List of hydrogenic basis orbitals: 
    n    l      effective z      eigenvalue [eV]  inner max. [A]     outer max. [A]     outer radius [A]   
    2    1         1.700000        -9.7616           1.243167           1.243167           4.598524
    3    2         7.400000       -82.7828           0.642437           0.642437           3.305741
    3    0         6.800000       -69.9026           0.057798           1.022307           3.781556
 
  Creating atomic-like basis functions for current effective potential.

  Species Al                  :

  List of atomic basis orbitals and eigenvalues:
    n    l      energy [Ha]    energy [eV]    outer radius [A]
    1    0       -55.621123     -1513.5278       0.850197
    2    0        -3.957030      -107.6763       3.144911
    3    0        -0.272233        -7.4078       4.594041
    2    1        -2.540949       -69.1427       3.731966
    3    1        -0.083300        -2.2667       4.594041


  Species F                   :

  List of atomic basis orbitals and eigenvalues:
    n    l      energy [Ha]    energy [eV]    outer radius [A]
    1    0       -24.399611      -663.9472       1.258458
    2    0        -1.098702       -29.8972       4.325857
    2    1        -0.408210       -11.1080       4.487453

  Assembling full basis from fixed parts.
  | Species Al :   atomic orbital   1 s accepted.
  | Species Al :   atomic orbital   2 s accepted.
  | Species Al :    ionic orbital   3 s accepted.
  | Species Al :   atomic orbital   3 s accepted.
  | Species Al :   atomic orbital   2 p accepted.
  | Species Al :    ionic orbital   3 p accepted.
  | Species Al :   atomic orbital   3 p accepted.
  | Species Al :    ionic orbital   3 d accepted.
  | Species F :   atomic orbital   1 s accepted.
  | Species F :    hydro orbital   3 s accepted.
  | Species F :   atomic orbital   2 s accepted.
  | Species F :   atomic orbital   2 p accepted.
  | Species F :    hydro orbital   2 p accepted.
  | Species F :    hydro orbital   3 d accepted.
 
  Basis size parameters after reduction:
  | Total number of radial functions:       14
  | Total number of basis functions :      180
 
  Per-task memory consumption for arrays in subroutine allocate_ext:
  |           4.807768MB.
  Testing on-site integration grid accuracy.
  |  Species  Function  <phi|h_atom|phi> (log., in eV)  <phi|h_atom|phi> (rad., in eV)
           1        1              -1513.5277717935              -1513.5271881332
           1        2               -107.6762691836               -107.6762662489
           1        3                 -6.9467474784                 -6.9471269649
           1        4                  5.5771951849                  5.4862107220 ***
           1        5                -69.1427313144                -69.1427312731
           1        6                 -1.5197375330                 -1.5230432022
           1        7                  6.8210948310                  6.5529872240 ***
           1        8                  4.3216540965                  4.2851170187 ***
           2        9               -663.9471986398               -663.9470363334
           2       10                 16.8514011578                 16.8512525338
           2       11                -28.4490593856                -28.4490661472
           2       12                -11.1080115307                -11.1080620173
           2       13                  7.1940182175                  7.1685154137
           2       14                 44.8544281765                 44.8543763625
 * Note: Onsite integrals marked "***" above are less accurate than
 * onsite_accuracy_threshold =    0.03000 eV. Usually, this is harmless.
 * When in doubt, tighten the "radial" and/or "radial_multiplier" flags to check.

  Preparing densities etc. for the partition functions (integrals / Hartree potential).

  Preparations completed.
  max(cpu_time)          :      0.184 s.
  Wall clock time (cpu1) :      0.183 s.
------------------------------------------------------------

------------------------------------------------------------
          Begin self-consistency loop: Initialization.

          Date     :  20220517, Time     :  115004.372
------------------------------------------------------------

  Initializing index lists of integration centers etc. from given atomic structure:
  | Number of centers in hartree potential         :        12
  | Number of centers in hartree multipole         :        12
  | Number of centers in electron density summation:        12
  | Number of centers in basis integrals           :        12
  | Number of centers in integrals                 :        12
  | Number of centers in hamiltonian               :        12
  * Using 24 tasks for Scalapack Eigenvalue solver.
  Detailed listing of tasks and assigned k-points:
  (for non-periodic systems, the "k-point" denotes an internal label only)
   Task     0 k-point     1 on node-k98a-025
   Task     1 k-point     1 on node-k98a-025
   Task     2 k-point     1 on node-k98a-025
   Task     3 k-point     1 on node-k98a-025
   Task     4 k-point     1 on node-k98a-025
   Task     5 k-point     1 on node-k98a-025
   Task     6 k-point     1 on node-k98a-025
   Task     7 k-point     1 on node-k98a-025
   Task     8 k-point     1 on node-k98a-025
   Task     9 k-point     1 on node-k98a-025
   Task    10 k-point     1 on node-k98a-025
   Task    11 k-point     1 on node-k98a-025
   Task    12 k-point     1 on node-k98a-025
   Task    13 k-point     1 on node-k98a-025
   Task    14 k-point     1 on node-k98a-025
   Task    15 k-point     1 on node-k98a-025
   Task    16 k-point     1 on node-k98a-025
   Task    17 k-point     1 on node-k98a-025
   Task    18 k-point     1 on node-k98a-025
   Task    19 k-point     1 on node-k98a-025
   Task    20 k-point     1 on node-k98a-025
   Task    21 k-point     1 on node-k98a-025
   Task    22 k-point     1 on node-k98a-025
   Task    23 k-point     1 on node-k98a-025
  Tasks:    24 split into      6 X      4 BLACS grid
  Calculating block size based on n_basis =          180  max_nprow =            6  max_npcol =            4
  ScaLAPACK block size set to:           16
  Allocating        0.012 MB for ovlp
  Allocating        0.012 MB for ham
  Allocating        0.012 MB for eigenvec
  Required Scalapack workspace - INTEGER:            1  REAL:             1
  Partitioning the integration grid into batches with parallel hashing+maxmin method.
  | Number of batches:     1026
  | Maximal batch size:     185
  | Minimal batch size:      20
  | Average batch size:      89.591
  | Standard deviation of batch sizes:      23.994

  Integration load balanced across    24 MPI tasks.
  Work distribution over tasks is as follows:
  Task     0 has       3854 integration points.
  Task     1 has       3905 integration points.
  Task     2 has       3895 integration points.
  Task     3 has       3886 integration points.
  Task     4 has       3769 integration points.
  Task     5 has       3775 integration points.
  Task     6 has       3850 integration points.
  Task     7 has       3828 integration points.
  Task     8 has       3772 integration points.
  Task     9 has       3916 integration points.
  Task    10 has       3846 integration points.
  Task    11 has       3844 integration points.
  Task    12 has       3742 integration points.
  Task    13 has       3759 integration points.
  Task    14 has       3840 integration points.
  Task    15 has       3887 integration points.
  Task    16 has       3796 integration points.
  Task    17 has       3750 integration points.
  Task    18 has       3881 integration points.
  Task    19 has       3857 integration points.
  Task    20 has       3834 integration points.
  Task    21 has       3845 integration points.
  Task    22 has       3834 integration points.
  Task    23 has       3755 integration points.
  Initializing partition tables, free-atom densities, potentials, etc. across the integration grid (initialize_grid_storage).
  | initialize_grid_storage: Actual outermost partition radius vs. multipole_radius_free
  | (-- VB: in principle, multipole_radius_free should be larger, hence this output)
  | Species        1: Confinement radius =              4.999999999999999 AA, multipole_radius_free =              5.004487022111096 AA.
  | Species        1: outer_partition_radius set to              5.004487022111096 AA .
  | Species        2: Confinement radius =              4.999999999999999 AA, multipole_radius_free =              5.009370088163274 AA.
  | Species        2: outer_partition_radius set to              5.009370088163274 AA .
  | The sparse table of interatomic distances needs          1.64 kbyte instead of         1.15 kbyte of memory.
  | Using the partition_type stratmann_smoother will reduce your memory usage.
  | Net number of integration points:    91920
  | of which are non-zero points    :    85235
  Renormalizing the initial density to the exact electron count on the 3D integration grid.
  | Initial density: Formal number of electrons (from input files) :     120.0000000000
  | Integrated number of electrons on 3D grid     :     119.9999469541
  | Charge integration error                      :      -0.0000530459
  | Normalization factor for density and gradient :       1.0000004420
  Renormalizing the free-atom superposition density to the exact electron count on the 3D integration grid.
  | Formal number of electrons (from input files) :     120.0000000000
  | Integrated number of electrons on 3D grid     :     119.9999469541
  | Charge integration error                      :      -0.0000530459
  | Normalization factor for density and gradient :       1.0000004420
  Obtaining max. number of non-zero basis functions in each batch (get_n_compute_maxes).
  | Maximal number of non-zero basis functions:      159 in task     0
  | Maximal number of non-zero basis functions:      171 in task     1
  | Maximal number of non-zero basis functions:      170 in task     2
  | Maximal number of non-zero basis functions:      164 in task     3
  | Maximal number of non-zero basis functions:      163 in task     4
  | Maximal number of non-zero basis functions:      163 in task     5
  | Maximal number of non-zero basis functions:      164 in task     6
  | Maximal number of non-zero basis functions:      164 in task     7
  | Maximal number of non-zero basis functions:      165 in task     8
  | Maximal number of non-zero basis functions:      172 in task     9
  | Maximal number of non-zero basis functions:      165 in task    10
  | Maximal number of non-zero basis functions:      170 in task    11
  | Maximal number of non-zero basis functions:      163 in task    12
  | Maximal number of non-zero basis functions:      165 in task    13
  | Maximal number of non-zero basis functions:      159 in task    14
  | Maximal number of non-zero basis functions:      165 in task    15
  | Maximal number of non-zero basis functions:      162 in task    16
  | Maximal number of non-zero basis functions:      173 in task    17
  | Maximal number of non-zero basis functions:      170 in task    18
  | Maximal number of non-zero basis functions:      166 in task    19
  | Maximal number of non-zero basis functions:      165 in task    20
  | Maximal number of non-zero basis functions:      171 in task    21
  | Maximal number of non-zero basis functions:      171 in task    22
  | Maximal number of non-zero basis functions:      164 in task    23
  Selecting the method for density update.
  Loop over occupied states selected for charge density update.
  Allocating        0.132 MB for KS_eigenvector
  Integrating Hamiltonian matrix: batch-based integration.
  Time summed over all CPUs for integration: real work        0.722 s, elapsed        0.813 s
  Integrating overlap matrix.
  Time summed over all CPUs for integration: real work        0.279 s, elapsed        0.294 s
  Deallocating overlap matrix.

  Updating Kohn-Sham eigenvalues and eigenvectors using ELSI and the ELPA eigensolver.
  Overlap matrix is not singular
  | Lowest and highest eigenvalues :  0.1793E-02,  0.5443E+01
  Finished singularity check of overlap matrix
  | Time :     0.030 s
  Starting ELPA eigensolver
  Finished Cholesky decomposition
  | Time :     0.007 s
  Finished transformation to standard eigenproblem
  | Time :     0.004 s
  Finished solving standard eigenproblem
  | Time :     0.008 s
  Finished back-transformation of eigenvectors
  | Time :     0.002 s

  Obtaining occupation numbers and chemical potential using ELSI.
  | Chemical potential (Fermi level):    -7.68169915 eV
  Writing Kohn-Sham eigenvalues.

  State    Occupation    Eigenvalue [Ha]    Eigenvalue [eV]
      1       2.00000         -55.493316        -1510.04997
      2       2.00000         -55.490907        -1509.98440
      3       2.00000         -55.482447        -1509.75420
      4       2.00000         -24.492443         -666.47329
      5       2.00000         -24.379393         -663.39702
      6       2.00000         -24.379392         -663.39702
      7       2.00000         -24.355474         -662.74616
      8       2.00000         -24.345995         -662.48824
      9       2.00000         -24.345995         -662.48824
     10       2.00000         -24.344384         -662.44440
     11       2.00000         -24.335597         -662.20528
     12       2.00000         -24.335305         -662.19733
     13       2.00000          -3.964925         -107.89110
     14       2.00000          -3.959975         -107.75640
     15       2.00000          -3.946620         -107.39301
     16       2.00000          -2.567198          -69.85703
     17       2.00000          -2.553561          -69.48593
     18       2.00000          -2.553434          -69.48247
     19       2.00000          -2.552979          -69.47009
     20       2.00000          -2.552688          -69.46218
     21       2.00000          -2.551186          -69.42129
     22       2.00000          -2.539185          -69.09473
     23       2.00000          -2.538643          -69.07999
     24       2.00000          -2.537180          -69.04017
     25       2.00000          -1.333022          -36.27338
     26       2.00000          -1.215635          -33.07912
     27       2.00000          -1.197683          -32.59060
     28       2.00000          -1.169423          -31.82162
     29       2.00000          -1.160913          -31.59005
     30       2.00000          -1.154999          -31.42913
     31       2.00000          -1.154743          -31.42217
     32       2.00000          -1.142664          -31.09346
     33       2.00000          -1.140399          -31.03184
     34       2.00000          -0.691074          -18.80507
     35       2.00000          -0.628354          -17.09838
     36       2.00000          -0.614299          -16.71592
     37       2.00000          -0.565626          -15.39146
     38       2.00000          -0.555583          -15.11819
     39       2.00000          -0.537359          -14.62229
     40       2.00000          -0.522873          -14.22809
     41       2.00000          -0.517771          -14.08926
     42       2.00000          -0.504986          -13.74137
     43       2.00000          -0.497085          -13.52637
     44       2.00000          -0.495100          -13.47235
     45       2.00000          -0.490973          -13.36007
     46       2.00000          -0.490728          -13.35339
     47       2.00000          -0.489647          -13.32397
     48       2.00000          -0.476421          -12.96408
     49       2.00000          -0.467339          -12.71695
     50       2.00000          -0.466719          -12.70007
     51       2.00000          -0.463660          -12.61683
     52       2.00000          -0.462594          -12.58783
     53       2.00000          -0.461270          -12.55179
     54       2.00000          -0.452564          -12.31489
     55       2.00000          -0.452511          -12.31346
     56       2.00000          -0.448981          -12.21738
     57       2.00000          -0.446809          -12.15829
     58       2.00000          -0.446056          -12.13781
     59       2.00000          -0.443926          -12.07985
     60       2.00000          -0.439502          -11.95945
     61       0.00000          -0.144231           -3.92474
     62       0.00000          -0.081689           -2.22288
     63       0.00000          -0.041561           -1.13094
     64       0.00000          -0.040016           -1.08889
     65       0.00000           0.005178            0.14089
     66       0.00000           0.008494            0.23112
     67       0.00000           0.018816            0.51200
     68       0.00000           0.034678            0.94363
     69       0.00000           0.050447            1.37273
     70       0.00000           0.053824            1.46464
     71       0.00000           0.099938            2.71946
     72       0.00000           0.119551            3.25315
     73       0.00000           0.152561            4.15139
     74       0.00000           0.167075            4.54634
     75       0.00000           0.173746            4.72788
     76       0.00000           0.175311            4.77045
     77       0.00000           0.179536            4.88544
     78       0.00000           0.184037            5.00791
     79       0.00000           0.193925            5.27697
     80       0.00000           0.204291            5.55904
     81       0.00000           0.216860            5.90107
     82       0.00000           0.229075            6.23345
     83       0.00000           0.235182            6.39964
     84       0.00000           0.241596            6.57417
     85       0.00000           0.250326            6.81172
     86       0.00000           0.254460            6.92422
     87       0.00000           0.257359            7.00310
     88       0.00000           0.280530            7.63361
     89       0.00000           0.294488            8.01343
     90       0.00000           0.314342            8.55369
     91       0.00000           0.324052            8.81792
     92       0.00000           0.328614            8.94205
     93       0.00000           0.336113            9.14611
     94       0.00000           0.359562            9.78419
     95       0.00000           0.367400            9.99746
     96       0.00000           0.372379           10.13294

  Highest occupied state (VBM) at    -11.95944544 eV
  | Occupation number:      2.00000000

  Lowest unoccupied state (CBM) at    -3.92473714 eV
  | Occupation number:      0.00000000

  Overall HOMO-LUMO gap:      8.03470830 eV.
  Calculating total energy contributions from superposition of free atom densities.

  Total energy components:
  | Sum of eigenvalues            :        -889.59502514 Ha      -24207.11227826 eV
  | XC energy correction          :        -144.51556063 Ha       -3932.46848656 eV
  | XC potential correction       :         188.17924335 Ha        5120.61774578 eV
  | Free-atom electrostatic energy:        -779.34645211 Ha      -21207.09596713 eV
  | Hartree energy correction     :           0.00000000 Ha           0.00000000 eV
  | Entropy correction            :           0.00000000 Ha           0.00000000 eV
  | ---------------------------
  | Total energy                  :       -1625.27779453 Ha      -44226.05898618 eV
  | Total energy, T -> 0          :       -1625.27779453 Ha      -44226.05898618 eV  <-- do not rely on this value for anything but (periodic) metals
  | Electronic free energy        :       -1625.27779453 Ha      -44226.05898618 eV

  Derived energy quantities:
  | Kinetic energy                :        1628.19252975 Ha       44305.37296715 eV
  | Electrostatic energy          :       -3108.95476365 Ha      -84598.96346677 eV
  | Energy correction for multipole
  | error in Hartree potential    :           0.00000000 Ha           0.00000000 eV
  | Sum of eigenvalues per atom                           :       -2017.25935652 eV
  | Total energy (T->0) per atom                          :       -3685.50491551 eV  <-- do not rely on this value for anything but (periodic) metals
  | Electronic free energy per atom                       :       -3685.50491551 eV
  Initialize hartree_potential_storage
  Max. number of atoms included in rho_multipole:           12

  End scf initialization - timings             :  max(cpu_time)    wall_clock(cpu1)
  | Time for scf. initialization                :        0.206 s           0.207 s
  | Boundary condition initialization           :        0.000 s           0.001 s
  | Integration                                 :        0.055 s           0.055 s
  | Solution of K.-S. eqns.                     :        0.059 s           0.059 s
  | Grid partitioning                           :        0.047 s           0.047 s
  | Preloading free-atom quantities on grid     :        0.017 s           0.018 s
  | Free-atom superposition energy              :        0.007 s           0.007 s
  | Total energy evaluation                     :        0.000 s           0.000 s

  Partial memory accounting:
  | Current value for overall tracked memory usage:
  |   Minimum:        0.273 MB (on task 23)
  |   Maximum:        0.292 MB (on task  0)
  |   Average:        0.287 MB
  | Peak value for overall tracked memory usage:
  |   Minimum:        1.286 MB (on task  0 after allocating wave)
  |   Maximum:        1.381 MB (on task 17 after allocating wave)
  |   Average:        1.329 MB
  | Largest tracked array allocation so far:
  |   Minimum:        0.224 MB (H_times_psi on task  0)
  |   Maximum:        0.503 MB (all_coords on task 10)
  |   Average:        0.263 MB
  Note:  These values currently only include a subset of arrays which are explicitly tracked.
  The "true" memory usage will be greater.
------------------------------------------------------------
  Evaluating new KS density.
  Integration grid: deviation in total charge (<rho> - N_e) =   4.263256E-14

  Time for density update prior                :  max(cpu_time)    wall_clock(cpu1)
  | self-consistency iterative process          :        0.030 s           0.030 s

------------------------------------------------------------
          Begin self-consistency iteration #    1

  Date     :  20220517, Time     :  115004.611
------------------------------------------------------------
  Pulay mixing of updated and previous charge densities.
  Renormalizing the density to the exact electron count on the 3D integration grid.
  | Formal number of electrons (from input files) :     120.0000000000
  | Integrated number of electrons on 3D grid     :     120.0000000000
  | Charge integration error                      :       0.0000000000
  | Normalization factor for density and gradient :       1.0000000000

  Evaluating partitioned Hartree potential by multipole expansion.
  | Original multipole sum: apparent total charge =   0.346828E-14
  | Sum of charges compensated after spline to logarithmic grids =   0.116572E-03
  | Analytical far-field extrapolation by fixed multipoles:
  | Hartree multipole sum: apparent total charge =   0.403403E-14
  Summing up the Hartree potential.
  Time summed over all CPUs for potential: real work        0.382 s, elapsed        0.393 s
  | RMS charge density error from multipole expansion :   0.116752E-01

  Integrating Hamiltonian matrix: batch-based integration.
  Time summed over all CPUs for integration: real work        0.677 s, elapsed        0.766 s

  Updating Kohn-Sham eigenvalues and eigenvectors using ELSI and the ELPA eigensolver.
  Starting ELPA eigensolver
  Finished transformation to standard eigenproblem
  | Time :     0.005 s
  Finished solving standard eigenproblem
  | Time :     0.015 s
  Finished back-transformation of eigenvectors
  | Time :     0.003 s

  Obtaining occupation numbers and chemical potential using ELSI.
  | Chemical potential (Fermi level):    -7.56834872 eV
  Writing Kohn-Sham eigenvalues.

  State    Occupation    Eigenvalue [Ha]    Eigenvalue [eV]
      1       2.00000         -55.678507        -1515.08926
      2       2.00000         -55.631738        -1513.81661
      3       2.00000         -55.566491        -1512.04116
      4       2.00000         -24.317129         -661.70274
      5       2.00000         -24.243778         -659.70676
      6       2.00000         -24.243773         -659.70664
      7       2.00000         -24.115536         -656.21712
      8       2.00000         -24.095474         -655.67122
      9       2.00000         -24.074487         -655.10012
     10       2.00000         -24.063221         -654.79355
     11       2.00000         -24.051337         -654.47017
     12       2.00000         -24.051321         -654.46975
     13       2.00000          -4.111148         -111.87004
     14       2.00000          -4.083985         -111.13089
     15       2.00000          -4.027326         -109.58912
     16       2.00000          -2.705289          -73.61467
     17       2.00000          -2.704467          -73.59230
     18       2.00000          -2.702044          -73.52635
     19       2.00000          -2.678096          -72.87470
     20       2.00000          -2.676169          -72.82227
     21       2.00000          -2.675484          -72.80364
     22       2.00000          -2.627547          -71.49920
     23       2.00000          -2.616722          -71.20463
     24       2.00000          -2.615787          -71.17918
     25       2.00000          -1.301930          -35.42733
     26       2.00000          -1.189946          -32.38008
     27       2.00000          -1.167349          -31.76518
     28       2.00000          -1.052381          -28.63675
     29       2.00000          -1.050979          -28.59859
     30       2.00000          -1.017707          -27.69323
     31       2.00000          -1.005881          -27.37141
     32       2.00000          -1.004981          -27.34694
     33       2.00000          -0.999490          -27.19752
     34       2.00000          -0.672119          -18.28930
     35       2.00000          -0.602556          -16.39638
     36       2.00000          -0.587839          -15.99592
     37       2.00000          -0.547648          -14.90226
     38       2.00000          -0.542704          -14.76772
     39       2.00000          -0.517867          -14.09189
     40       2.00000          -0.488541          -13.29388
     41       2.00000          -0.462107          -12.57458
     42       2.00000          -0.456410          -12.41954
     43       2.00000          -0.424806          -11.55955
     44       2.00000          -0.407810          -11.09708
     45       2.00000          -0.398676          -10.84852
     46       2.00000          -0.373285          -10.15760
     47       2.00000          -0.365681           -9.95069
     48       2.00000          -0.364899           -9.92941
     49       2.00000          -0.358523           -9.75590
     50       2.00000          -0.355424           -9.67157
     51       2.00000          -0.355112           -9.66309
     52       2.00000          -0.341387           -9.28962
     53       2.00000          -0.331399           -9.01782
     54       2.00000          -0.329425           -8.96411
     55       2.00000          -0.320761           -8.72835
     56       2.00000          -0.317238           -8.63248
     57       2.00000          -0.315703           -8.59073
     58       2.00000          -0.305706           -8.31868
     59       2.00000          -0.304755           -8.29281
     60       2.00000          -0.298696           -8.12794
     61       0.00000          -0.156826           -4.26746
     62       0.00000          -0.085462           -2.32555
     63       0.00000          -0.070792           -1.92634
     64       0.00000          -0.021198           -0.57682
     65       0.00000          -0.009909           -0.26962
     66       0.00000          -0.004440           -0.12081
     67       0.00000           0.017577            0.47828
     68       0.00000           0.044663            1.21534
     69       0.00000           0.054422            1.48090
     70       0.00000           0.063432            1.72606
     71       0.00000           0.089276            2.42933
     72       0.00000           0.112484            3.06083
     73       0.00000           0.132888            3.61607
     74       0.00000           0.162498            4.42180
     75       0.00000           0.171106            4.65602
     76       0.00000           0.174605            4.75125
     77       0.00000           0.188869            5.13939
     78       0.00000           0.191031            5.19823
     79       0.00000           0.197580            5.37643
     80       0.00000           0.199648            5.43270
     81       0.00000           0.218120            5.93535
     82       0.00000           0.224286            6.10312
     83       0.00000           0.242729            6.60500
     84       0.00000           0.243909            6.63710
     85       0.00000           0.248844            6.77139
     86       0.00000           0.249268            6.78292
     87       0.00000           0.255516            6.95295
     88       0.00000           0.280954            7.64516
     89       0.00000           0.294356            8.00984
     90       0.00000           0.298923            8.13411
     91       0.00000           0.333220            9.06737
     92       0.00000           0.340955            9.27785
     93       0.00000           0.349716            9.51625
     94       0.00000           0.366745            9.97964
     95       0.00000           0.373847           10.17290
     96       0.00000           0.378790           10.30739

  Highest occupied state (VBM) at     -8.12794416 eV
  | Occupation number:      2.00000000

  Lowest unoccupied state (CBM) at    -4.26745783 eV
  | Occupation number:      0.00000000

  Overall HOMO-LUMO gap:      3.86048633 eV.

  Total energy components:
  | Sum of eigenvalues            :        -882.58916278 Ha      -24016.47306381 eV
  | XC energy correction          :        -145.96908134 Ha       -3972.02079740 eV
  | XC potential correction       :         190.08962382 Ha        5172.60184313 eV
  | Free-atom electrostatic energy:        -779.34645211 Ha      -21207.09596713 eV
  | Hartree energy correction     :          -7.21131077 Ha        -196.22975023 eV
  | Entropy correction            :           0.00000000 Ha           0.00000000 eV
  | ---------------------------
  | Total energy                  :       -1625.02638318 Ha      -44219.21773544 eV
  | Total energy, T -> 0          :       -1625.02638318 Ha      -44219.21773544 eV  <-- do not rely on this value for anything but (periodic) metals
  | Electronic free energy        :       -1625.02638318 Ha      -44219.21773544 eV

  Derived energy quantities:
  | Kinetic energy                :        1635.73824421 Ha       44510.70230466 eV
  | Electrostatic energy          :       -3114.79554606 Ha      -84757.89924269 eV
  | Energy correction for multipole
  | error in Hartree potential    :           0.04961237 Ha           1.35002131 eV
  | Sum of eigenvalues per atom                           :       -2001.37275532 eV
  | Total energy (T->0) per atom                          :       -3684.93481129 eV  <-- do not rely on this value for anything but (periodic) metals
  | Electronic free energy per atom                       :       -3684.93481129 eV
  Evaluating new KS density.
  Integration grid: deviation in total charge (<rho> - N_e) =   7.105427E-14

  Self-consistency convergence accuracy:
  | Change of charge density      :  0.6395E+00
  | Change of sum of eigenvalues  :  0.1906E+03 eV
  | Change of total energy        :  0.6841E+01 eV


------------------------------------------------------------
  End self-consistency iteration #     1       :  max(cpu_time)    wall_clock(cpu1)
  | Time for this iteration                     :        0.121 s           0.121 s
  | Charge density update                       :        0.028 s           0.028 s
  | Density mixing                              :        0.001 s           0.002 s
  | Hartree multipole update                    :        0.011 s           0.011 s
  | Hartree multipole summation                 :        0.018 s           0.018 s
  | Integration                                 :        0.035 s           0.035 s
  | Solution of K.-S. eqns.                     :        0.026 s           0.026 s
  | Total energy evaluation                     :        0.000 s           0.000 s

  Partial memory accounting:
  | Current value for overall tracked memory usage:
  |   Minimum:        0.273 MB (on task 23)
  |   Maximum:        0.292 MB (on task  0)
  |   Average:        0.287 MB
  | Peak value for overall tracked memory usage:
  |   Minimum:        1.286 MB (on task  0 after allocating wave)
  |   Maximum:        1.381 MB (on task 17 after allocating wave)
  |   Average:        1.329 MB
  | Largest tracked array allocation so far:
  |   Minimum:        0.673 MB (gradient_basis_wave on task  0)
  |   Maximum:        0.733 MB (gradient_basis_wave on task 17)
  |   Average:        0.703 MB
  Note:  These values currently only include a subset of arrays which are explicitly tracked.
  The "true" memory usage will be greater.
------------------------------------------------------------

------------------------------------------------------------
          Begin self-consistency iteration #    2

  Date     :  20220517, Time     :  115004.742
------------------------------------------------------------
  Pulay mixing of updated and previous charge densities.
  Renormalizing the density to the exact electron count on the 3D integration grid.
  | Formal number of electrons (from input files) :     120.0000000000
  | Integrated number of electrons on 3D grid     :     120.0000000000
  | Charge integration error                      :       0.0000000000
  | Normalization factor for density and gradient :       1.0000000000

  Evaluating partitioned Hartree potential by multipole expansion.
  | Original multipole sum: apparent total charge =   0.718254E-13
  | Sum of charges compensated after spline to logarithmic grids =   0.784709E-04
  | Analytical far-field extrapolation by fixed multipoles:
  | Hartree multipole sum: apparent total charge =   0.732275E-13
  Summing up the Hartree potential.
  Time summed over all CPUs for potential: real work        0.382 s, elapsed        0.415 s
  | RMS charge density error from multipole expansion :   0.138455E-01

  Integrating Hamiltonian matrix: batch-based integration.
  Time summed over all CPUs for integration: real work        0.676 s, elapsed        0.714 s

  Updating Kohn-Sham eigenvalues and eigenvectors using ELSI and the ELPA eigensolver.
  Starting ELPA eigensolver
  Finished transformation to standard eigenproblem
  | Time :     0.004 s
  Finished solving standard eigenproblem
  | Time :     0.016 s
  Finished back-transformation of eigenvectors
  | Time :     0.002 s

  Obtaining occupation numbers and chemical potential using ELSI.
  | Chemical potential (Fermi level):    -7.70433878 eV
  Highest occupied state (VBM) at     -9.03891273 eV
  | Occupation number:      2.00000000

  Lowest unoccupied state (CBM) at    -4.62947553 eV
  | Occupation number:      0.00000000

  Overall HOMO-LUMO gap:      4.40943720 eV.

  Checking to see if s.c.f. parameters should be adjusted.

  Total energy components:
  | Sum of eigenvalues            :        -885.77792413 Ha      -24103.24367499 eV
  | XC energy correction          :        -145.48535338 Ha       -3958.85789006 eV
  | XC potential correction       :         189.45306021 Ha        5155.28006607 eV
  | Free-atom electrostatic energy:        -779.34645211 Ha      -21207.09596713 eV
  | Hartree energy correction     :          -3.80870923 Ha        -103.64025130 eV
  | Entropy correction            :           0.00000000 Ha           0.00000000 eV
  | ---------------------------
  | Total energy                  :       -1624.96537864 Ha      -44217.55771742 eV
  | Total energy, T -> 0          :       -1624.96537864 Ha      -44217.55771742 eV  <-- do not rely on this value for anything but (periodic) metals
  | Electronic free energy        :       -1624.96537864 Ha      -44217.55771742 eV

  Derived energy quantities:
  | Kinetic energy                :        1631.84107340 Ha       44404.65489129 eV
  | Electrostatic energy          :       -3111.32109866 Ha      -84663.35471866 eV
  | Energy correction for multipole
  | error in Hartree potential    :           0.05461360 Ha           1.48611167 eV
  | Sum of eigenvalues per atom                           :       -2008.60363958 eV
  | Total energy (T->0) per atom                          :       -3684.79647645 eV  <-- do not rely on this value for anything but (periodic) metals
  | Electronic free energy per atom                       :       -3684.79647645 eV
  Evaluating new KS density.
  Integration grid: deviation in total charge (<rho> - N_e) =   5.684342E-14

  Self-consistency convergence accuracy:
  | Change of charge density      :  0.4676E+00
  | Change of sum of eigenvalues  : -0.8677E+02 eV
  | Change of total energy        :  0.1660E+01 eV


------------------------------------------------------------
  End self-consistency iteration #     2       :  max(cpu_time)    wall_clock(cpu1)
  | Time for this iteration                     :        0.121 s           0.116 s
  | Charge density update                       :        0.030 s           0.030 s
  | Density mixing                              :        0.009 s           0.003 s
  | Hartree multipole update                    :        0.005 s           0.005 s
  | Hartree multipole summation                 :        0.018 s           0.018 s
  | Integration                                 :        0.034 s           0.034 s
  | Solution of K.-S. eqns.                     :        0.024 s           0.024 s
  | Total energy evaluation                     :        0.000 s           0.002 s

  Partial memory accounting:
  | Current value for overall tracked memory usage:
  |   Minimum:        0.274 MB (on task 23)
  |   Maximum:        0.293 MB (on task  0)
  |   Average:        0.288 MB
  | Peak value for overall tracked memory usage:
  |   Minimum:        1.286 MB (on task  0 after allocating wave)
  |   Maximum:        1.381 MB (on task 17 after allocating wave)
  |   Average:        1.329 MB
  | Largest tracked array allocation so far:
  |   Minimum:        0.673 MB (gradient_basis_wave on task  0)
  |   Maximum:        0.733 MB (gradient_basis_wave on task 17)
  |   Average:        0.703 MB
  Note:  These values currently only include a subset of arrays which are explicitly tracked.
  The "true" memory usage will be greater.
------------------------------------------------------------

------------------------------------------------------------
          Begin self-consistency iteration #    3

  Date     :  20220517, Time     :  115004.866
------------------------------------------------------------
  Pulay mixing of updated and previous charge densities.
  Renormalizing the density to the exact electron count on the 3D integration grid.
  | Formal number of electrons (from input files) :     120.0000000000
  | Integrated number of electrons on 3D grid     :     120.0000000000
  | Charge integration error                      :      -0.0000000000
  | Normalization factor for density and gradient :       1.0000000000

  Evaluating partitioned Hartree potential by multipole expansion.
  | Original multipole sum: apparent total charge =  -0.480640E-13
  | Sum of charges compensated after spline to logarithmic grids =   0.971253E-04
  | Analytical far-field extrapolation by fixed multipoles:
  | Hartree multipole sum: apparent total charge =  -0.484575E-13
  Summing up the Hartree potential.
  Time summed over all CPUs for potential: real work        0.380 s, elapsed        0.392 s
  | RMS charge density error from multipole expansion :   0.178798E-01

  Integrating Hamiltonian matrix: batch-based integration.
  Time summed over all CPUs for integration: real work        0.676 s, elapsed        0.715 s

  Updating Kohn-Sham eigenvalues and eigenvectors using ELSI and the ELPA eigensolver.
  Starting ELPA eigensolver
  Finished transformation to standard eigenproblem
  | Time :     0.009 s
  Finished solving standard eigenproblem
  | Time :     0.021 s
  Finished back-transformation of eigenvectors
  | Time :     0.004 s

  Obtaining occupation numbers and chemical potential using ELSI.
  | Chemical potential (Fermi level):    -7.69916340 eV
  Highest occupied state (VBM) at     -8.85261820 eV
  | Occupation number:      2.00000000

  Lowest unoccupied state (CBM) at    -4.74916832 eV
  | Occupation number:      0.00000000

  Overall HOMO-LUMO gap:      4.10344988 eV.

  Total energy components:
  | Sum of eigenvalues            :        -886.50529646 Ha      -24123.03648322 eV
  | XC energy correction          :        -145.47844138 Ha       -3958.66980491 eV
  | XC potential correction       :         189.44285589 Ha        5155.00239248 eV
  | Free-atom electrostatic energy:        -779.34645211 Ha      -21207.09596713 eV
  | Hartree energy correction     :          -3.07615650 Ha         -83.70647732 eV
  | Entropy correction            :           0.00000000 Ha           0.00000000 eV
  | ---------------------------
  | Total energy                  :       -1624.96349056 Ha      -44217.50634011 eV
  | Total energy, T -> 0          :       -1624.96349056 Ha      -44217.50634011 eV  <-- do not rely on this value for anything but (periodic) metals
  | Electronic free energy        :       -1624.96349056 Ha      -44217.50634011 eV

  Derived energy quantities:
  | Kinetic energy                :        1630.58957027 Ha       44370.59975835 eV
  | Electrostatic energy          :       -3110.07461945 Ha      -84629.43629355 eV
  | Energy correction for multipole
  | error in Hartree potential    :           0.06830708 Ha           1.85873014 eV
  | Sum of eigenvalues per atom                           :       -2010.25304027 eV
  | Total energy (T->0) per atom                          :       -3684.79219501 eV  <-- do not rely on this value for anything but (periodic) metals
  | Electronic free energy per atom                       :       -3684.79219501 eV
  Evaluating new KS density.
  Integration grid: deviation in total charge (<rho> - N_e) =   0.000000E+00

  Self-consistency convergence accuracy:
  | Change of charge density      :  0.1214E+00
  | Change of sum of eigenvalues  : -0.1979E+02 eV
  | Change of total energy        :  0.5138E-01 eV


------------------------------------------------------------
  End self-consistency iteration #     3       :  max(cpu_time)    wall_clock(cpu1)
  | Time for this iteration                     :        0.121 s           0.118 s
  | Charge density update                       :        0.027 s           0.027 s
  | Density mixing                              :        0.007 s           0.003 s
  | Hartree multipole update                    :        0.001 s           0.001 s
  | Hartree multipole summation                 :        0.019 s           0.020 s
  | Integration                                 :        0.033 s           0.033 s
  | Solution of K.-S. eqns.                     :        0.034 s           0.034 s
  | Total energy evaluation                     :        0.000 s           0.000 s

  Partial memory accounting:
  | Current value for overall tracked memory usage:
  |   Minimum:        0.274 MB (on task 23)
  |   Maximum:        0.293 MB (on task  0)
  |   Average:        0.288 MB
  | Peak value for overall tracked memory usage:
  |   Minimum:        1.286 MB (on task  0 after allocating wave)
  |   Maximum:        1.381 MB (on task 17 after allocating wave)
  |   Average:        1.329 MB
  | Largest tracked array allocation so far:
  |   Minimum:        0.673 MB (gradient_basis_wave on task  0)
  |   Maximum:        0.733 MB (gradient_basis_wave on task 17)
  |   Average:        0.703 MB
  Note:  These values currently only include a subset of arrays which are explicitly tracked.
  The "true" memory usage will be greater.
------------------------------------------------------------

------------------------------------------------------------
          Begin self-consistency iteration #    4

  Date     :  20220517, Time     :  115004.991
------------------------------------------------------------
  Pulay mixing of updated and previous charge densities.
  Renormalizing the density to the exact electron count on the 3D integration grid.
  | Formal number of electrons (from input files) :     120.0000000000
  | Integrated number of electrons on 3D grid     :     120.0000000000
  | Charge integration error                      :       0.0000000000
  | Normalization factor for density and gradient :       1.0000000000

  Evaluating partitioned Hartree potential by multipole expansion.
  | Original multipole sum: apparent total charge =  -0.723174E-14
  | Sum of charges compensated after spline to logarithmic grids =   0.108451E-03
  | Analytical far-field extrapolation by fixed multipoles:
  | Hartree multipole sum: apparent total charge =  -0.546070E-14
  Summing up the Hartree potential.
  Time summed over all CPUs for potential: real work        0.380 s, elapsed        0.390 s
  | RMS charge density error from multipole expansion :   0.206559E-01

  Integrating Hamiltonian matrix: batch-based integration.
  Time summed over all CPUs for integration: real work        0.675 s, elapsed        0.707 s

  Updating Kohn-Sham eigenvalues and eigenvectors using ELSI and the ELPA eigensolver.
  Starting ELPA eigensolver
  Finished transformation to standard eigenproblem
  | Time :     0.001 s
  Finished solving standard eigenproblem
  | Time :     0.003 s
  Finished back-transformation of eigenvectors
  | Time :     0.000 s

  Obtaining occupation numbers and chemical potential using ELSI.
  | Chemical potential (Fermi level):    -7.67529265 eV
  Highest occupied state (VBM) at     -8.73613811 eV
  | Occupation number:      2.00000000

  Lowest unoccupied state (CBM) at    -4.79748426 eV
  | Occupation number:      0.00000000

  Overall HOMO-LUMO gap:      3.93865385 eV.

  Total energy components:
  | Sum of eigenvalues            :        -886.75926090 Ha      -24129.94720725 eV
  | XC energy correction          :        -145.45684552 Ha       -3958.08215155 eV
  | XC potential correction       :         189.41351792 Ha        5154.20406551 eV
  | Free-atom electrostatic energy:        -779.34645211 Ha      -21207.09596713 eV
  | Hartree energy correction     :          -2.81230661 Ha         -76.52675638 eV
  | Entropy correction            :           0.00000000 Ha           0.00000000 eV
  | ---------------------------
  | Total energy                  :       -1624.96134722 Ha      -44217.44801680 eV
  | Total energy, T -> 0          :       -1624.96134722 Ha      -44217.44801680 eV  <-- do not rely on this value for anything but (periodic) metals
  | Electronic free energy        :       -1624.96134722 Ha      -44217.44801680 eV

  Derived energy quantities:
  | Kinetic energy                :        1629.69582273 Ha       44346.27965033 eV
  | Electrostatic energy          :       -3109.20032443 Ha      -84605.64551559 eV
  | Energy correction for multipole
  | error in Hartree potential    :           0.07739836 Ha           2.10611658 eV
  | Sum of eigenvalues per atom                           :       -2010.82893394 eV
  | Total energy (T->0) per atom                          :       -3684.78733473 eV  <-- do not rely on this value for anything but (periodic) metals
  | Electronic free energy per atom                       :       -3684.78733473 eV
  Evaluating new KS density.
  Integration grid: deviation in total charge (<rho> - N_e) =  -2.842171E-14

  Self-consistency convergence accuracy:
  | Change of charge density      :  0.9093E-01
  | Change of sum of eigenvalues  : -0.6911E+01 eV
  | Change of total energy        :  0.5832E-01 eV


------------------------------------------------------------
  End self-consistency iteration #     4       :  max(cpu_time)    wall_clock(cpu1)
  | Time for this iteration                     :        0.084 s           0.081 s
  | Charge density update                       :        0.027 s           0.027 s
  | Density mixing                              :        0.004 s           0.002 s
  | Hartree multipole update                    :        0.001 s           0.001 s
  | Hartree multipole summation                 :        0.017 s           0.016 s
  | Integration                                 :        0.030 s           0.030 s
  | Solution of K.-S. eqns.                     :        0.004 s           0.004 s
  | Total energy evaluation                     :        0.000 s           0.000 s

  Partial memory accounting:
  | Current value for overall tracked memory usage:
  |   Minimum:        0.274 MB (on task 23)
  |   Maximum:        0.293 MB (on task  0)
  |   Average:        0.288 MB
  | Peak value for overall tracked memory usage:
  |   Minimum:        1.286 MB (on task  0 after allocating wave)
  |   Maximum:        1.381 MB (on task 17 after allocating wave)
  |   Average:        1.329 MB
  | Largest tracked array allocation so far:
  |   Minimum:        0.673 MB (gradient_basis_wave on task  0)
  |   Maximum:        0.733 MB (gradient_basis_wave on task 17)
  |   Average:        0.703 MB
  Note:  These values currently only include a subset of arrays which are explicitly tracked.
  The "true" memory usage will be greater.
------------------------------------------------------------

------------------------------------------------------------
          Begin self-consistency iteration #    5

  Date     :  20220517, Time     :  115005.078
------------------------------------------------------------
  Pulay mixing of updated and previous charge densities.
  Renormalizing the density to the exact electron count on the 3D integration grid.
  | Formal number of electrons (from input files) :     120.0000000000
  | Integrated number of electrons on 3D grid     :     120.0000000000
  | Charge integration error                      :      -0.0000000000
  | Normalization factor for density and gradient :       1.0000000000

  Evaluating partitioned Hartree potential by multipole expansion.
  | Original multipole sum: apparent total charge =  -0.997192E-13
  | Sum of charges compensated after spline to logarithmic grids =   0.109586E-03
  | Analytical far-field extrapolation by fixed multipoles:
  | Hartree multipole sum: apparent total charge =  -0.992273E-13
  Summing up the Hartree potential.
  Time summed over all CPUs for potential: real work        0.380 s, elapsed        0.390 s
  | RMS charge density error from multipole expansion :   0.207807E-01

  Integrating Hamiltonian matrix: batch-based integration.
  Time summed over all CPUs for integration: real work        0.674 s, elapsed        0.707 s

  Updating Kohn-Sham eigenvalues and eigenvectors using ELSI and the ELPA eigensolver.
  Starting ELPA eigensolver
  Finished transformation to standard eigenproblem
  | Time :     0.000 s
  Finished solving standard eigenproblem
  | Time :     0.003 s
  Finished back-transformation of eigenvectors
  | Time :     0.001 s

  Obtaining occupation numbers and chemical potential using ELSI.
  | Chemical potential (Fermi level):    -7.66407567 eV
  Highest occupied state (VBM) at     -8.79079382 eV
  | Occupation number:      2.00000000

  Lowest unoccupied state (CBM) at    -4.76921632 eV
  | Occupation number:      0.00000000

  Overall HOMO-LUMO gap:      4.02157750 eV.

  Total energy components:
  | Sum of eigenvalues            :        -886.70057938 Ha      -24128.35040197 eV
  | XC energy correction          :        -145.45066792 Ha       -3957.91405043 eV
  | XC potential correction       :         189.40540353 Ha        5153.98326178 eV
  | Free-atom electrostatic energy:        -779.34645211 Ha      -21207.09596713 eV
  | Hartree energy correction     :          -2.86891580 Ha         -78.06717100 eV
  | Entropy correction            :           0.00000000 Ha           0.00000000 eV
[...]
   Total forces(   7)            :  0.152668E+01  0.319762E+00 -0.531825E+00
  atom #    8
   Hellmann-Feynman              :  0.553521E+01  0.962388E+00 -0.121816E+02
   Ionic forces                  :  0.000000E+00  0.000000E+00  0.000000E+00
   Multipole                     :  0.802408E+00  0.167556E+00 -0.282652E+00
   Hartree pot. SCF incomplete   :  0.120199E-06  0.441097E-07  0.832488E-06
   Pulay + GGA                   :  0.298904E+01  0.604722E+00 -0.225253E+01
   ----------------------------------------------------------------
   Total forces(   8)            :  0.932665E+01  0.173467E+01 -0.147168E+02
  atom #    9
   Hellmann-Feynman              : -0.487976E-01  0.333472E+01  0.159581E+01
   Ionic forces                  :  0.000000E+00  0.000000E+00  0.000000E+00
   Multipole                     : -0.569699E-01  0.601988E+00  0.301824E+00
   Hartree pot. SCF incomplete   : -0.616362E-06  0.105710E-05  0.216401E-05
   Pulay + GGA                   :  0.329661E+00 -0.570275E+01 -0.336698E+01
   ----------------------------------------------------------------
   Total forces(   9)            :  0.223893E+00 -0.176604E+01 -0.146934E+01
  atom #   10
   Hellmann-Feynman              :  0.132026E+01 -0.299742E+01  0.171639E+01
   Ionic forces                  :  0.000000E+00  0.000000E+00  0.000000E+00
   Multipole                     :  0.194176E+00 -0.560357E+00  0.323920E+00
   Hartree pot. SCF incomplete   : -0.145592E-06 -0.114416E-05  0.220944E-05
   Pulay + GGA                   : -0.202847E+01  0.520511E+01 -0.357476E+01
   ----------------------------------------------------------------
   Total forces(  10)            : -0.514039E+00  0.164733E+01 -0.153444E+01
  atom #   11
   Hellmann-Feynman              : -0.191381E+01 -0.372800E+00  0.215200E+01
   Ionic forces                  :  0.000000E+00  0.000000E+00  0.000000E+00
   Multipole                     : -0.342154E+00 -0.642625E-01  0.508414E+00
   Hartree pot. SCF incomplete   : -0.790155E-06 -0.150911E-06  0.843097E-06
   Pulay + GGA                   :  0.462623E+01  0.890332E+00 -0.574994E+01
   ----------------------------------------------------------------
   Total forces(  11)            :  0.237026E+01  0.453270E+00 -0.308953E+01
  atom #   12
   Hellmann-Feynman              :  0.278092E+01  0.526063E+00 -0.392879E+01
   Ionic forces                  :  0.000000E+00  0.000000E+00  0.000000E+00
   Multipole                     :  0.302075E+00  0.495693E-01 -0.823942E+00
   Hartree pot. SCF incomplete   :  0.166746E-06  0.601428E-07  0.101503E-05
   Pulay + GGA                   : -0.363823E+01 -0.663813E+00  0.638663E+01
   ----------------------------------------------------------------
   Total forces(  12)            : -0.555232E+00 -0.881807E-01  0.163390E+01


  Self-consistency convergence accuracy:
  | Change of charge density      :  0.1139E-06
  | Change of sum of eigenvalues  : -0.5152E-06 eV
  | Change of total energy        :  0.4201E-08 eV
  | Change of forces              :  0.2440E-06 eV/A

  Writing Kohn-Sham eigenvalues.

  State    Occupation    Eigenvalue [Ha]    Eigenvalue [eV]
      1       2.00000         -55.666394        -1514.75964
      2       2.00000         -55.622287        -1513.55945
      3       2.00000         -55.536652        -1511.22919
      4       2.00000         -24.371873         -663.19240
      5       2.00000         -24.318420         -661.73788
      6       2.00000         -24.318417         -661.73781
      7       2.00000         -24.233518         -659.42758
      8       2.00000         -24.225967         -659.22210
      9       2.00000         -24.217369         -658.98814
     10       2.00000         -24.216446         -658.96302
     11       2.00000         -24.172906         -657.77823
     12       2.00000         -24.172891         -657.77784
     13       2.00000          -4.113162         -111.92483
     14       2.00000          -4.091117         -111.32497
     15       2.00000          -4.016506         -109.29469
     16       2.00000          -2.708241          -73.69498
     17       2.00000          -2.704990          -73.60653
     18       2.00000          -2.701079          -73.50010
     19       2.00000          -2.684088          -73.03776
     20       2.00000          -2.683050          -73.00952
     21       2.00000          -2.679880          -72.92325
     22       2.00000          -2.615860          -71.18117
     23       2.00000          -2.604584          -70.87434
     24       2.00000          -2.602555          -70.81912
     25       2.00000          -1.324861          -36.05131
     26       2.00000          -1.213906          -33.03207
     27       2.00000          -1.192592          -32.45209
     28       2.00000          -1.095415          -29.80775
     29       2.00000          -1.073807          -29.21978
     30       2.00000          -1.067829          -29.05710
     31       2.00000          -1.056178          -28.74007
     32       2.00000          -1.029641          -28.01796
     33       2.00000          -1.024498          -27.87802
     34       2.00000          -0.695431          -18.92364
     35       2.00000          -0.625778          -17.02827
     36       2.00000          -0.611752          -16.64662
     37       2.00000          -0.570127          -15.51395
     38       2.00000          -0.567245          -15.43553
     39       2.00000          -0.544184          -14.80801
     40       2.00000          -0.510395          -13.88856
     41       2.00000          -0.486604          -13.24118
     42       2.00000          -0.482521          -13.13007
     43       2.00000          -0.450194          -12.25039
     44       2.00000          -0.444131          -12.08541
     45       2.00000          -0.438209          -11.92427
     46       2.00000          -0.412174          -11.21582
     47       2.00000          -0.397903          -10.82749
     48       2.00000          -0.397313          -10.81144
     49       2.00000          -0.393534          -10.70862
     50       2.00000          -0.384968          -10.47550
     51       2.00000          -0.382570          -10.41026
     52       2.00000          -0.376501          -10.24511
     53       2.00000          -0.373871          -10.17355
     54       2.00000          -0.367013           -9.98692
     55       2.00000          -0.362031           -9.85138
     56       2.00000          -0.354160           -9.63719
     57       2.00000          -0.341853           -9.30229
     58       2.00000          -0.335873           -9.13956
     59       2.00000          -0.328729           -8.94517
     60       2.00000          -0.322834           -8.78476
     61       0.00000          -0.174677           -4.75320
     62       0.00000          -0.099373           -2.70407
     63       0.00000          -0.078580           -2.13827
     64       0.00000          -0.027122           -0.73803
     65       0.00000          -0.019415           -0.52832
     66       0.00000          -0.013455           -0.36612
     67       0.00000           0.008695            0.23661
     68       0.00000           0.038895            1.05839
     69       0.00000           0.053396            1.45297
     70       0.00000           0.060164            1.63716
     71       0.00000           0.081026            2.20483
     72       0.00000           0.107776            2.93274
     73       0.00000           0.126436            3.44051
     74       0.00000           0.153167            4.16790
     75       0.00000           0.160194            4.35909
     76       0.00000           0.165247            4.49659
     77       0.00000           0.181260            4.93234
     78       0.00000           0.182605            4.96895
     79       0.00000           0.187719            5.10811
     80       0.00000           0.192940            5.25017
     81       0.00000           0.212587            5.78480
     82       0.00000           0.214732            5.84315
     83       0.00000           0.238721            6.49592
     84       0.00000           0.239218            6.50946
     85       0.00000           0.240063            6.53245
     86       0.00000           0.240937            6.55623
     87       0.00000           0.254010            6.91196
     88       0.00000           0.272564            7.41684
     89       0.00000           0.287728            7.82948
     90       0.00000           0.291143            7.92239
     91       0.00000           0.332152            9.03830
     92       0.00000           0.337228            9.17644
     93       0.00000           0.343599            9.34981
     94       0.00000           0.357928            9.73972
     95       0.00000           0.362902            9.87507
     96       0.00000           0.375261           10.21137

  Highest occupied state (VBM) at     -8.78475598 eV
  | Occupation number:      2.00000000

  Lowest unoccupied state (CBM) at    -4.75319991 eV
  | Occupation number:      0.00000000

  Overall HOMO-LUMO gap:      4.03155606 eV.
  | Chemical Potential                          :    -7.65938787 eV

  Self-consistency cycle converged.


------------------------------------------------------------
  End self-consistency iteration #    15       :  max(cpu_time)    wall_clock(cpu1)
  | Time for this iteration                     :        0.269 s           0.271 s
  | Charge density & force component update     :        0.147 s           0.147 s
  | Density mixing                              :        0.005 s           0.005 s
  | Hartree multipole update                    :        0.001 s           0.002 s
  | Hartree multipole summation                 :        0.049 s           0.048 s
  | Hartree pot. SCF incomplete forces          :        0.031 s           0.031 s
  | Integration                                 :        0.031 s           0.032 s
  | Solution of K.-S. eqns.                     :        0.004 s           0.004 s
  | Total energy evaluation                     :        0.000 s           0.000 s

  Partial memory accounting:
  | Current value for overall tracked memory usage:
  |   Minimum:        0.274 MB (on task 23)
  |   Maximum:        0.293 MB (on task  0)
  |   Average:        0.289 MB
  | Peak value for overall tracked memory usage:
  |   Minimum:        2.791 MB (on task  0 after allocating hessian_basis_wave)
  |   Maximum:        2.989 MB (on task 17 after allocating hessian_basis_wave)
  |   Average:        2.886 MB
  | Largest tracked array allocation so far:
  |   Minimum:        1.347 MB (hessian_basis_wave on task  0)
  |   Maximum:        1.465 MB (hessian_basis_wave on task 17)
  |   Average:        1.406 MB
  Note:  These values currently only include a subset of arrays which are explicitly tracked.
  The "true" memory usage will be greater.
------------------------------------------------------------
  Removing unitary transformations (pure translations, rotations) from forces on atoms.
  Atomic forces before filtering:
  | Net force on center of mass :  -0.802863E-02  0.172845E-02 -0.258970E-02 eV/A
  | Net torque on center of mass:  -0.122088E-01 -0.136418E-01  0.902746E-02 eV
  Atomic forces after filtering:
  | Net force on center of mass :  -0.713624E-15 -0.903181E-15 -0.321131E-14 eV/A
  | Net torque on center of mass:   0.108570E-14 -0.830794E-14  0.590053E-15 eV

  Energy and forces in a compact form:
  | Total energy uncorrected      :         -0.442174437259601E+05 eV
  | Total energy corrected        :         -0.442174437259601E+05 eV  <-- do not rely on this value for anything but (periodic) metals
  | Electronic free energy        :         -0.442174437259601E+05 eV
  Total atomic forces (unitary forces cleaned) [eV/Ang]:
  |    1          0.193867242009394E+01          0.334654231636764E+00         -0.425729043879762E+01
  |    2         -0.928063629381442E+01         -0.161405443665633E+01          0.202759372549193E+02
  |    3         -0.207895371464899E+01         -0.448349685632544E+00          0.162606304128779E+00
  |    4          0.106815563147922E+01          0.301663501607698E+00          0.362839240465445E+01
  |    5         -0.186786041775146E+01         -0.111788266443417E+01         -0.386192895611323E-01
  |    6         -0.216280164727369E+01          0.245666169027722E+00         -0.639176792105516E-01
  |    7          0.152759928517688E+01          0.319403442798939E+00         -0.531496318210304E+00
  |    8          0.932748975302561E+01          0.173414953690045E+01         -0.147168454463916E+02
  |    9          0.225389449807964E+00         -0.176699423297859E+01         -0.146889534904247E+01
  |   10         -0.512943533723426E+00          0.164627489439195E+01         -0.153483747209593E+01
  |   11          0.237089058063830E+01          0.453495861391803E+00         -0.308884092539274E+01
  |   12         -0.555001513009920E+00         -0.880266180536853E-01          0.163380695499982E+01

  ------------------------------------ 
  Start decomposition of the XC Energy 
  ------------------------------------ 
  X and C from original XC functional choice 
  Hartree-Fock Energy :          0.000000000 Ha              0.000000000 eV
  X Energy            :       -140.488184339 Ha          -3822.878001747 eV
  C Energy            :         -4.965003241 Ha           -135.104612228 eV
  Total XC Energy     :       -145.453187579 Ha          -3957.982613975 eV
  ------------------------------------ 
  LDA X and C from self-consistent density 
  X Energy LDA        :       -133.081833349 Ha          -3621.340937228 eV
  C Energy LDA        :         -8.839985141 Ha           -240.548234652 eV
  ------------------------------------ 
  End decomposition of the XC Energy 
  ------------------------------------ 

------------------------------------------------------------

------------------------------------------------------------------------------
  Final output of selected total energy values:

  The following output summarizes some interesting total energy values
  at the end of a run (AFTER all relaxation, molecular dynamics, etc.).

  | Total energy of the DFT / Hartree-Fock s.c.f. calculation      :         -44217.443725960 eV
  | Final zero-broadening corrected energy (caution - metals only) :         -44217.443725960 eV
  | For reference only, the value of 1 Hartree used in FHI-aims is :             27.211384500 eV

  Before relying on these values, please be sure to understand exactly which
  total energy value is referred to by a given number. Different objects may
  all carry the same name 'total energy'. Definitions:

  Total energy of the DFT / Hartree-Fock s.c.f. calculation:
  | Note that this energy does not include ANY quantities calculated after the
  | s.c.f. cycle, in particular not ANY RPA, MP2, etc. many-body perturbation terms.

  Final zero-broadening corrected energy:
  | For metallic systems only, a broadening of the occupation numbers at the Fermi
  | level can be extrapolated back to zero broadening by an electron-gas inspired
  | formula. For all systems that are not real metals, this value can be
  | meaningless and should be avoided.

------------------------------------------------------------------------------
  Methods described in the following list of references were used in this FHI-aims run.
  If you publish the results, please make sure to cite these reference if they apply.
  FHI-aims is an academic code, and for our developers (often, Ph.D. students
  and postdocs), scientific credit in the community is essential.
  Thank you for helping us!

  For any use of FHI-aims, please cite:

    Volker Blum, Ralf Gehrke, Felix Hanke, Paula Havu, Ville Havu,
    Xinguo Ren, Karsten Reuter, and Matthias Scheffler
    'Ab initio molecular simulations with numeric atom-centered orbitals'
    Computer Physics Communications 180, 2175-2196 (2009)
    http://dx.doi.org/10.1016/j.cpc.2009.06.022


  The ELSI infrastructure was used in your run to solve the Kohn-Sham electronic structure.
  Please check out http://elsi-interchange.org to learn more.
  If scalability is important for your project, please acknowledge ELSI by citing:

    V. W-z. Yu, F. Corsetti, A. Garcia, W. P. Huhn, M. Jacquelin, W. Jia,
    B. Lange, L. Lin, J. Lu, W. Mi, A. Seifitokaldani, A. Vazquez-Mayagoitia,
    C. Yang, H. Yang, and V. Blum
    'ELSI: A unified software interface for Kohn-Sham electronic structure solvers'
    Computer Physics Communications 222, 267-285 (2018).
    http://dx.doi.org/10.1016/j.cpc.2017.09.007


  For the real-space grid partitioning and parallelization used in this calculation, please cite:

    Ville Havu, Volker Blum, Paula Havu, and Matthias Scheffler,
    'Efficient O(N) integration for all-electron electronic structure calculation'
    'using numerically tabulated basis functions'
    Journal of Computational Physics 228, 8367-8379 (2009).
    http://dx.doi.org/10.1016/j.jcp.2009.08.008

  Of course, there are many other important community references, e.g., those cited in the
  above references. Our list is limited to references that describe implementations in the
  FHI-aims code. The reason is purely practical (length of this list) - please credit others as well.

------------------------------------------------------------
          Leaving FHI-aims.
          Date     :  20220517, Time     :  115006.427

          Computational steps:
          | Number of self-consistency cycles          :           15
          | Number of SCF (re)initializations          :            1

          Detailed time accounting                     :  max(cpu_time)    wall_clock(cpu1)
          | Total time                                  :        2.208 s           2.282 s
          | Preparation time                            :        0.184 s           0.183 s
          | Boundary condition initalization            :        0.000 s           0.001 s
          | Grid partitioning                           :        0.047 s           0.047 s
          | Preloading free-atom quantities on grid     :        0.017 s           0.018 s
          | Free-atom superposition energy              :        0.007 s           0.007 s
          | Total time for integrations                 :        0.516 s           0.515 s
          | Total time for solution of K.-S. equations  :        0.193 s           0.193 s
          | Total time for density & force components   :        0.679 s           0.678 s
          | Total time for mixing                       :        0.076 s           0.040 s
          | Total time for Hartree multipole update     :        0.033 s           0.031 s
          | Total time for Hartree multipole sum        :        0.318 s           0.320 s
          | Total time for total energy evaluation      :        0.002 s           0.002 s
          | Total time NSC force correction             :        0.063 s           0.062 s
          | Total time for scaled ZORA corrections      :        0.000 s           0.000 s

          Partial memory accounting:
          | Residual value for overall tracked memory usage across tasks:     0.000000 MB (should be 0.000000 MB)
          | Peak values for overall tracked memory usage:
          |   Minimum:        2.791 MB (on task  0 after allocating hessian_basis_wave)
          |   Maximum:        2.989 MB (on task 17 after allocating hessian_basis_wave)
          |   Average:        2.886 MB
          | Largest tracked array allocation:
          |   Minimum:        1.347 MB (hessian_basis_wave on task  0)
          |   Maximum:        1.465 MB (hessian_basis_wave on task 17)
          |   Average:        1.406 MB
          Note:  These values currently only include a subset of arrays which are explicitly tracked.
          The "true" memory usage will be greater.

          Have a nice day.
------------------------------------------------------------
