------------------------------------------------------------
          Invoking FHI-aims ...

          When using FHI-aims, please cite the following reference:

            Volker Blum, Ralf Gehrke, Felix Hanke, Paula Havu,
            Ville Havu, Xinguo Ren, Karsten Reuter, and Matthias Scheffler,
            'Ab Initio Molecular Simulations with Numeric Atom-Centered Orbitals',
            Computer Physics Communications 180, 2175-2196 (2009)

          In addition, many other developments in FHI-aims are likely important for
          your particular application. A partial list of references is given at the end of
          this file. Thank you for giving credit to the authors of these developments.

          For any questions about FHI-aims, please visit our slack channel at

            https://fhi-aims.slack.com

          and our main development and support site at

            https://aims-git.rz-berlin.mpg.de .

          The latter site, in particular, has a wiki to collect information, as well
          as an issue tracker to log discussions, suggest improvements, and report issues
          or bugs. https://aims-git.rz-berlin.mpg.de is also the main development site
          of the project and all new and updated code versions can be obtained there.
          Please send an email to aims-coordinators@fhi-berlin.mpg.de and we will add
          you to these sites. They are for you and everyone is welcome there.

------------------------------------------------------------



  Date     :  20220517, Time     :  111709.039
  Time zero on CPU 1             :   0.402850000000000E-01  s.
  Internal wall clock time zero  :           422018229.039  s.

  FHI-aims created a unique identifier for this run for later identification
  aims_uuid : 9ECB252D-427D-4377-A077-DFE18F63274E

  Build configuration of the current instance of FHI-aims
  -------------------------------------------------------
  FHI-aims version      : 210914
  Commit number         : GITDIR-NOTFOUND
  CMake host system     : Linux-3.10.0-693.17.1.el7.x86_64
  CMake version         : 3.21.1
  Fortran compiler      : /shared/ucl/apps/intel/2018.Update3/impi/2018.3.222/intel64/bin/mpiifort (Intel) version 18.0.3.20180410
  Fortran compiler flags: -O3 -ip -fp-model precise
  C compiler            : /shared/ucl/apps/intel/2018.Update3/compilers_and_libraries_2018.3.222/linux/bin/intel64/icc (Intel) version 18.0.3.20180410
  C compiler flags      : -O3 -ip -fp-model precise -std=gnu99
  ELPA2 kernel          : AVX2
  Using MPI
  Using ScaLAPACK
  Using LibXC
  Using i-PI
  Using RLSY
  Linking against: /shared/ucl/apps/intel/2019.Update5/compilers_and_libraries_2019.5.281/linux/mkl/lib/intel64/libmkl_intel_lp64.so
                   /shared/ucl/apps/intel/2019.Update5/compilers_and_libraries_2019.5.281/linux/mkl/lib/intel64/libmkl_sequential.so
                   /shared/ucl/apps/intel/2019.Update5/compilers_and_libraries_2019.5.281/linux/mkl/lib/intel64/libmkl_core.so
                   /shared/ucl/apps/intel/2019.Update5/compilers_and_libraries_2019.5.281/linux/mkl/lib/intel64/libmkl_blacs_intelmpi_lp64.so
                   /shared/ucl/apps/intel/2019.Update5/compilers_and_libraries_2019.5.281/linux/mkl/lib/intel64/libmkl_scalapack_lp64.so

  Using       24 parallel tasks.
  Task        0 on host node-k98a-025 reporting.
  Task        1 on host node-k98a-025 reporting.
  Task        2 on host node-k98a-025 reporting.
  Task        3 on host node-k98a-025 reporting.
  Task        4 on host node-k98a-025 reporting.
  Task        5 on host node-k98a-025 reporting.
  Task        6 on host node-k98a-025 reporting.
  Task        7 on host node-k98a-025 reporting.
  Task        8 on host node-k98a-025 reporting.
  Task        9 on host node-k98a-025 reporting.
  Task       10 on host node-k98a-025 reporting.
  Task       11 on host node-k98a-025 reporting.
  Task       12 on host node-k98a-025 reporting.
  Task       13 on host node-k98a-025 reporting.
  Task       14 on host node-k98a-025 reporting.
  Task       15 on host node-k98a-025 reporting.
  Task       16 on host node-k98a-025 reporting.
  Task       17 on host node-k98a-025 reporting.
  Task       18 on host node-k98a-025 reporting.
  Task       19 on host node-k98a-025 reporting.
  Task       20 on host node-k98a-025 reporting.
  Task       21 on host node-k98a-025 reporting.
  Task       22 on host node-k98a-025 reporting.
  Task       23 on host node-k98a-025 reporting.

  Performing system and environment tests:
  | Environment variable OMP_NUM_THREADS correctly set to 1.
  | Checking for ScaLAPACK...
  | Testing pdtran()...
  | All pdtran() tests passed.

  Obtaining array dimensions for all initial allocations:
  
  -----------------------------------------------------------------------
  Parsing control.in (first pass over file, find array dimensions only).
  The contents of control.in will be repeated verbatim below
  unless switched off by setting 'verbatim_writeout .false.' .
  in the first line of control.in .
  -----------------------------------------------------------------------
  
  #########################################################################################  Physical model
  #########################################################################################
  xc                 pbesol
  spin               none
  relativistic       atomic_zora scalar
  charge             0.0
  #  SCF convergence
  occupation_type    gaussian 0.01
  mixer              pulay
  n_max_pulay        10
  charge_mix_param   0.5
  sc_accuracy_rho    1E-5
  sc_accuracy_eev    1E-3
  sc_accuracy_etot   1E-6
  sc_accuracy_forces 1E-4
  sc_iter_limit      1500
  #  Relaxation
  #relax_geometry   bfgs 1.e-3
  
  ################################################################################
  #
  #  FHI-aims code project
  #  VB, Fritz-Haber Institut, 2009
  #
  #  Suggested "light" defaults for Al atom (to be pasted into control.in file)
  #  Be sure to double-check any results obtained with these settings for post-processing,
  #  e.g., with the "tight" defaults and larger basis sets.
  #
  ################################################################################
    species        Al
  #     global species definitions
      nucleus             13
      mass                26.9815386
  #
      l_hartree           4
  #
      cut_pot             3.5          1.5  1.0
      basis_dep_cutoff    1e-4
  #
      radial_base         41 5.0
      radial_multiplier   1
      angular_grids       specified
        division   0.6594  110
        division   0.8170  194
        division   0.9059  302
  #      division   1.0363  434
  #      division   1.1443  590
  #      division   1.2621  770
  #      division   2.8177  974
  #      outer_grid   974
        outer_grid   302
  ################################################################################
  #
  #  Definition of "minimal" basis
  #
  ################################################################################
  #     valence basis states
      valence      3  s   2.
      valence      3  p   1.
  #     ion occupancy
      ion_occ      3  s   1.
      ion_occ      2  p   6.
  ################################################################################
  #
  #  Suggested additional basis functions. For production calculations,
  #  uncomment them one after another (the most important basis functions are
  #  listed first).
  #
  #  Constructed for dimers: 2.0 A, 2.5 A, 3.0 A, 3.75 A, 4.5 A
  #
  ################################################################################
  #  "First tier" - improvements: -199.47 meV to -10.63 meV
       ionic 3 d auto
       ionic 3 p auto
  #     hydro 4 f 4.7
       ionic 3 s auto
  #  "Second tier" - improvements: -5.35 meV to -1.57 meV
  #     hydro 5 g 7
  #     hydro 3 d 6
  #     hydro 2 s 11.6
  #     hydro 2 p 0.9
  #  "Third tier" - improvements: -0.63 meV to -0.20 meV
  #     hydro 5 f 7.6
  #     hydro 4 p 7.2
  #     hydro 4 s 3.7
  #     hydro 4 d 7.6
  #  "Fourth tier" - improvements: -0.17 meV to -0.08 meV
  #     hydro 4 d 13.6
  #     hydro 5 g 11.2
  #     hydro 4 d 0.9
  #     hydro 1 s 0.4
  #     hydro 4 p 0.1
  #     hydro 5 f 9.8
  #  Further basis functions that fell out of the optimization - noise level...
  #     hydro 4 p 5
  
  ################################################################################
  #
  #  FHI-aims code project
  #  VB, Fritz-Haber Institut, 2009
  #
  #  Suggested "light" defaults for F atom (to be pasted into control.in file)
  #  Be sure to double-check any results obtained with these settings for post-processing,
  #  e.g., with the "tight" defaults and larger basis sets.
  #
  ################################################################################
    species        F
  #     global species definitions
      nucleus             9
      mass                18.9984032
  #
      l_hartree           4
  #
      cut_pot             3.5  1.5  1.0
      basis_dep_cutoff    1e-4
  #
      radial_base         37 5.0
      radial_multiplier   1
      angular_grids specified
        division   0.4014  110
        division   0.5291  194
        division   0.6019  302
  #      division   0.6814  434
  #      division   0.7989  590
  #      division   0.8965  770
  #      division   1.3427  974
  #      outer_grid   974
        outer_grid   302
  ################################################################################
  #
  #  Definition of "minimal" basis
  #
  ################################################################################
  #     valence basis states
      valence      2  s   2.
      valence      2  p   5.
  #     ion occupancy
      ion_occ      2  s   1.
      ion_occ      2  p   4.
  ################################################################################
  #
  #  Suggested additional basis functions. For production calculations,
  #  uncomment them one after another (the most important basis functions are
  #  listed first).
  #
  #  Constructed for dimers: 1.2 A, 1.418 A, 1.75 A, 2.25 A, 3.25 A
  #
  ################################################################################
  #  "First tier" - improvements: -149.44 meV to -45.88 meV
       hydro 2 p 1.7
       hydro 3 d 7.4
       hydro 3 s 6.8
  #  "Second tier" - improvements: -12.96 meV to -1.56 meV
  #     hydro 4 f 11.2
  #     ionic 2 p auto
  #     hydro 1 s 0.75
  #     hydro 4 d 8.8
  #     hydro 5 g 16.8
  #  "Third tier" - improvements: -0.58 meV to -0.05 meV
  #     hydro 3 p 6.2
  #     hydro 3 s 3.2
  #     hydro 4 f 9.6
  #     hydro 3 s 19.6
  #     hydro 4 d 8.6
  #     hydro 5 g 14.4
  # Further basis functions: -0.05 meV and below
  #     hydro 3 p 4.2
  
  -----------------------------------------------------------------------
  Completed first pass over input file control.in .
  -----------------------------------------------------------------------
  
  
  -----------------------------------------------------------------------
  Parsing geometry.in (first pass over file, find array dimensions only).
  The contents of geometry.in will be repeated verbatim below
  unless switched off by setting 'verbatim_writeout .false.' .
  in the first line of geometry.in .
  -----------------------------------------------------------------------
  
  atom 1.383615262 0.129401716 2.444034237 Al
  atom 1.260448800 1.200725800 -0.113738200 Al
  atom -0.402171185 0.742741364 -2.288838673 Al
  atom -1.709695804 -0.476563744 -2.124463677 F
  atom 2.108782592 -0.305297154 0.742918713 F
  atom -0.084925016 1.717304054 -3.802773194 F
  atom -0.409399026 1.889107281 -0.764255095 F
  atom 2.539168953 2.455185309 -0.411761044 F
  atom 1.231211023 0.015132328 -1.624777977 F
  atom 0.468170871 1.568676223 1.603441902 F
  atom 2.649939930 0.718715419 3.575930209 F
  atom 0.144493959 -1.153590859 2.878161186 F
  
  -----------------------------------------------------------------------
  Completed first pass over input file geometry.in .
  -----------------------------------------------------------------------
  

  Basic array size parameters:
  | Number of species                 :        2
  | Number of atoms                   :       12
  | Max. basis fn. angular momentum   :        2
  | Max. atomic/ionic basis occupied n:        3
  | Max. number of basis fn. types    :        3
  | Max. radial fns per species/type  :        5
  | Max. logarithmic grid size        :     1340
  | Max. radial integration grid size :       41
  | Max. angular integration grid size:      302
  | Max. angular grid division number :        8
  | Radial grid for Hartree potential :     1340
  | Number of spin channels           :        1

------------------------------------------------------------
          Reading file control.in.
------------------------------------------------------------
  XC: Using PBEsol gradient-corrected functionals.
  Spin treatment: No spin polarisation.
  Scalar relativistic treatment of kinetic energy: on-site free-atom approximation to ZORA.
  Charge =   0.000000E+00: Neutral system requested explicitly.
  Occupation type: Gaussian broadening, width =   0.100000E-01 eV.
  Using pulay charge density mixing.
  Pulay mixing - number of memorized iterations:   10
  Charge density mixing - mixing parameter:     0.5000
  Convergence accuracy of self-consistent charge density:  0.1000E-04
  Convergence accuracy of sum of eigenvalues:  0.1000E-02
  Convergence accuracy of total energy:  0.1000E-05
  Convergence accuracy of forces:  0.1000E-03
  Maximum number of s.-c. iterations  :  1500
 
  Reading configuration options for species Al                  .
  | Found nuclear charge :  13.0000
  | Found atomic mass :    26.9815386000000      amu
  | Found l_max for Hartree potential  :   4
  | Found cutoff potl. onset [A], width [A], scale factor :    3.50000    1.50000    1.00000
  | Threshold for basis-dependent cutoff potential is   0.100000E-03
  | Found data for basic radial integration grid :    41 points, outermost radius =    5.000 A
  | Found multiplier for basic radial grid :   1
  | Found angular grid specification: user-specified.
  | Specified grid contains     4 separate shells.
  | Check grid settings after all constraints further below.
  | Found free-atom valence shell :  3 s   2.000
  | Found free-atom valence shell :  3 p   1.000
  | Found free-ion valence shell :  3 s   1.000
  | Found free-ion valence shell :  2 p   6.000
  | Found ionic basis function :  3 d , default cutoff radius.
  | Found ionic basis function :  3 p , default cutoff radius.
  | Found ionic basis function :  3 s , default cutoff radius.
  Species Al                  : Missing cutoff potential type.
  Defaulting to exp(1/x)/(1-x)^2 type cutoff potential.
  Species Al: No 'logarithmic' tag. Using default grid for free atom:
  | Default logarithmic grid data [bohr] : 0.1000E-03 0.1000E+03 0.1012E+01
  | Will include ionic basis functions of  2.0-fold positive Al                   ion.
  Species Al: On-site basis accuracy parameter (for Gram-Schmidt orthonormalisation) not specified.
  Using default value basis_acc =  0.1000000E-03.
  Species Al                  : Using default innermost maximum threshold i_radial=  2 for radial functions.
  Species Al                  : Default cutoff onset for free atom density etc. : 0.35000000E+01 AA.
  Species Al                  : Basic radial grid will be enhanced according to radial_multiplier =   1, to contain    41 grid points.
 
  Reading configuration options for species F                   .
  | Found nuclear charge :   9.0000
  | Found atomic mass :    18.9984032000000      amu
  | Found l_max for Hartree potential  :   4
  | Found cutoff potl. onset [A], width [A], scale factor :    3.50000    1.50000    1.00000
  | Threshold for basis-dependent cutoff potential is   0.100000E-03
  | Found data for basic radial integration grid :    37 points, outermost radius =    5.000 A
  | Found multiplier for basic radial grid :   1
  | Found angular grid specification: user-specified.
  | Specified grid contains     4 separate shells.
  | Check grid settings after all constraints further below.
  | Found free-atom valence shell :  2 s   2.000
  | Found free-atom valence shell :  2 p   5.000
  | Found free-ion valence shell :  2 s   1.000
  | Found free-ion valence shell :  2 p   4.000
  | Found hydrogenic basis function :  2 p   1.700
  | Found hydrogenic basis function :  3 d   7.400
  | Found hydrogenic basis function :  3 s   6.800
  Species F                   : Missing cutoff potential type.
  Defaulting to exp(1/x)/(1-x)^2 type cutoff potential.
  Species F : No 'logarithmic' tag. Using default grid for free atom:
  | Default logarithmic grid data [bohr] : 0.1000E-03 0.1000E+03 0.1012E+01
  Species F : On-site basis accuracy parameter (for Gram-Schmidt orthonormalisation) not specified.
  Using default value basis_acc =  0.1000000E-03.
  Species F                   : Using default innermost maximum threshold i_radial=  2 for radial functions.
  Species F                   : Default cutoff onset for free atom density etc. : 0.35000000E+01 AA.
  Species F                   : Basic radial grid will be enhanced according to radial_multiplier =   1, to contain    37 grid points.
 
  Finished reading input file 'control.in'.
 
------------------------------------------------------------


------------------------------------------------------------
          Reading geometry description geometry.in.
------------------------------------------------------------
  | The smallest distance between any two atoms is         1.79536757 AA.
  | The first atom of this pair is atom number                      3 .
  | The second atom of this pair is atom number                     4 .
  Input structure read successfully.
  The structure contains       12 atoms,  and a total of        120.000 electrons.

  Input geometry:
  | No unit cell requested.
  | Atomic structure:
  |       Atom                x [A]            y [A]            z [A]
  |    1: Species Al            1.38361526        0.12940172        2.44403424
  |    2: Species Al            1.26044880        1.20072580       -0.11373820
  |    3: Species Al           -0.40217119        0.74274136       -2.28883867
  |    4: Species F            -1.70969580       -0.47656374       -2.12446368
  |    5: Species F             2.10878259       -0.30529715        0.74291871
  |    6: Species F            -0.08492502        1.71730405       -3.80277319
  |    7: Species F            -0.40939903        1.88910728       -0.76425509
  |    8: Species F             2.53916895        2.45518531       -0.41176104
  |    9: Species F             1.23121102        0.01513233       -1.62477798
  |   10: Species F             0.46817087        1.56867622        1.60344190
  |   11: Species F             2.64993993        0.71871542        3.57593021
  |   12: Species F             0.14449396       -1.15359086        2.87816119

 
  Finished reading input file 'control.in'.
 

------------------------------------------------------------
          Reading geometry description geometry.in.
------------------------------------------------------------
 
  Consistency checks for stacksize environment parameter are next.
 
  | Maximum stacksize for task 0: unlimited
  | Maximum stacksize for task 1: unlimited
  | Maximum stacksize for task 2: unlimited
  | Maximum stacksize for task 3: unlimited
  | Maximum stacksize for task 4: unlimited
  | Maximum stacksize for task 5: unlimited
  | Maximum stacksize for task 6: unlimited
  | Maximum stacksize for task 7: unlimited
  | Maximum stacksize for task 8: unlimited
  | Maximum stacksize for task 9: unlimited
  | Maximum stacksize for task 10: unlimited
  | Maximum stacksize for task 11: unlimited
  | Maximum stacksize for task 12: unlimited
  | Maximum stacksize for task 13: unlimited
  | Maximum stacksize for task 14: unlimited
  | Maximum stacksize for task 15: unlimited
  | Maximum stacksize for task 16: unlimited
  | Maximum stacksize for task 17: unlimited
  | Maximum stacksize for task 18: unlimited
  | Maximum stacksize for task 19: unlimited
  | Maximum stacksize for task 20: unlimited
  | Maximum stacksize for task 21: unlimited
  | Maximum stacksize for task 22: unlimited
  | Maximum stacksize for task 23: unlimited
  | Current stacksize for task 0: unlimited
  | Current stacksize for task 1: unlimited
  | Current stacksize for task 2: unlimited
  | Current stacksize for task 3: unlimited
  | Current stacksize for task 4: unlimited
  | Current stacksize for task 5: unlimited
  | Current stacksize for task 6: unlimited
  | Current stacksize for task 7: unlimited
  | Current stacksize for task 8: unlimited
  | Current stacksize for task 9: unlimited
  | Current stacksize for task 10: unlimited
  | Current stacksize for task 11: unlimited
  | Current stacksize for task 12: unlimited
  | Current stacksize for task 13: unlimited
  | Current stacksize for task 14: unlimited
  | Current stacksize for task 15: unlimited
  | Current stacksize for task 16: unlimited
  | Current stacksize for task 17: unlimited
  | Current stacksize for task 18: unlimited
  | Current stacksize for task 19: unlimited
  | Current stacksize for task 20: unlimited
  | Current stacksize for task 21: unlimited
  | Current stacksize for task 22: unlimited
  | Current stacksize for task 23: unlimited
 
  Consistency checks for the contents of control.in are next.
 
  MPI_IN_PLACE appears to work with this MPI implementation.
  | Keeping use_mpi_in_place .true. (see manual).
  Target number of points in a grid batch is not set. Defaulting to  100
  Method for grid partitioning is not set. Defaulting to parallel hash+maxmin partitioning.
  Batch size limit is not set. Defaulting to    200
  By default, will store active basis functions for each batch.
  If in need of memory, prune_basis_once .false. can be used to disable this option.
  communication_type for Hartree potential was not specified.
  Defaulting to calc_hartree .
  Pulay mixer: Number of initial linear mixing iterations not set.
  Defaulting to    0 iterations.
  Work space size for distributed Hartree potential not set.
  Defaulting to   0.200000E+03 MB.
  Algorithm-dependent basis array size parameters:
  | n_max_pulay                         :       10
  Presetting      1001 iterations before the initial mixing cycle
  is restarted anyway using the sc_init_iter criterion / keyword.
  Presetting a factor      1.000 between actual scf density residual
  and density convergence criterion sc_accuracy_rho below which sc_init_iter
  takes no effect.
  Geometry relaxation not requested: no relaxation will be performed.
  Forces evaluation will include force correction term due to incomplete self-consistency (default).
  Handling of forces: Unphysical translation and rotation will be removed from forces.
  No accuracy limit for integral partition fn. given. Defaulting to  0.1000E-14.
  No threshold value for u(r) in integrations given. Defaulting to  0.1000E-05.
  No accuracy for occupation numbers given. Defaulting to  0.1000E-12.
  No threshold value for occupation numbers given. Defaulting to  0.0000E+00.
  No accuracy for fermi level given. Defaulting to  0.1000E-19.
  Maximum # of iterations to find E_F not set. Defaulting to  200.
  Preferred method for the eigenvalue solver ('KS_method') not specified in 'control.in'.
  Calling BLACS routine to test compilation state
  Since ScaLAPACK support is enabled, defaulting to ELPA (via ELSI).
  Will not use alltoall communication since running on < 1024 CPUs.
  Threshold for basis singularities not set.
  Default threshold for basis singularities:  0.1000E-04
  partition_type (choice of integration weights) for integrals was not specified.
  | Using a version of the partition function of Stratmann and coworkers ('stratmann_sparse').
  | At each grid point, the set of atoms used to build the partition table is smoothly restricted to
  | only those atoms whose free-atom density would be non-zero at that grid point.
  Partitioning for Hartree potential was not defined. Using partition_type for integrals.
  | Adjusted default value of keyword multip_moments_threshold to:       0.10000000E-11
  | This value may affect high angular momentum components of the Hartree potential in periodic systems.
  No q(lm)/r^(l+1) cutoff set for long-range Hartree potential.
  | Using default value of  0.100000E-09 .
  | Verify using the multipole_threshold keyword.
  Defaulting to new monopole extrapolation.
  Density update method: automatic selection selected.
  Charge integration errors on the 3D integration grid will be compensated
  by explicit normalization and distribution of residual charges.
  Use the "compensate_multipole_errors" flag to change this behaviour.
  Set 'collect_eigenvectors' to be '.true.' for use_density_matrix .false.
 
  Consistency checks for the contents of geometry.in are next.
 
  Number of empty states per atom not set in control.in - providing a guess from actual geometry.
  | Total number of empty states used during s.c.f. cycle:       36
  If you use a very high smearing, use empty_states (per atom!) in control.in to increase this value.

  Structure-dependent array size parameters: 
  | Maximum number of distinct radial functions  :       14
  | Maximum number of basis functions            :      180
  | Number of Kohn-Sham states (occupied + empty):       96
------------------------------------------------------------

------------------------------------------------------------
          Preparing all fixed parts of the calculation.
------------------------------------------------------------
  Determining machine precision:
    2.225073858507201E-308
  Setting up grids for atomic and cluster calculations.

  Creating wave function, potential, and density for free atoms.

  Species: Al

  List of occupied orbitals and eigenvalues:
    n    l              occ      energy [Ha]    energy [eV]
    1    0           2.0000       -55.621123     -1513.5278
    2    0           2.0000        -3.957030      -107.6763
    3    0           2.0000        -0.272233        -7.4078
    2    1           6.0000        -2.540949       -69.1427
    3    1           1.0000        -0.083300        -2.2667


  Species: F

  List of occupied orbitals and eigenvalues:
    n    l              occ      energy [Ha]    energy [eV]
    1    0           2.0000       -24.399611      -663.9472
    2    0           2.0000        -1.098702       -29.8972
    2    1           5.0000        -0.408210       -11.1080


  Adding cutoff potential to free-atom effective potential.
  Creating fixed part of basis set: Ionic, confined, hydrogenic.
 
  Al                   ion:

  List of free ionic orbitals and eigenvalues:
    n    l      energy [Ha]    energy [eV]
    1    0       -56.418846     -1535.2349
    2    0        -4.732717      -128.7838
    3    0        -0.872690       -23.7471
    2    1        -3.317230       -90.2664


  List of ionic basis orbitals and eigenvalues:
    n    l      energy [Ha]    energy [eV]    outer radius [A]
    3    2        -0.346815        -9.4373       4.594041
    3    1        -0.631870       -17.1940       4.538221
    3    0        -0.872657       -23.7462       4.538221

 
  F                    hydrogenic:
 
  List of hydrogenic basis orbitals: 
    n    l      effective z      eigenvalue [eV]  inner max. [A]     outer max. [A]     outer radius [A]   
    2    1         1.700000        -9.7616           1.243167           1.243167           4.598524
    3    2         7.400000       -82.7828           0.642437           0.642437           3.305741
    3    0         6.800000       -69.9026           0.057798           1.022307           3.781556
 
  Creating atomic-like basis functions for current effective potential.

  Species Al                  :

  List of atomic basis orbitals and eigenvalues:
    n    l      energy [Ha]    energy [eV]    outer radius [A]
    1    0       -55.621123     -1513.5278       0.850197
    2    0        -3.957030      -107.6763       3.144911
    3    0        -0.272233        -7.4078       4.594041
    2    1        -2.540949       -69.1427       3.731966
    3    1        -0.083300        -2.2667       4.594041


  Species F                   :

  List of atomic basis orbitals and eigenvalues:
    n    l      energy [Ha]    energy [eV]    outer radius [A]
    1    0       -24.399611      -663.9472       1.258458
    2    0        -1.098702       -29.8972       4.325857
    2    1        -0.408210       -11.1080       4.487453

  Assembling full basis from fixed parts.
  | Species Al :   atomic orbital   1 s accepted.
  | Species Al :   atomic orbital   2 s accepted.
  | Species Al :    ionic orbital   3 s accepted.
  | Species Al :   atomic orbital   3 s accepted.
  | Species Al :   atomic orbital   2 p accepted.
  | Species Al :    ionic orbital   3 p accepted.
  | Species Al :   atomic orbital   3 p accepted.
  | Species Al :    ionic orbital   3 d accepted.
  | Species F :   atomic orbital   1 s accepted.
  | Species F :    hydro orbital   3 s accepted.
  | Species F :   atomic orbital   2 s accepted.
  | Species F :   atomic orbital   2 p accepted.
  | Species F :    hydro orbital   2 p accepted.
  | Species F :    hydro orbital   3 d accepted.
 
  Basis size parameters after reduction:
  | Total number of radial functions:       14
  | Total number of basis functions :      180
 
  Per-task memory consumption for arrays in subroutine allocate_ext:
  |           4.807768MB.
  Testing on-site integration grid accuracy.
  |  Species  Function  <phi|h_atom|phi> (log., in eV)  <phi|h_atom|phi> (rad., in eV)
           1        1              -1513.5277717935              -1513.5271881332
           1        2               -107.6762691836               -107.6762662489
           1        3                 -6.9467474784                 -6.9471269649
           1        4                  5.5771951849                  5.4862107220 ***
           1        5                -69.1427313144                -69.1427312731
           1        6                 -1.5197375330                 -1.5230432022
           1        7                  6.8210948310                  6.5529872240 ***
           1        8                  4.3216540965                  4.2851170187 ***
           2        9               -663.9471986398               -663.9470363334
           2       10                 16.8514011578                 16.8512525338
           2       11                -28.4490593856                -28.4490661472
           2       12                -11.1080115307                -11.1080620173
           2       13                  7.1940182175                  7.1685154137
           2       14                 44.8544281765                 44.8543763625
 * Note: Onsite integrals marked "***" above are less accurate than
 * onsite_accuracy_threshold =    0.03000 eV. Usually, this is harmless.
 * When in doubt, tighten the "radial" and/or "radial_multiplier" flags to check.

  Preparing densities etc. for the partition functions (integrals / Hartree potential).

  Preparations completed.
  max(cpu_time)          :      0.184 s.
  Wall clock time (cpu1) :      0.184 s.
------------------------------------------------------------

------------------------------------------------------------
          Begin self-consistency loop: Initialization.

          Date     :  20220517, Time     :  111709.268
------------------------------------------------------------

  Initializing index lists of integration centers etc. from given atomic structure:
  | Number of centers in hartree potential         :        12
  | Number of centers in hartree multipole         :        12
  | Number of centers in electron density summation:        12
  | Number of centers in basis integrals           :        12
  | Number of centers in integrals                 :        12
  | Number of centers in hamiltonian               :        12
  * Using 24 tasks for Scalapack Eigenvalue solver.
  Detailed listing of tasks and assigned k-points:
  (for non-periodic systems, the "k-point" denotes an internal label only)
   Task     0 k-point     1 on node-k98a-025
   Task     1 k-point     1 on node-k98a-025
   Task     2 k-point     1 on node-k98a-025
   Task     3 k-point     1 on node-k98a-025
   Task     4 k-point     1 on node-k98a-025
   Task     5 k-point     1 on node-k98a-025
   Task     6 k-point     1 on node-k98a-025
   Task     7 k-point     1 on node-k98a-025
   Task     8 k-point     1 on node-k98a-025
   Task     9 k-point     1 on node-k98a-025
   Task    10 k-point     1 on node-k98a-025
   Task    11 k-point     1 on node-k98a-025
   Task    12 k-point     1 on node-k98a-025
   Task    13 k-point     1 on node-k98a-025
   Task    14 k-point     1 on node-k98a-025
   Task    15 k-point     1 on node-k98a-025
   Task    16 k-point     1 on node-k98a-025
   Task    17 k-point     1 on node-k98a-025
   Task    18 k-point     1 on node-k98a-025
   Task    19 k-point     1 on node-k98a-025
   Task    20 k-point     1 on node-k98a-025
   Task    21 k-point     1 on node-k98a-025
   Task    22 k-point     1 on node-k98a-025
   Task    23 k-point     1 on node-k98a-025
  Tasks:    24 split into      6 X      4 BLACS grid
  Calculating block size based on n_basis =          180  max_nprow =            6  max_npcol =            4
  ScaLAPACK block size set to:           16
  Allocating        0.012 MB for ovlp
  Allocating        0.012 MB for ham
  Allocating        0.012 MB for eigenvec
  Required Scalapack workspace - INTEGER:            1  REAL:             1
  Partitioning the integration grid into batches with parallel hashing+maxmin method.
  | Number of batches:     1070
  | Maximal batch size:     191
  | Minimal batch size:      20
  | Average batch size:      85.907
  | Standard deviation of batch sizes:      26.602

  Integration load balanced across    24 MPI tasks.
  Work distribution over tasks is as follows:
  Task     0 has       3778 integration points.
  Task     1 has       3793 integration points.
  Task     2 has       3802 integration points.
  Task     3 has       3788 integration points.
  Task     4 has       3843 integration points.
  Task     5 has       3898 integration points.
  Task     6 has       3780 integration points.
  Task     7 has       3895 integration points.
  Task     8 has       3783 integration points.
  Task     9 has       3787 integration points.
  Task    10 has       3777 integration points.
  Task    11 has       3904 integration points.
  Task    12 has       3898 integration points.
  Task    13 has       3864 integration points.
  Task    14 has       3770 integration points.
  Task    15 has       3893 integration points.
  Task    16 has       3779 integration points.
  Task    17 has       3772 integration points.
  Task    18 has       3882 integration points.
  Task    19 has       3785 integration points.
  Task    20 has       3895 integration points.
  Task    21 has       3771 integration points.
  Task    22 has       3873 integration points.
  Task    23 has       3910 integration points.
  Initializing partition tables, free-atom densities, potentials, etc. across the integration grid (initialize_grid_storage).
  | initialize_grid_storage: Actual outermost partition radius vs. multipole_radius_free
  | (-- VB: in principle, multipole_radius_free should be larger, hence this output)
  | Species        1: Confinement radius =              4.999999999999999 AA, multipole_radius_free =              5.004487022111096 AA.
  | Species        1: outer_partition_radius set to              5.004487022111096 AA .
  | Species        2: Confinement radius =              4.999999999999999 AA, multipole_radius_free =              5.009370088163274 AA.
  | Species        2: outer_partition_radius set to              5.009370088163274 AA .
  | The sparse table of interatomic distances needs          1.64 kbyte instead of         1.15 kbyte of memory.
  | Using the partition_type stratmann_smoother will reduce your memory usage.
  | Net number of integration points:    91920
  | of which are non-zero points    :    85868
  Renormalizing the initial density to the exact electron count on the 3D integration grid.
  | Initial density: Formal number of electrons (from input files) :     120.0000000000
  | Integrated number of electrons on 3D grid     :     119.9999179684
  | Charge integration error                      :      -0.0000820316
  | Normalization factor for density and gradient :       1.0000006836
  Renormalizing the free-atom superposition density to the exact electron count on the 3D integration grid.
  | Formal number of electrons (from input files) :     120.0000000000
  | Integrated number of electrons on 3D grid     :     119.9999179684
  | Charge integration error                      :      -0.0000820316
  | Normalization factor for density and gradient :       1.0000006836
  Obtaining max. number of non-zero basis functions in each batch (get_n_compute_maxes).
  | Maximal number of non-zero basis functions:      161 in task     0
  | Maximal number of non-zero basis functions:      165 in task     1
  | Maximal number of non-zero basis functions:      153 in task     2
  | Maximal number of non-zero basis functions:      164 in task     3
  | Maximal number of non-zero basis functions:      165 in task     4
  | Maximal number of non-zero basis functions:      165 in task     5
  | Maximal number of non-zero basis functions:      164 in task     6
  | Maximal number of non-zero basis functions:      160 in task     7
  | Maximal number of non-zero basis functions:      164 in task     8
  | Maximal number of non-zero basis functions:      164 in task     9
  | Maximal number of non-zero basis functions:      166 in task    10
  | Maximal number of non-zero basis functions:      164 in task    11
  | Maximal number of non-zero basis functions:      157 in task    12
  | Maximal number of non-zero basis functions:      161 in task    13
  | Maximal number of non-zero basis functions:      160 in task    14
  | Maximal number of non-zero basis functions:      159 in task    15
  | Maximal number of non-zero basis functions:      160 in task    16
  | Maximal number of non-zero basis functions:      154 in task    17
  | Maximal number of non-zero basis functions:      156 in task    18
  | Maximal number of non-zero basis functions:      158 in task    19
  | Maximal number of non-zero basis functions:      161 in task    20
  | Maximal number of non-zero basis functions:      163 in task    21
  | Maximal number of non-zero basis functions:      164 in task    22
  | Maximal number of non-zero basis functions:      165 in task    23
  Selecting the method for density update.
  Loop over occupied states selected for charge density update.
  Allocating        0.132 MB for KS_eigenvector
  Integrating Hamiltonian matrix: batch-based integration.
  Time summed over all CPUs for integration: real work        0.681 s, elapsed        0.721 s
  Integrating overlap matrix.
  Time summed over all CPUs for integration: real work        0.261 s, elapsed        0.279 s
  Deallocating overlap matrix.

  Updating Kohn-Sham eigenvalues and eigenvectors using ELSI and the ELPA eigensolver.
  Overlap matrix is not singular
  | Lowest and highest eigenvalues :  0.3423E-02,  0.4859E+01
  Finished singularity check of overlap matrix
  | Time :     0.004 s
  Starting ELPA eigensolver
  Finished Cholesky decomposition
  | Time :     0.002 s
  Finished transformation to standard eigenproblem
  | Time :     0.000 s
  Finished solving standard eigenproblem
  | Time :     0.004 s
  Finished back-transformation of eigenvectors
  | Time :     0.000 s

  Obtaining occupation numbers and chemical potential using ELSI.
  | Chemical potential (Fermi level):    -7.65115708 eV
  Writing Kohn-Sham eigenvalues.

  State    Occupation    Eigenvalue [Ha]    Eigenvalue [eV]
      1       2.00000         -55.485738        -1509.84375
      2       2.00000         -55.484012        -1509.79679
      3       2.00000         -55.484009        -1509.79671
      4       2.00000         -24.359745         -662.86238
      5       2.00000         -24.359690         -662.86088
      6       2.00000         -24.359655         -662.85994
      7       2.00000         -24.359654         -662.85990
      8       2.00000         -24.343054         -662.40821
      9       2.00000         -24.342752         -662.39999
     10       2.00000         -24.340586         -662.34106
     11       2.00000         -24.339160         -662.30224
     12       2.00000         -24.338322         -662.27945
     13       2.00000          -3.951399         -107.52304
     14       2.00000          -3.949111         -107.46077
     15       2.00000          -3.949106         -107.46064
     16       2.00000          -2.543939          -69.22410
     17       2.00000          -2.543196          -69.20388
     18       2.00000          -2.542752          -69.19180
     19       2.00000          -2.541701          -69.16319
     20       2.00000          -2.541653          -69.16191
     21       2.00000          -2.541396          -69.15491
     22       2.00000          -2.541292          -69.15208
     23       2.00000          -2.539884          -69.11376
     24       2.00000          -2.539844          -69.11267
     25       2.00000          -1.190875          -32.40535
     26       2.00000          -1.181039          -32.13771
     27       2.00000          -1.178294          -32.06301
     28       2.00000          -1.170306          -31.84565
     29       2.00000          -1.152656          -31.36537
     30       2.00000          -1.152207          -31.35315
     31       2.00000          -1.149041          -31.26699
     32       2.00000          -1.146736          -31.20426
     33       2.00000          -1.145568          -31.17249
     34       2.00000          -0.556276          -15.13705
     35       2.00000          -0.549369          -14.94908
     36       2.00000          -0.538979          -14.66638
     37       2.00000          -0.533120          -14.50693
     38       2.00000          -0.515243          -14.02047
     39       2.00000          -0.504416          -13.72586
     40       2.00000          -0.498016          -13.55171
     41       2.00000          -0.495913          -13.49447
     42       2.00000          -0.493051          -13.41661
     43       2.00000          -0.487562          -13.26724
     44       2.00000          -0.484982          -13.19704
     45       2.00000          -0.482803          -13.13775
     46       2.00000          -0.480387          -13.07199
     47       2.00000          -0.476568          -12.96807
     48       2.00000          -0.475742          -12.94560
     49       2.00000          -0.472179          -12.84865
     50       2.00000          -0.466199          -12.68593
     51       2.00000          -0.456188          -12.41350
     52       2.00000          -0.455468          -12.39390
     53       2.00000          -0.454775          -12.37506
     54       2.00000          -0.453362          -12.33660
     55       2.00000          -0.450221          -12.25113
     56       2.00000          -0.450068          -12.24697
     57       2.00000          -0.448227          -12.19689
     58       2.00000          -0.447250          -12.17029
     59       2.00000          -0.447194          -12.16876
     60       2.00000          -0.445909          -12.13381
     61       0.00000          -0.136201           -3.70622
     62       0.00000          -0.107200           -2.91707
     63       0.00000          -0.061056           -1.66141
     64       0.00000          -0.027046           -0.73596
     65       0.00000          -0.021541           -0.58615
     66       0.00000          -0.007042           -0.19162
     67       0.00000          -0.005720           -0.15565
     68       0.00000           0.039467            1.07394
     69       0.00000           0.048956            1.33217
     70       0.00000           0.065225            1.77486
     71       0.00000           0.083133            2.26216
     72       0.00000           0.119966            3.26444
     73       0.00000           0.144415            3.92973
     74       0.00000           0.152991            4.16309
     75       0.00000           0.172859            4.70373
     76       0.00000           0.173991            4.73453
     77       0.00000           0.174911            4.75957
     78       0.00000           0.180749            4.91842
     79       0.00000           0.190820            5.19247
     80       0.00000           0.202261            5.50381
     81       0.00000           0.206502            5.61921
     82       0.00000           0.214847            5.84629
     83       0.00000           0.224745            6.11564
     84       0.00000           0.232635            6.33033
     85       0.00000           0.251347            6.83951
     86       0.00000           0.267591            7.28151
     87       0.00000           0.269720            7.33945
     88       0.00000           0.273372            7.43883
     89       0.00000           0.281552            7.66141
     90       0.00000           0.292340            7.95499
     91       0.00000           0.294227            8.00633
     92       0.00000           0.304423            8.28377
     93       0.00000           0.337954            9.19619
     94       0.00000           0.347667            9.46051
     95       0.00000           0.363585            9.89366
     96       0.00000           0.373425           10.16140

  Highest occupied state (VBM) at    -12.13381158 eV
  | Occupation number:      2.00000000

  Lowest unoccupied state (CBM) at    -3.70621698 eV
  | Occupation number:      0.00000000

  Overall HOMO-LUMO gap:      8.42759459 eV.
  Calculating total energy contributions from superposition of free atom densities.

  Total energy components:
  | Sum of eigenvalues            :        -887.61567580 Ha      -24153.25144236 eV
  | XC energy correction          :        -144.33737308 Ha       -3927.61975650 eV
  | XC potential correction       :         187.93506088 Ha        5113.97320251 eV
  | Free-atom electrostatic energy:        -781.34679625 Ha      -21261.52810073 eV
  | Hartree energy correction     :           0.00000000 Ha           0.00000000 eV
  | Entropy correction            :           0.00000000 Ha           0.00000000 eV
  | ---------------------------
  | Total energy                  :       -1625.36478425 Ha      -44228.42609708 eV
  | Total energy, T -> 0          :       -1625.36478425 Ha      -44228.42609708 eV  <-- do not rely on this value for anything but (periodic) metals
  | Electronic free energy        :       -1625.36478425 Ha      -44228.42609708 eV

  Derived energy quantities:
  | Kinetic energy                :        1627.61448462 Ha       44289.64355871 eV
  | Electrostatic energy          :       -3108.64189579 Ha      -84590.44989928 eV
  | Energy correction for multipole
  | error in Hartree potential    :           0.00000000 Ha           0.00000000 eV
  | Sum of eigenvalues per atom                           :       -2012.77095353 eV
  | Total energy (T->0) per atom                          :       -3685.70217476 eV  <-- do not rely on this value for anything but (periodic) metals
  | Electronic free energy per atom                       :       -3685.70217476 eV
  Initialize hartree_potential_storage
  Max. number of atoms included in rho_multipole:           12

  End scf initialization - timings             :  max(cpu_time)    wall_clock(cpu1)
  | Time for scf. initialization                :        0.110 s           0.110 s
  | Boundary condition initialization           :        0.000 s           0.000 s
  | Integration                                 :        0.043 s           0.043 s
  | Solution of K.-S. eqns.                     :        0.012 s           0.012 s
  | Grid partitioning                           :        0.033 s           0.033 s
  | Preloading free-atom quantities on grid     :        0.015 s           0.015 s
  | Free-atom superposition energy              :        0.005 s           0.005 s
  | Total energy evaluation                     :        0.000 s           0.000 s

  Partial memory accounting:
  | Current value for overall tracked memory usage:
  |   Minimum:        0.273 MB (on task 23)
  |   Maximum:        0.292 MB (on task  0)
  |   Average:        0.287 MB
  | Peak value for overall tracked memory usage:
  |   Minimum:        1.267 MB (on task  2 after allocating wave)
  |   Maximum:        1.356 MB (on task 10 after allocating wave)
  |   Average:        1.320 MB
  | Largest tracked array allocation so far:
  |   Minimum:        0.223 MB (H_times_psi on task  2)
  |   Maximum:        0.436 MB (all_coords on task 10)
  |   Average:        0.258 MB
  Note:  These values currently only include a subset of arrays which are explicitly tracked.
  The "true" memory usage will be greater.
------------------------------------------------------------
  Evaluating new KS density.
  Integration grid: deviation in total charge (<rho> - N_e) =   5.684342E-14

  Time for density update prior                :  max(cpu_time)    wall_clock(cpu1)
  | self-consistency iterative process          :        0.027 s           0.026 s

------------------------------------------------------------
          Begin self-consistency iteration #    1

  Date     :  20220517, Time     :  111709.405
------------------------------------------------------------
  Pulay mixing of updated and previous charge densities.
  Renormalizing the density to the exact electron count on the 3D integration grid.
  | Formal number of electrons (from input files) :     120.0000000000
  | Integrated number of electrons on 3D grid     :     120.0000000000
  | Charge integration error                      :       0.0000000000
  | Normalization factor for density and gradient :       1.0000000000

  Evaluating partitioned Hartree potential by multipole expansion.
  | Original multipole sum: apparent total charge =   0.138805E-12
  | Sum of charges compensated after spline to logarithmic grids =   0.983708E-04
  | Analytical far-field extrapolation by fixed multipoles:
  | Hartree multipole sum: apparent total charge =   0.140871E-12
  Summing up the Hartree potential.
  Time summed over all CPUs for potential: real work        0.382 s, elapsed        0.394 s
  | RMS charge density error from multipole expansion :   0.107011E-01

  Integrating Hamiltonian matrix: batch-based integration.
  Time summed over all CPUs for integration: real work        0.636 s, elapsed        0.672 s

  Updating Kohn-Sham eigenvalues and eigenvectors using ELSI and the ELPA eigensolver.
  Starting ELPA eigensolver
  Finished transformation to standard eigenproblem
  | Time :     0.000 s
  Finished solving standard eigenproblem
  | Time :     0.003 s
  Finished back-transformation of eigenvectors
  | Time :     0.001 s

  Obtaining occupation numbers and chemical potential using ELSI.
  | Chemical potential (Fermi level):    -7.74171319 eV
  Writing Kohn-Sham eigenvalues.

  State    Occupation    Eigenvalue [Ha]    Eigenvalue [eV]
      1       2.00000         -55.656087        -1514.47917
      2       2.00000         -55.641274        -1514.07609
      3       2.00000         -55.640448        -1514.05362
      4       2.00000         -24.227817         -659.27244
      5       2.00000         -24.227654         -659.26800
      6       2.00000         -24.227441         -659.26221
      7       2.00000         -24.227297         -659.25829
      8       2.00000         -24.079550         -655.23789
      9       2.00000         -24.075838         -655.13687
     10       2.00000         -24.068883         -654.94762
     11       2.00000         -24.068775         -654.94470
     12       2.00000         -24.068611         -654.94022
     13       2.00000          -4.095631         -111.44780
     14       2.00000          -4.080688         -111.04118
     15       2.00000          -4.079889         -111.01943
     16       2.00000          -2.689877          -73.19528
     17       2.00000          -2.687697          -73.13596
     18       2.00000          -2.687317          -73.12562
     19       2.00000          -2.674245          -72.76991
     20       2.00000          -2.673882          -72.76004
     21       2.00000          -2.673443          -72.74809
     22       2.00000          -2.673076          -72.73811
     23       2.00000          -2.671856          -72.70490
     24       2.00000          -2.671062          -72.68330
     25       2.00000          -1.161277          -31.59996
     26       2.00000          -1.149490          -31.27922
     27       2.00000          -1.144181          -31.13475
     28       2.00000          -1.134756          -30.87829
     29       2.00000          -1.026953          -27.94481
     30       2.00000          -1.022915          -27.83494
     31       2.00000          -1.016052          -27.64819
     32       2.00000          -1.013698          -27.58413
     33       2.00000          -1.013545          -27.57997
     34       2.00000          -0.544888          -14.82716
     35       2.00000          -0.532573          -14.49204
     36       2.00000          -0.519582          -14.13853
     37       2.00000          -0.512819          -13.95451
     38       2.00000          -0.485459          -13.21002
     39       2.00000          -0.469719          -12.78171
     40       2.00000          -0.466917          -12.70547
     41       2.00000          -0.446423          -12.14778
     42       2.00000          -0.446204          -12.14184
     43       2.00000          -0.443461          -12.06720
     44       2.00000          -0.438756          -11.93917
     45       2.00000          -0.425947          -11.59060
     46       2.00000          -0.400545          -10.89937
     47       2.00000          -0.394771          -10.74226
     48       2.00000          -0.375698          -10.22327
     49       2.00000          -0.367579          -10.00234
     50       2.00000          -0.366081           -9.96157
     51       2.00000          -0.338188           -9.20257
     52       2.00000          -0.337149           -9.17429
     53       2.00000          -0.335342           -9.12511
     54       2.00000          -0.333641           -9.07883
     55       2.00000          -0.325182           -8.84866
     56       2.00000          -0.324217           -8.82241
     57       2.00000          -0.322710           -8.78138
     58       2.00000          -0.321863           -8.75833
     59       2.00000          -0.319955           -8.70642
     60       2.00000          -0.319402           -8.69137
     61       0.00000          -0.145897           -3.97007
     62       0.00000          -0.104117           -2.83317
     63       0.00000          -0.068606           -1.86687
     64       0.00000          -0.039707           -1.08047
     65       0.00000          -0.033368           -0.90799
     66       0.00000          -0.015303           -0.41642
     67       0.00000          -0.013115           -0.35687
     68       0.00000           0.027083            0.73697
     69       0.00000           0.034183            0.93017
     70       0.00000           0.061131            1.66347
     71       0.00000           0.063854            1.73755
     72       0.00000           0.107187            2.91669
     73       0.00000           0.137462            3.74054
     74       0.00000           0.144592            3.93455
     75       0.00000           0.169615            4.61545
     76       0.00000           0.173137            4.71131
     77       0.00000           0.176438            4.80112
     78       0.00000           0.180676            4.91645
     79       0.00000           0.194774            5.30007
     80       0.00000           0.197105            5.36350
     81       0.00000           0.202731            5.51660
     82       0.00000           0.215382            5.86085
     83       0.00000           0.215615            5.86717
     84       0.00000           0.226821            6.17212
     85       0.00000           0.240980            6.55741
     86       0.00000           0.249175            6.78041
     87       0.00000           0.252902            6.88182
     88       0.00000           0.256883            6.99013
     89       0.00000           0.264792            7.20537
     90       0.00000           0.273044            7.42990
     91       0.00000           0.296390            8.06518
     92       0.00000           0.306896            8.35106
     93       0.00000           0.322867            8.78567
     94       0.00000           0.358831            9.76428
     95       0.00000           0.369388           10.05155
     96       0.00000           0.372077           10.12474

  Highest occupied state (VBM) at     -8.69136533 eV
  | Occupation number:      2.00000000

  Lowest unoccupied state (CBM) at    -3.97006769 eV
  | Occupation number:      0.00000000

  Overall HOMO-LUMO gap:      4.72129764 eV.

  Total energy components:
  | Sum of eigenvalues            :        -882.33255657 Ha      -24009.49045366 eV
  | XC energy correction          :        -145.66146603 Ha       -3963.65015899 eV
  | XC potential correction       :         189.67568620 Ha        5161.33802749 eV
  | Free-atom electrostatic energy:        -781.34679625 Ha      -21261.52810073 eV
  | Hartree energy correction     :          -5.49235435 Ha        -149.45456592 eV
  | Entropy correction            :           0.00000000 Ha           0.00000000 eV
  | ---------------------------
  | Total energy                  :       -1625.15748700 Ha      -44222.78525180 eV
  | Total energy, T -> 0          :       -1625.15748700 Ha      -44222.78525180 eV  <-- do not rely on this value for anything but (periodic) metals
  | Electronic free energy        :       -1625.15748700 Ha      -44222.78525180 eV

  Derived energy quantities:
  | Kinetic energy                :        1633.93844663 Ha       44461.72732068 eV
  | Electrostatic energy          :       -3113.43446760 Ha      -84720.86241349 eV
  | Energy correction for multipole
  | error in Hartree potential    :           0.04171106 Ha           1.13501570 eV
  | Sum of eigenvalues per atom                           :       -2000.79087114 eV
  | Total energy (T->0) per atom                          :       -3685.23210432 eV  <-- do not rely on this value for anything but (periodic) metals
  | Electronic free energy per atom                       :       -3685.23210432 eV
  Evaluating new KS density.
  Integration grid: deviation in total charge (<rho> - N_e) =   4.263256E-14

  Self-consistency convergence accuracy:
  | Change of charge density      :  0.5960E+00
  | Change of sum of eigenvalues  :  0.1438E+03 eV
  | Change of total energy        :  0.5641E+01 eV


------------------------------------------------------------
  End self-consistency iteration #     1       :  max(cpu_time)    wall_clock(cpu1)
  | Time for this iteration                     :        0.078 s           0.079 s
  | Charge density update                       :        0.026 s           0.026 s
  | Density mixing                              :        0.001 s           0.001 s
  | Hartree multipole update                    :        0.001 s           0.001 s
  | Hartree multipole summation                 :        0.017 s           0.017 s
  | Integration                                 :        0.028 s           0.029 s
  | Solution of K.-S. eqns.                     :        0.004 s           0.004 s
  | Total energy evaluation                     :        0.000 s           0.001 s

  Partial memory accounting:
  | Current value for overall tracked memory usage:
  |   Minimum:        0.273 MB (on task 23)
  |   Maximum:        0.292 MB (on task  0)
  |   Average:        0.287 MB
  | Peak value for overall tracked memory usage:
  |   Minimum:        1.267 MB (on task  2 after allocating wave)
  |   Maximum:        1.356 MB (on task 10 after allocating wave)
  |   Average:        1.320 MB
  | Largest tracked array allocation so far:
  |   Minimum:        0.669 MB (gradient_basis_wave on task  2)
  |   Maximum:        0.726 MB (gradient_basis_wave on task 10)
  |   Average:        0.705 MB
  Note:  These values currently only include a subset of arrays which are explicitly tracked.
  The "true" memory usage will be greater.
------------------------------------------------------------

------------------------------------------------------------
          Begin self-consistency iteration #    2

  Date     :  20220517, Time     :  111709.489
------------------------------------------------------------
  Pulay mixing of updated and previous charge densities.
  Renormalizing the density to the exact electron count on the 3D integration grid.
  | Formal number of electrons (from input files) :     120.0000000000
  | Integrated number of electrons on 3D grid     :     120.0000000000
  | Charge integration error                      :      -0.0000000000
  | Normalization factor for density and gradient :       1.0000000000

  Evaluating partitioned Hartree potential by multipole expansion.
  | Original multipole sum: apparent total charge =   0.287794E-13
  | Sum of charges compensated after spline to logarithmic grids =   0.603873E-04
  | Analytical far-field extrapolation by fixed multipoles:
  | Hartree multipole sum: apparent total charge =   0.289269E-13
  Summing up the Hartree potential.
  Time summed over all CPUs for potential: real work        0.381 s, elapsed        0.394 s
  | RMS charge density error from multipole expansion :   0.125742E-01

  Integrating Hamiltonian matrix: batch-based integration.
  Time summed over all CPUs for integration: real work        0.636 s, elapsed        0.674 s

  Updating Kohn-Sham eigenvalues and eigenvectors using ELSI and the ELPA eigensolver.
  Starting ELPA eigensolver
  Finished transformation to standard eigenproblem
  | Time :     0.000 s
  Finished solving standard eigenproblem
  | Time :     0.004 s
  Finished back-transformation of eigenvectors
  | Time :     0.000 s

  Obtaining occupation numbers and chemical potential using ELSI.
  | Chemical potential (Fermi level):    -7.79642090 eV
  Highest occupied state (VBM) at     -9.87341773 eV
  | Occupation number:      2.00000000

  Lowest unoccupied state (CBM) at    -4.17572812 eV
  | Occupation number:      0.00000000

  Overall HOMO-LUMO gap:      5.69768961 eV.

  Checking to see if s.c.f. parameters should be adjusted.

  Total energy components:
  | Sum of eigenvalues            :        -885.44482741 Ha      -24094.17965212 eV
  | XC energy correction          :        -145.17145212 Ha       -3950.31620200 eV
  | XC potential correction       :         189.03096615 Ha        5143.79430231 eV
  | Free-atom electrostatic energy:        -781.34679625 Ha      -21261.52810073 eV
  | Hartree energy correction     :          -2.16235765 Ha         -58.84074533 eV
  | Entropy correction            :           0.00000000 Ha           0.00000000 eV
  | ---------------------------
  | Total energy                  :       -1625.09446728 Ha      -44221.07039788 eV
  | Total energy, T -> 0          :       -1625.09446728 Ha      -44221.07039788 eV  <-- do not rely on this value for anything but (periodic) metals
  | Electronic free energy        :       -1625.09446728 Ha      -44221.07039788 eV

  Derived energy quantities:
  | Kinetic energy                :        1630.07857975 Ha       44356.69499869 eV
  | Electrostatic energy          :       -3110.00159490 Ha      -84627.44919456 eV
  | Energy correction for multipole
  | error in Hartree potential    :           0.04589691 Ha           1.24891844 eV
  | Sum of eigenvalues per atom                           :       -2007.84830434 eV
  | Total energy (T->0) per atom                          :       -3685.08919982 eV  <-- do not rely on this value for anything but (periodic) metals
  | Electronic free energy per atom                       :       -3685.08919982 eV
  Evaluating new KS density.
  Integration grid: deviation in total charge (<rho> - N_e) =   0.000000E+00

  Self-consistency convergence accuracy:
  | Change of charge density      :  0.4715E+00
  | Change of sum of eigenvalues  : -0.8469E+02 eV
  | Change of total energy        :  0.1715E+01 eV


------------------------------------------------------------
  End self-consistency iteration #     2       :  max(cpu_time)    wall_clock(cpu1)
  | Time for this iteration                     :        0.082 s           0.079 s
  | Charge density update                       :        0.026 s           0.026 s
  | Density mixing                              :        0.005 s           0.002 s
  | Hartree multipole update                    :        0.001 s           0.002 s
  | Hartree multipole summation                 :        0.017 s           0.016 s
  | Integration                                 :        0.028 s           0.029 s
  | Solution of K.-S. eqns.                     :        0.004 s           0.004 s
  | Total energy evaluation                     :        0.000 s           0.000 s

  Partial memory accounting:
  | Current value for overall tracked memory usage:
  |   Minimum:        0.274 MB (on task 23)
  |   Maximum:        0.293 MB (on task  0)
  |   Average:        0.288 MB
  | Peak value for overall tracked memory usage:
  |   Minimum:        1.267 MB (on task  2 after allocating wave)
  |   Maximum:        1.356 MB (on task 10 after allocating wave)
  |   Average:        1.320 MB
  | Largest tracked array allocation so far:
  |   Minimum:        0.669 MB (gradient_basis_wave on task  2)
  |   Maximum:        0.726 MB (gradient_basis_wave on task 10)
  |   Average:        0.705 MB
  Note:  These values currently only include a subset of arrays which are explicitly tracked.
  The "true" memory usage will be greater.
------------------------------------------------------------

------------------------------------------------------------
          Begin self-consistency iteration #    3

  Date     :  20220517, Time     :  111709.574
------------------------------------------------------------
  Pulay mixing of updated and previous charge densities.
  Renormalizing the density to the exact electron count on the 3D integration grid.
  | Formal number of electrons (from input files) :     120.0000000000
  | Integrated number of electrons on 3D grid     :     120.0000000000
  | Charge integration error                      :       0.0000000000
  | Normalization factor for density and gradient :       1.0000000000

  Evaluating partitioned Hartree potential by multipole expansion.
  | Original multipole sum: apparent total charge =   0.126678E-12
  | Sum of charges compensated after spline to logarithmic grids =   0.777944E-04
  | Analytical far-field extrapolation by fixed multipoles:
  | Hartree multipole sum: apparent total charge =   0.127023E-12
  Summing up the Hartree potential.
  Time summed over all CPUs for potential: real work        0.381 s, elapsed        0.394 s
  | RMS charge density error from multipole expansion :   0.174164E-01

  Integrating Hamiltonian matrix: batch-based integration.
  Time summed over all CPUs for integration: real work        0.636 s, elapsed        0.675 s

  Updating Kohn-Sham eigenvalues and eigenvectors using ELSI and the ELPA eigensolver.
  Starting ELPA eigensolver
  Finished transformation to standard eigenproblem
  | Time :     0.000 s
  Finished solving standard eigenproblem
  | Time :     0.004 s
  Finished back-transformation of eigenvectors
  | Time :     0.000 s

  Obtaining occupation numbers and chemical potential using ELSI.
  | Chemical potential (Fermi level):    -7.99323594 eV
  Highest occupied state (VBM) at     -9.57576442 eV
  | Occupation number:      2.00000000

  Lowest unoccupied state (CBM) at    -4.38338255 eV
  | Occupation number:      0.00000000

  Overall HOMO-LUMO gap:      5.19238187 eV.

  Total energy components:
  | Sum of eigenvalues            :        -886.43015961 Ha      -24120.99190550 eV
  | XC energy correction          :        -145.13699227 Ha       -3949.37850193 eV
  | XC potential correction       :         188.98434504 Ha        5142.52567733 eV
  | Free-atom electrostatic energy:        -781.34679625 Ha      -21261.52810073 eV
  | Hartree energy correction     :          -1.16429356 Ha         -31.68203979 eV
  | Entropy correction            :           0.00000000 Ha           0.00000000 eV
  | ---------------------------
  | Total energy                  :       -1625.09389666 Ha      -44221.05487062 eV
  | Total energy, T -> 0          :       -1625.09389666 Ha      -44221.05487062 eV  <-- do not rely on this value for anything but (periodic) metals
  | Electronic free energy        :       -1625.09389666 Ha      -44221.05487062 eV

  Derived energy quantities:
  | Kinetic energy                :        1628.34067914 Ha       44309.40431696 eV
  | Electrostatic energy          :       -3108.29758352 Ha      -84581.08068565 eV
  | Energy correction for multipole
  | error in Hartree potential    :           0.06201417 Ha           1.68749138 eV
  | Sum of eigenvalues per atom                           :       -2010.08265879 eV
  | Total energy (T->0) per atom                          :       -3685.08790588 eV  <-- do not rely on this value for anything but (periodic) metals
  | Electronic free energy per atom                       :       -3685.08790588 eV
  Evaluating new KS density.
  Integration grid: deviation in total charge (<rho> - N_e) =   2.842171E-14

  Self-consistency convergence accuracy:
  | Change of charge density      :  0.1230E+00
  | Change of sum of eigenvalues  : -0.2681E+02 eV
  | Change of total energy        :  0.1553E-01 eV


------------------------------------------------------------
  End self-consistency iteration #     3       :  max(cpu_time)    wall_clock(cpu1)
  | Time for this iteration                     :        0.081 s           0.079 s
  | Charge density update                       :        0.026 s           0.027 s
  | Density mixing                              :        0.004 s           0.002 s
  | Hartree multipole update                    :        0.001 s           0.001 s
  | Hartree multipole summation                 :        0.017 s           0.016 s
  | Integration                                 :        0.028 s           0.029 s
  | Solution of K.-S. eqns.                     :        0.004 s           0.004 s
  | Total energy evaluation                     :        0.000 s           0.000 s

  Partial memory accounting:
  | Current value for overall tracked memory usage:
  |   Minimum:        0.274 MB (on task 23)
  |   Maximum:        0.293 MB (on task  0)
  |   Average:        0.288 MB
  | Peak value for overall tracked memory usage:
  |   Minimum:        1.267 MB (on task  2 after allocating wave)
  |   Maximum:        1.356 MB (on task 10 after allocating wave)
  |   Average:        1.320 MB
  | Largest tracked array allocation so far:
  |   Minimum:        0.669 MB (gradient_basis_wave on task  2)
  |   Maximum:        0.726 MB (gradient_basis_wave on task 10)
  |   Average:        0.705 MB
  Note:  These values currently only include a subset of arrays which are explicitly tracked.
  The "true" memory usage will be greater.
------------------------------------------------------------

------------------------------------------------------------
          Begin self-consistency iteration #    4

  Date     :  20220517, Time     :  111709.659
------------------------------------------------------------
  Pulay mixing of updated and previous charge densities.
  Renormalizing the density to the exact electron count on the 3D integration grid.
  | Formal number of electrons (from input files) :     120.0000000000
  | Integrated number of electrons on 3D grid     :     120.0000000000
  | Charge integration error                      :      -0.0000000000
  | Normalization factor for density and gradient :       1.0000000000

  Evaluating partitioned Hartree potential by multipole expansion.
  | Original multipole sum: apparent total charge =   0.674962E-13
  | Sum of charges compensated after spline to logarithmic grids =   0.838287E-04
  | Analytical far-field extrapolation by fixed multipoles:
  | Hartree multipole sum: apparent total charge =   0.655284E-13
  Summing up the Hartree potential.
  Time summed over all CPUs for potential: real work        0.381 s, elapsed        0.394 s
  | RMS charge density error from multipole expansion :   0.193151E-01

  Integrating Hamiltonian matrix: batch-based integration.
  Time summed over all CPUs for integration: real work        0.636 s, elapsed        0.674 s

  Updating Kohn-Sham eigenvalues and eigenvectors using ELSI and the ELPA eigensolver.
  Starting ELPA eigensolver
  Finished transformation to standard eigenproblem
  | Time :     0.001 s
  Finished solving standard eigenproblem
  | Time :     0.003 s
  Finished back-transformation of eigenvectors
  | Time :     0.000 s

  Obtaining occupation numbers and chemical potential using ELSI.
  | Chemical potential (Fermi level):    -7.94381531 eV
  Highest occupied state (VBM) at     -9.70205090 eV
  | Occupation number:      2.00000000

  Lowest unoccupied state (CBM) at    -4.33234200 eV
  | Occupation number:      0.00000000

  Overall HOMO-LUMO gap:      5.36970889 eV.

  Total energy components:
  | Sum of eigenvalues            :        -886.54466940 Ha      -24124.10787555 eV
  | XC energy correction          :        -145.12252240 Ha       -3948.98475652 eV
  | XC potential correction       :         188.96469107 Ha        5141.99086568 eV
  | Free-atom electrostatic energy:        -781.34679625 Ha      -21261.52810073 eV
  | Hartree energy correction     :          -1.04262546 Ha         -28.37128228 eV
  | Entropy correction            :           0.00000000 Ha           0.00000000 eV
  | ---------------------------
  | Total energy                  :       -1625.09192244 Ha      -44221.00114940 eV
  | Total energy, T -> 0          :       -1625.09192244 Ha      -44221.00114940 eV  <-- do not rely on this value for anything but (periodic) metals
  | Electronic free energy        :       -1625.09192244 Ha      -44221.00114940 eV

  Derived energy quantities:
  | Kinetic energy                :        1627.73157655 Ha       44292.82979218 eV
  | Electrostatic energy          :       -3107.70097659 Ha      -84564.84618506 eV
  | Energy correction for multipole
  | error in Hartree potential    :           0.06785422 Ha           1.84640728 eV
  | Sum of eigenvalues per atom                           :       -2010.34232296 eV
  | Total energy (T->0) per atom                          :       -3685.08342912 eV  <-- do not rely on this value for anything but (periodic) metals
  | Electronic free energy per atom                       :       -3685.08342912 eV
  Evaluating new KS density.
  Integration grid: deviation in total charge (<rho> - N_e) =  -1.421085E-14

  Self-consistency convergence accuracy:
  | Change of charge density      :  0.7917E-01
  | Change of sum of eigenvalues  : -0.3116E+01 eV
  | Change of total energy        :  0.5372E-01 eV


------------------------------------------------------------
  End self-consistency iteration #     4       :  max(cpu_time)    wall_clock(cpu1)
  | Time for this iteration                     :        0.080 s           0.078 s
  | Charge density update                       :        0.026 s           0.026 s
  | Density mixing                              :        0.004 s           0.002 s
  | Hartree multipole update                    :        0.001 s           0.001 s
  | Hartree multipole summation                 :        0.017 s           0.017 s
  | Integration                                 :        0.028 s           0.028 s
  | Solution of K.-S. eqns.                     :        0.004 s           0.004 s
  | Total energy evaluation                     :        0.000 s           0.000 s

  Partial memory accounting:
  | Current value for overall tracked memory usage:
  |   Minimum:        0.274 MB (on task 23)
  |   Maximum:        0.293 MB (on task  0)
  |   Average:        0.288 MB
  | Peak value for overall tracked memory usage:
  |   Minimum:        1.267 MB (on task  2 after allocating wave)
  |   Maximum:        1.356 MB (on task 10 after allocating wave)
  |   Average:        1.320 MB
  | Largest tracked array allocation so far:
  |   Minimum:        0.669 MB (gradient_basis_wave on task  2)
  |   Maximum:        0.726 MB (gradient_basis_wave on task 10)
  |   Average:        0.705 MB
  Note:  These values currently only include a subset of arrays which are explicitly tracked.
  The "true" memory usage will be greater.
------------------------------------------------------------

------------------------------------------------------------
          Begin self-consistency iteration #    5

  Date     :  20220517, Time     :  111709.743
------------------------------------------------------------
  Pulay mixing of updated and previous charge densities.
  Renormalizing the density to the exact electron count on the 3D integration grid.
  | Formal number of electrons (from input files) :     120.0000000000
  | Integrated number of electrons on 3D grid     :     120.0000000000
  | Charge integration error                      :      -0.0000000000
  | Normalization factor for density and gradient :       1.0000000000

  Evaluating partitioned Hartree potential by multipole expansion.
  | Original multipole sum: apparent total charge =   0.360603E-13
  | Sum of charges compensated after spline to logarithmic grids =   0.843660E-04
  | Analytical far-field extrapolation by fixed multipoles:
  | Hartree multipole sum: apparent total charge =   0.360111E-13
  Summing up the Hartree potential.
  Time summed over all CPUs for potential: real work        0.381 s, elapsed        0.394 s
  | RMS charge density error from multipole expansion :   0.191029E-01

  Integrating Hamiltonian matrix: batch-based integration.
  Time summed over all CPUs for integration: real work        0.636 s, elapsed        0.675 s

  Updating Kohn-Sham eigenvalues and eigenvectors using ELSI and the ELPA eigensolver.
  Starting ELPA eigensolver
  Finished transformation to standard eigenproblem
  | Time :     0.000 s
  Finished solving standard eigenproblem
  | Time :     0.003 s
  Finished back-transformation of eigenvectors
  | Time :     0.000 s

  Obtaining occupation numbers and chemical potential using ELSI.
  | Chemical potential (Fermi level):    -7.89425244 eV
  Highest occupied state (VBM) at     -9.74905333 eV
  | Occupation number:      2.00000000

  Lowest unoccupied state (CBM) at    -4.27780181 eV
  | Occupation number:      0.00000000

  Overall HOMO-LUMO gap:      5.47125152 eV.

  Total energy components:
  | Sum of eigenvalues            :        -886.36124429 Ha      -24119.11662440 eV
  | XC energy correction          :        -145.11815789 Ha       -3948.86599224 eV
  | XC potential correction       :         188.95913916 Ha        5141.83979046 eV
  | Free-atom electrostatic energy:        -781.34679625 Ha      -21261.52810073 eV
  | Hartree energy correction     :          -1.22473437 Ha         -33.32671773 eV
  | Entropy correction            :           0.00000000 Ha           0.00000000 eV
[...]
   Total forces(   7)            :  0.126727E+01 -0.163566E+01 -0.928017E+00
  atom #    8
   Hellmann-Feynman              :  0.234745E+01  0.228969E+01 -0.525392E+00
   Ionic forces                  :  0.000000E+00  0.000000E+00  0.000000E+00
   Multipole                     :  0.382315E+00  0.377685E+00 -0.918244E-01
   Hartree pot. SCF incomplete   : -0.270019E-06 -0.275042E-06  0.798513E-07
   Pulay + GGA                   : -0.506568E+01 -0.496262E+01  0.117243E+01
   ----------------------------------------------------------------
   Total forces(   8)            : -0.233592E+01 -0.229524E+01  0.555210E+00
  atom #    9
   Hellmann-Feynman              :  0.580973E+00 -0.990453E+00  0.811628E-01
   Ionic forces                  :  0.000000E+00  0.000000E+00  0.000000E+00
   Multipole                     :  0.362152E+00 -0.300008E+00 -0.272721E+00
   Hartree pot. SCF incomplete   :  0.400549E-07 -0.314890E-06 -0.171802E-05
   Pulay + GGA                   : -0.248965E+01  0.286501E+01  0.739151E+00
   ----------------------------------------------------------------
   Total forces(   9)            : -0.154652E+01  0.157455E+01  0.547591E+00
  atom #   10
   Hellmann-Feynman              : -0.997989E+00  0.602931E+00 -0.557730E-01
   Ionic forces                  :  0.000000E+00  0.000000E+00  0.000000E+00
   Multipole                     : -0.229776E+00  0.433124E+00  0.236388E+00
   Hartree pot. SCF incomplete   : -0.167308E-07  0.251105E-06  0.177250E-05
   Pulay + GGA                   :  0.269760E+01 -0.266134E+01 -0.730979E+00
   ----------------------------------------------------------------
   Total forces(  10)            :  0.146984E+01 -0.162529E+01 -0.550362E+00
  atom #   11
   Hellmann-Feynman              :  0.233010E+01  0.113355E+01  0.197902E+01
   Ionic forces                  :  0.000000E+00  0.000000E+00  0.000000E+00
   Multipole                     :  0.586684E+00  0.316206E+00  0.430481E+00
   Hartree pot. SCF incomplete   :  0.408574E-06  0.542749E-06 -0.391049E-06
   Pulay + GGA                   : -0.506264E+01 -0.241766E+01 -0.439017E+01
   ----------------------------------------------------------------
   Total forces(  11)            : -0.214586E+01 -0.967904E+00 -0.198067E+01
  atom #   12
   Hellmann-Feynman              : -0.208398E+01 -0.206191E+01  0.521881E+00
   Ionic forces                  :  0.000000E+00  0.000000E+00  0.000000E+00
   Multipole                     : -0.488719E+00 -0.467187E+00  0.861865E-01
   Hartree pot. SCF incomplete   : -0.381534E-06 -0.301577E-06 -0.589761E-07
   Pulay + GGA                   :  0.484333E+01  0.491729E+01 -0.148394E+01
   ----------------------------------------------------------------
   Total forces(  12)            :  0.227063E+01  0.238819E+01 -0.875872E+00


  Self-consistency convergence accuracy:
  | Change of charge density      :  0.1031E-06
  | Change of sum of eigenvalues  : -0.2349E-05 eV
  | Change of total energy        : -0.1435E-08 eV
  | Change of forces              :  0.2714E-06 eV/A

  Writing Kohn-Sham eigenvalues.

  State    Occupation    Eigenvalue [Ha]    Eigenvalue [eV]
      1       2.00000         -55.642089        -1514.09829
      2       2.00000         -55.621355        -1513.53408
      3       2.00000         -55.620097        -1513.49984
      4       2.00000         -24.305272         -661.38012
      5       2.00000         -24.305185         -661.37773
      6       2.00000         -24.304601         -661.36185
      7       2.00000         -24.304504         -661.35921
      8       2.00000         -24.216312         -658.95937
      9       2.00000         -24.213274         -658.87670
     10       2.00000         -24.209745         -658.78068
     11       2.00000         -24.209096         -658.76301
     12       2.00000         -24.207933         -658.73136
     13       2.00000          -4.094391         -111.41404
     14       2.00000          -4.074701         -110.87824
     15       2.00000          -4.073419         -110.84337
     16       2.00000          -2.687374          -73.12717
     17       2.00000          -2.685596          -73.07878
     18       2.00000          -2.684839          -73.05819
     19       2.00000          -2.668463          -72.61257
     20       2.00000          -2.667157          -72.57705
     21       2.00000          -2.666960          -72.57167
     22       2.00000          -2.665664          -72.53640
     23       2.00000          -2.663286          -72.47171
     24       2.00000          -2.662045          -72.43793
     25       2.00000          -1.184412          -32.22949
     26       2.00000          -1.173100          -31.92167
     27       2.00000          -1.168476          -31.79585
     28       2.00000          -1.159378          -31.54829
     29       2.00000          -1.066591          -29.02341
     30       2.00000          -1.063066          -28.92750
     31       2.00000          -1.055385          -28.71848
     32       2.00000          -1.055178          -28.71284
     33       2.00000          -1.054112          -28.68384
     34       2.00000          -0.565014          -15.37481
     35       2.00000          -0.552674          -15.03904
     36       2.00000          -0.540452          -14.70644
     37       2.00000          -0.535328          -14.56701
     38       2.00000          -0.508305          -13.83168
     39       2.00000          -0.491433          -13.37258
     40       2.00000          -0.489602          -13.32276
     41       2.00000          -0.472412          -12.85498
     42       2.00000          -0.468294          -12.74292
     43       2.00000          -0.465977          -12.67988
     44       2.00000          -0.465251          -12.66013
     45       2.00000          -0.449566          -12.23331
     46       2.00000          -0.434055          -11.81124
     47       2.00000          -0.428883          -11.67051
     48       2.00000          -0.412159          -11.21541
     49       2.00000          -0.406982          -11.07453
     50       2.00000          -0.404854          -11.01663
     51       2.00000          -0.374074          -10.17906
     52       2.00000          -0.373135          -10.15353
     53       2.00000          -0.370995          -10.09529
     54       2.00000          -0.369878          -10.06489
     55       2.00000          -0.361501           -9.83695
     56       2.00000          -0.361215           -9.82915
     57       2.00000          -0.360931           -9.82144
     58       2.00000          -0.359006           -9.76906
     59       2.00000          -0.358795           -9.76331
     60       2.00000          -0.357525           -9.72876
     61       0.00000          -0.157253           -4.27907
     62       0.00000          -0.115823           -3.15171
     63       0.00000          -0.078371           -2.13258
     64       0.00000          -0.045484           -1.23768
     65       0.00000          -0.036921           -1.00467
     66       0.00000          -0.018724           -0.50949
     67       0.00000          -0.018403           -0.50076
     68       0.00000           0.021480            0.58450
     69       0.00000           0.029200            0.79457
     70       0.00000           0.056988            1.55072
     71       0.00000           0.057838            1.57385
     72       0.00000           0.102424            2.78709
     73       0.00000           0.130461            3.55003
     74       0.00000           0.142905            3.88864
     75       0.00000           0.164010            4.46294
     76       0.00000           0.167292            4.55226
     77       0.00000           0.168018            4.57201
     78       0.00000           0.176458            4.80167
     79       0.00000           0.187870            5.11220
     80       0.00000           0.190115            5.17328
     81       0.00000           0.197302            5.36887
     82       0.00000           0.209651            5.70489
     83       0.00000           0.211672            5.75990
     84       0.00000           0.219289            5.96717
     85       0.00000           0.235371            6.40477
     86       0.00000           0.245683            6.68538
     87       0.00000           0.249488            6.78890
     88       0.00000           0.250589            6.81888
     89       0.00000           0.258915            7.04542
     90       0.00000           0.270188            7.35219
     91       0.00000           0.290129            7.89483
     92       0.00000           0.302358            8.22759
     93       0.00000           0.319297            8.68851
     94       0.00000           0.350260            9.53105
     95       0.00000           0.361645            9.84087
     96       0.00000           0.366153            9.96353

  Highest occupied state (VBM) at     -9.72875694 eV
  | Occupation number:      2.00000000

  Lowest unoccupied state (CBM) at    -4.27907253 eV
  | Occupation number:      0.00000000

  Overall HOMO-LUMO gap:      5.44968440 eV.
  | Chemical Potential                          :    -7.89657158 eV

  Self-consistency cycle converged.


------------------------------------------------------------
  End self-consistency iteration #    14       :  max(cpu_time)    wall_clock(cpu1)
  | Time for this iteration                     :        0.258 s           0.255 s
  | Charge density & force component update     :        0.136 s           0.136 s
  | Density mixing                              :        0.005 s           0.002 s
  | Hartree multipole update                    :        0.001 s           0.001 s
  | Hartree multipole summation                 :        0.050 s           0.050 s
  | Hartree pot. SCF incomplete forces          :        0.033 s           0.032 s
  | Integration                                 :        0.028 s           0.029 s
  | Solution of K.-S. eqns.                     :        0.004 s           0.004 s
  | Total energy evaluation                     :        0.000 s           0.000 s

  Partial memory accounting:
  | Current value for overall tracked memory usage:
  |   Minimum:        0.274 MB (on task 23)
  |   Maximum:        0.293 MB (on task  0)
  |   Average:        0.289 MB
  | Peak value for overall tracked memory usage:
  |   Minimum:        2.785 MB (on task  2 after allocating hessian_basis_wave)
  |   Maximum:        2.974 MB (on task 10 after allocating hessian_basis_wave)
  |   Average:        2.902 MB
  | Largest tracked array allocation so far:
  |   Minimum:        1.338 MB (hessian_basis_wave on task  2)
  |   Maximum:        1.451 MB (hessian_basis_wave on task 10)
  |   Average:        1.411 MB
  Note:  These values currently only include a subset of arrays which are explicitly tracked.
  The "true" memory usage will be greater.
------------------------------------------------------------
  Removing unitary transformations (pure translations, rotations) from forces on atoms.
  Atomic forces before filtering:
  | Net force on center of mass :  -0.287893E-02  0.128504E-02 -0.172130E-02 eV/A
  | Net torque on center of mass:   0.211884E-01 -0.418344E-01 -0.150562E-01 eV
  Atomic forces after filtering:
  | Net force on center of mass :   0.000000E+00 -0.356812E-15  0.142725E-14 eV/A
  | Net torque on center of mass:  -0.151054E-14 -0.151054E-14 -0.377634E-14 eV

  Energy and forces in a compact form:
  | Total energy uncorrected      :         -0.442209974803901E+05 eV
  | Total energy corrected        :         -0.442209974803901E+05 eV  <-- do not rely on this value for anything but (periodic) metals
  | Electronic free energy        :         -0.442209974803901E+05 eV
  Total atomic forces (unitary forces cleaned) [eV/Ang]:
  |    1         -0.178378381743543E+00         -0.120504226529601E+01          0.229994348212800E+01
  |    2          0.209943847364105E+01          0.203686473552365E+01         -0.460920046711228E+00
  |    3         -0.121274297627196E+01         -0.634838379209746E-01         -0.217102972932078E+01
  |    4          0.220592597870345E+01          0.201674532791737E+01         -0.190733548657573E+00
  |    5         -0.133322345976711E+01          0.157843662838498E+01          0.913135217785206E+00
  |    6         -0.564290568177566E+00         -0.180313182076699E+01          0.284218135920227E+01
  |    7          0.126686445437832E+01         -0.163619339822590E+01         -0.927538709296758E+00
  |    8         -0.233626991188464E+01         -0.229506496248508E+01          0.554054093949492E+00
  |    9         -0.154696835784983E+01          0.157417442000696E+01          0.547652613689314E+00
  |   10          0.147070495545452E+01         -0.162509992081975E+01         -0.550260489236561E+00
  |   11         -0.214379667274846E+01         -0.966804157884145E+00         -0.198149202128917E+01
  |   12          0.227273646626577E+01          0.238859925156588E+01         -0.874992222242205E+00

  ------------------------------------ 
  Start decomposition of the XC Energy 
  ------------------------------------ 
  X and C from original XC functional choice 
  Hartree-Fock Energy :          0.000000000 Ha              0.000000000 eV
  X Energy            :       -140.181145697 Ha          -3814.523055202 eV
  C Energy            :         -4.941112894 Ha           -134.454522808 eV
  Total XC Energy     :       -145.122258590 Ha          -3948.977578010 eV
  ------------------------------------ 
  LDA X and C from self-consistent density 
  X Energy LDA        :       -132.753577512 Ha          -3612.408641424 eV
  C Energy LDA        :         -8.823301787 Ha           -240.094257487 eV
  ------------------------------------ 
  End decomposition of the XC Energy 
  ------------------------------------ 

------------------------------------------------------------

------------------------------------------------------------------------------
  Final output of selected total energy values:

  The following output summarizes some interesting total energy values
  at the end of a run (AFTER all relaxation, molecular dynamics, etc.).

  | Total energy of the DFT / Hartree-Fock s.c.f. calculation      :         -44220.997480390 eV
  | Final zero-broadening corrected energy (caution - metals only) :         -44220.997480390 eV
  | For reference only, the value of 1 Hartree used in FHI-aims is :             27.211384500 eV

  Before relying on these values, please be sure to understand exactly which
  total energy value is referred to by a given number. Different objects may
  all carry the same name 'total energy'. Definitions:

  Total energy of the DFT / Hartree-Fock s.c.f. calculation:
  | Note that this energy does not include ANY quantities calculated after the
  | s.c.f. cycle, in particular not ANY RPA, MP2, etc. many-body perturbation terms.

  Final zero-broadening corrected energy:
  | For metallic systems only, a broadening of the occupation numbers at the Fermi
  | level can be extrapolated back to zero broadening by an electron-gas inspired
  | formula. For all systems that are not real metals, this value can be
  | meaningless and should be avoided.

------------------------------------------------------------------------------
  Methods described in the following list of references were used in this FHI-aims run.
  If you publish the results, please make sure to cite these reference if they apply.
  FHI-aims is an academic code, and for our developers (often, Ph.D. students
  and postdocs), scientific credit in the community is essential.
  Thank you for helping us!

  For any use of FHI-aims, please cite:

    Volker Blum, Ralf Gehrke, Felix Hanke, Paula Havu, Ville Havu,
    Xinguo Ren, Karsten Reuter, and Matthias Scheffler
    'Ab initio molecular simulations with numeric atom-centered orbitals'
    Computer Physics Communications 180, 2175-2196 (2009)
    http://dx.doi.org/10.1016/j.cpc.2009.06.022


  The ELSI infrastructure was used in your run to solve the Kohn-Sham electronic structure.
  Please check out http://elsi-interchange.org to learn more.
  If scalability is important for your project, please acknowledge ELSI by citing:

    V. W-z. Yu, F. Corsetti, A. Garcia, W. P. Huhn, M. Jacquelin, W. Jia,
    B. Lange, L. Lin, J. Lu, W. Mi, A. Seifitokaldani, A. Vazquez-Mayagoitia,
    C. Yang, H. Yang, and V. Blum
    'ELSI: A unified software interface for Kohn-Sham electronic structure solvers'
    Computer Physics Communications 222, 267-285 (2018).
    http://dx.doi.org/10.1016/j.cpc.2017.09.007


  For the real-space grid partitioning and parallelization used in this calculation, please cite:

    Ville Havu, Volker Blum, Paula Havu, and Matthias Scheffler,
    'Efficient O(N) integration for all-electron electronic structure calculation'
    'using numerically tabulated basis functions'
    Journal of Computational Physics 228, 8367-8379 (2009).
    http://dx.doi.org/10.1016/j.jcp.2009.08.008

  Of course, there are many other important community references, e.g., those cited in the
  above references. Our list is limited to references that describe implementations in the
  FHI-aims code. The reason is purely practical (length of this list) - please credit others as well.

------------------------------------------------------------
          Leaving FHI-aims.
          Date     :  20220517, Time     :  111710.961

          Computational steps:
          | Number of self-consistency cycles          :           14
          | Number of SCF (re)initializations          :            1

          Detailed time accounting                     :  max(cpu_time)    wall_clock(cpu1)
          | Total time                                  :        1.852 s           1.922 s
          | Preparation time                            :        0.184 s           0.184 s
          | Boundary condition initalization            :        0.000 s           0.000 s
          | Grid partitioning                           :        0.033 s           0.033 s
          | Preloading free-atom quantities on grid     :        0.015 s           0.015 s
          | Free-atom superposition energy              :        0.005 s           0.005 s
          | Total time for integrations                 :        0.441 s           0.442 s
          | Total time for solution of K.-S. equations  :        0.068 s           0.068 s
          | Total time for density & force components   :        0.611 s           0.611 s
          | Total time for mixing                       :        0.061 s           0.033 s
          | Total time for Hartree multipole update     :        0.018 s           0.017 s
          | Total time for Hartree multipole sum        :        0.300 s           0.301 s
          | Total time for total energy evaluation      :        0.002 s           0.003 s
          | Total time NSC force correction             :        0.065 s           0.065 s
          | Total time for scaled ZORA corrections      :        0.000 s           0.000 s

          Partial memory accounting:
          | Residual value for overall tracked memory usage across tasks:     0.000000 MB (should be 0.000000 MB)
          | Peak values for overall tracked memory usage:
          |   Minimum:        2.785 MB (on task  2 after allocating hessian_basis_wave)
          |   Maximum:        2.974 MB (on task 10 after allocating hessian_basis_wave)
          |   Average:        2.902 MB
          | Largest tracked array allocation:
          |   Minimum:        1.338 MB (hessian_basis_wave on task  2)
          |   Maximum:        1.451 MB (hessian_basis_wave on task 10)
          |   Average:        1.411 MB
          Note:  These values currently only include a subset of arrays which are explicitly tracked.
          The "true" memory usage will be greater.

          Have a nice day.
------------------------------------------------------------
