------------------------------------------------------------
          Invoking FHI-aims ...

          When using FHI-aims, please cite the following reference:

            Volker Blum, Ralf Gehrke, Felix Hanke, Paula Havu,
            Ville Havu, Xinguo Ren, Karsten Reuter, and Matthias Scheffler,
            'Ab Initio Molecular Simulations with Numeric Atom-Centered Orbitals',
            Computer Physics Communications 180, 2175-2196 (2009)

          In addition, many other developments in FHI-aims are likely important for
          your particular application. A partial list of references is given at the end of
          this file. Thank you for giving credit to the authors of these developments.

          For any questions about FHI-aims, please visit our slack channel at

            https://fhi-aims.slack.com

          and our main development and support site at

            https://aims-git.rz-berlin.mpg.de .

          The latter site, in particular, has a wiki to collect information, as well
          as an issue tracker to log discussions, suggest improvements, and report issues
          or bugs. https://aims-git.rz-berlin.mpg.de is also the main development site
          of the project and all new and updated code versions can be obtained there.
          Please send an email to aims-coordinators@fhi-berlin.mpg.de and we will add
          you to these sites. They are for you and everyone is welcome there.

------------------------------------------------------------



  Date     :  20220517, Time     :  120529.687
  Time zero on CPU 1             :   0.435770000000000E-01  s.
  Internal wall clock time zero  :           422021129.687  s.

  FHI-aims created a unique identifier for this run for later identification
  aims_uuid : 94C7A1DC-F3EB-4529-A5E7-B1212921AE88

  Build configuration of the current instance of FHI-aims
  -------------------------------------------------------
  FHI-aims version      : 210914
  Commit number         : GITDIR-NOTFOUND
  CMake host system     : Linux-3.10.0-693.17.1.el7.x86_64
  CMake version         : 3.21.1
  Fortran compiler      : /shared/ucl/apps/intel/2018.Update3/impi/2018.3.222/intel64/bin/mpiifort (Intel) version 18.0.3.20180410
  Fortran compiler flags: -O3 -ip -fp-model precise
  C compiler            : /shared/ucl/apps/intel/2018.Update3/compilers_and_libraries_2018.3.222/linux/bin/intel64/icc (Intel) version 18.0.3.20180410
  C compiler flags      : -O3 -ip -fp-model precise -std=gnu99
  ELPA2 kernel          : AVX2
  Using MPI
  Using ScaLAPACK
  Using LibXC
  Using i-PI
  Using RLSY
  Linking against: /shared/ucl/apps/intel/2019.Update5/compilers_and_libraries_2019.5.281/linux/mkl/lib/intel64/libmkl_intel_lp64.so
                   /shared/ucl/apps/intel/2019.Update5/compilers_and_libraries_2019.5.281/linux/mkl/lib/intel64/libmkl_sequential.so
                   /shared/ucl/apps/intel/2019.Update5/compilers_and_libraries_2019.5.281/linux/mkl/lib/intel64/libmkl_core.so
                   /shared/ucl/apps/intel/2019.Update5/compilers_and_libraries_2019.5.281/linux/mkl/lib/intel64/libmkl_blacs_intelmpi_lp64.so
                   /shared/ucl/apps/intel/2019.Update5/compilers_and_libraries_2019.5.281/linux/mkl/lib/intel64/libmkl_scalapack_lp64.so

  Using       24 parallel tasks.
  Task        0 on host node-k98a-028 reporting.
  Task        1 on host node-k98a-028 reporting.
  Task        2 on host node-k98a-028 reporting.
  Task        3 on host node-k98a-028 reporting.
  Task        4 on host node-k98a-028 reporting.
  Task        5 on host node-k98a-028 reporting.
  Task        6 on host node-k98a-028 reporting.
  Task        7 on host node-k98a-028 reporting.
  Task        8 on host node-k98a-028 reporting.
  Task        9 on host node-k98a-028 reporting.
  Task       10 on host node-k98a-028 reporting.
  Task       11 on host node-k98a-028 reporting.
  Task       12 on host node-k98a-028 reporting.
  Task       13 on host node-k98a-028 reporting.
  Task       14 on host node-k98a-028 reporting.
  Task       15 on host node-k98a-028 reporting.
  Task       16 on host node-k98a-028 reporting.
  Task       17 on host node-k98a-028 reporting.
  Task       18 on host node-k98a-028 reporting.
  Task       19 on host node-k98a-028 reporting.
  Task       20 on host node-k98a-028 reporting.
  Task       21 on host node-k98a-028 reporting.
  Task       22 on host node-k98a-028 reporting.
  Task       23 on host node-k98a-028 reporting.

  Performing system and environment tests:
  | Environment variable OMP_NUM_THREADS correctly set to 1.
  | Checking for ScaLAPACK...
  | Testing pdtran()...
  | All pdtran() tests passed.

  Obtaining array dimensions for all initial allocations:
  
  -----------------------------------------------------------------------
  Parsing control.in (first pass over file, find array dimensions only).
  The contents of control.in will be repeated verbatim below
  unless switched off by setting 'verbatim_writeout .false.' .
  in the first line of control.in .
  -----------------------------------------------------------------------
  
  #########################################################################################  Physical model
  #########################################################################################
  xc                 pbesol
  spin               none
  relativistic       atomic_zora scalar
  charge             0.0
  #  SCF convergence
  occupation_type    gaussian 0.01
  mixer              pulay
  n_max_pulay        10
  charge_mix_param   0.5
  sc_accuracy_rho    1E-5
  sc_accuracy_eev    1E-3
  sc_accuracy_etot   1E-6
  sc_accuracy_forces 1E-4
  sc_iter_limit      1500
  #  Relaxation
  #relax_geometry   bfgs 1.e-3
  
  ################################################################################
  #
  #  FHI-aims code project
  #  VB, Fritz-Haber Institut, 2009
  #
  #  Suggested "light" defaults for Al atom (to be pasted into control.in file)
  #  Be sure to double-check any results obtained with these settings for post-processing,
  #  e.g., with the "tight" defaults and larger basis sets.
  #
  ################################################################################
    species        Al
  #     global species definitions
      nucleus             13
      mass                26.9815386
  #
      l_hartree           4
  #
      cut_pot             3.5          1.5  1.0
      basis_dep_cutoff    1e-4
  #
      radial_base         41 5.0
      radial_multiplier   1
      angular_grids       specified
        division   0.6594  110
        division   0.8170  194
        division   0.9059  302
  #      division   1.0363  434
  #      division   1.1443  590
  #      division   1.2621  770
  #      division   2.8177  974
  #      outer_grid   974
        outer_grid   302
  ################################################################################
  #
  #  Definition of "minimal" basis
  #
  ################################################################################
  #     valence basis states
      valence      3  s   2.
      valence      3  p   1.
  #     ion occupancy
      ion_occ      3  s   1.
      ion_occ      2  p   6.
  ################################################################################
  #
  #  Suggested additional basis functions. For production calculations,
  #  uncomment them one after another (the most important basis functions are
  #  listed first).
  #
  #  Constructed for dimers: 2.0 A, 2.5 A, 3.0 A, 3.75 A, 4.5 A
  #
  ################################################################################
  #  "First tier" - improvements: -199.47 meV to -10.63 meV
       ionic 3 d auto
       ionic 3 p auto
  #     hydro 4 f 4.7
       ionic 3 s auto
  #  "Second tier" - improvements: -5.35 meV to -1.57 meV
  #     hydro 5 g 7
  #     hydro 3 d 6
  #     hydro 2 s 11.6
  #     hydro 2 p 0.9
  #  "Third tier" - improvements: -0.63 meV to -0.20 meV
  #     hydro 5 f 7.6
  #     hydro 4 p 7.2
  #     hydro 4 s 3.7
  #     hydro 4 d 7.6
  #  "Fourth tier" - improvements: -0.17 meV to -0.08 meV
  #     hydro 4 d 13.6
  #     hydro 5 g 11.2
  #     hydro 4 d 0.9
  #     hydro 1 s 0.4
  #     hydro 4 p 0.1
  #     hydro 5 f 9.8
  #  Further basis functions that fell out of the optimization - noise level...
  #     hydro 4 p 5
  
  ################################################################################
  #
  #  FHI-aims code project
  #  VB, Fritz-Haber Institut, 2009
  #
  #  Suggested "light" defaults for F atom (to be pasted into control.in file)
  #  Be sure to double-check any results obtained with these settings for post-processing,
  #  e.g., with the "tight" defaults and larger basis sets.
  #
  ################################################################################
    species        F
  #     global species definitions
      nucleus             9
      mass                18.9984032
  #
      l_hartree           4
  #
      cut_pot             3.5  1.5  1.0
      basis_dep_cutoff    1e-4
  #
      radial_base         37 5.0
      radial_multiplier   1
      angular_grids specified
        division   0.4014  110
        division   0.5291  194
        division   0.6019  302
  #      division   0.6814  434
  #      division   0.7989  590
  #      division   0.8965  770
  #      division   1.3427  974
  #      outer_grid   974
        outer_grid   302
  ################################################################################
  #
  #  Definition of "minimal" basis
  #
  ################################################################################
  #     valence basis states
      valence      2  s   2.
      valence      2  p   5.
  #     ion occupancy
      ion_occ      2  s   1.
      ion_occ      2  p   4.
  ################################################################################
  #
  #  Suggested additional basis functions. For production calculations,
  #  uncomment them one after another (the most important basis functions are
  #  listed first).
  #
  #  Constructed for dimers: 1.2 A, 1.418 A, 1.75 A, 2.25 A, 3.25 A
  #
  ################################################################################
  #  "First tier" - improvements: -149.44 meV to -45.88 meV
       hydro 2 p 1.7
       hydro 3 d 7.4
       hydro 3 s 6.8
  #  "Second tier" - improvements: -12.96 meV to -1.56 meV
  #     hydro 4 f 11.2
  #     ionic 2 p auto
  #     hydro 1 s 0.75
  #     hydro 4 d 8.8
  #     hydro 5 g 16.8
  #  "Third tier" - improvements: -0.58 meV to -0.05 meV
  #     hydro 3 p 6.2
  #     hydro 3 s 3.2
  #     hydro 4 f 9.6
  #     hydro 3 s 19.6
  #     hydro 4 d 8.6
  #     hydro 5 g 14.4
  # Further basis functions: -0.05 meV and below
  #     hydro 3 p 4.2
  
  -----------------------------------------------------------------------
  Completed first pass over input file control.in .
  -----------------------------------------------------------------------
  
  
  -----------------------------------------------------------------------
  Parsing geometry.in (first pass over file, find array dimensions only).
  The contents of geometry.in will be repeated verbatim below
  unless switched off by setting 'verbatim_writeout .false.' .
  in the first line of geometry.in .
  -----------------------------------------------------------------------
  
  atom -0.089396613 1.659085372 2.258403420 Al
  atom 2.512152496 2.611092225 1.739558375 Al
  atom 1.385660084 2.678063984 -0.657134054 Al
  atom 0.997931578 3.118060336 2.844719063 F
  atom -1.602937083 2.702220922 2.172200186 F
  atom -0.505866071 -0.055278866 2.749487230 F
  atom 1.890817953 0.860474593 1.910566465 F
  atom 2.984944145 1.837615853 -0.045250816 F
  atom 1.073823809 3.030672133 -2.409296212 F
  atom 1.765794694 4.023013587 0.675247667 F
  atom 4.084003368 3.112167777 2.444550980 F
  atom -0.050788791 1.781199210 0.113013693 F
  
  -----------------------------------------------------------------------
  Completed first pass over input file geometry.in .
  -----------------------------------------------------------------------
  

  Basic array size parameters:
  | Number of species                 :        2
  | Number of atoms                   :       12
  | Max. basis fn. angular momentum   :        2
  | Max. atomic/ionic basis occupied n:        3
  | Max. number of basis fn. types    :        3
  | Max. radial fns per species/type  :        5
  | Max. logarithmic grid size        :     1340
  | Max. radial integration grid size :       41
  | Max. angular integration grid size:      302
  | Max. angular grid division number :        8
  | Radial grid for Hartree potential :     1340
  | Number of spin channels           :        1

------------------------------------------------------------
          Reading file control.in.
------------------------------------------------------------
  XC: Using PBEsol gradient-corrected functionals.
  Spin treatment: No spin polarisation.
  Scalar relativistic treatment of kinetic energy: on-site free-atom approximation to ZORA.
  Charge =   0.000000E+00: Neutral system requested explicitly.
  Occupation type: Gaussian broadening, width =   0.100000E-01 eV.
  Using pulay charge density mixing.
  Pulay mixing - number of memorized iterations:   10
  Charge density mixing - mixing parameter:     0.5000
  Convergence accuracy of self-consistent charge density:  0.1000E-04
  Convergence accuracy of sum of eigenvalues:  0.1000E-02
  Convergence accuracy of total energy:  0.1000E-05
  Convergence accuracy of forces:  0.1000E-03
  Maximum number of s.-c. iterations  :  1500
 
  Reading configuration options for species Al                  .
  | Found nuclear charge :  13.0000
  | Found atomic mass :    26.9815386000000      amu
  | Found l_max for Hartree potential  :   4
  | Found cutoff potl. onset [A], width [A], scale factor :    3.50000    1.50000    1.00000
  | Threshold for basis-dependent cutoff potential is   0.100000E-03
  | Found data for basic radial integration grid :    41 points, outermost radius =    5.000 A
  | Found multiplier for basic radial grid :   1
  | Found angular grid specification: user-specified.
  | Specified grid contains     4 separate shells.
  | Check grid settings after all constraints further below.
  | Found free-atom valence shell :  3 s   2.000
  | Found free-atom valence shell :  3 p   1.000
  | Found free-ion valence shell :  3 s   1.000
  | Found free-ion valence shell :  2 p   6.000
  | Found ionic basis function :  3 d , default cutoff radius.
  | Found ionic basis function :  3 p , default cutoff radius.
  | Found ionic basis function :  3 s , default cutoff radius.
  Species Al                  : Missing cutoff potential type.
  Defaulting to exp(1/x)/(1-x)^2 type cutoff potential.
  Species Al: No 'logarithmic' tag. Using default grid for free atom:
  | Default logarithmic grid data [bohr] : 0.1000E-03 0.1000E+03 0.1012E+01
  | Will include ionic basis functions of  2.0-fold positive Al                   ion.
  Species Al: On-site basis accuracy parameter (for Gram-Schmidt orthonormalisation) not specified.
  Using default value basis_acc =  0.1000000E-03.
  Species Al                  : Using default innermost maximum threshold i_radial=  2 for radial functions.
  Species Al                  : Default cutoff onset for free atom density etc. : 0.35000000E+01 AA.
  Species Al                  : Basic radial grid will be enhanced according to radial_multiplier =   1, to contain    41 grid points.
 
  Reading configuration options for species F                   .
  | Found nuclear charge :   9.0000
  | Found atomic mass :    18.9984032000000      amu
  | Found l_max for Hartree potential  :   4
  | Found cutoff potl. onset [A], width [A], scale factor :    3.50000    1.50000    1.00000
  | Threshold for basis-dependent cutoff potential is   0.100000E-03
  | Found data for basic radial integration grid :    37 points, outermost radius =    5.000 A
  | Found multiplier for basic radial grid :   1
  | Found angular grid specification: user-specified.
  | Specified grid contains     4 separate shells.
  | Check grid settings after all constraints further below.
  | Found free-atom valence shell :  2 s   2.000
  | Found free-atom valence shell :  2 p   5.000
  | Found free-ion valence shell :  2 s   1.000
  | Found free-ion valence shell :  2 p   4.000
  | Found hydrogenic basis function :  2 p   1.700
  | Found hydrogenic basis function :  3 d   7.400
  | Found hydrogenic basis function :  3 s   6.800
  Species F                   : Missing cutoff potential type.
  Defaulting to exp(1/x)/(1-x)^2 type cutoff potential.
  Species F : No 'logarithmic' tag. Using default grid for free atom:
  | Default logarithmic grid data [bohr] : 0.1000E-03 0.1000E+03 0.1012E+01
  Species F : On-site basis accuracy parameter (for Gram-Schmidt orthonormalisation) not specified.
  Using default value basis_acc =  0.1000000E-03.
  Species F                   : Using default innermost maximum threshold i_radial=  2 for radial functions.
  Species F                   : Default cutoff onset for free atom density etc. : 0.35000000E+01 AA.
  Species F                   : Basic radial grid will be enhanced according to radial_multiplier =   1, to contain    37 grid points.
 
  Finished reading input file 'control.in'.
 
------------------------------------------------------------


------------------------------------------------------------
          Reading geometry description geometry.in.
------------------------------------------------------------
  | The smallest distance between any two atoms is         1.79410324 AA.
  | The first atom of this pair is atom number                      2 .
  | The second atom of this pair is atom number                    11 .
  Input structure read successfully.
  The structure contains       12 atoms,  and a total of        120.000 electrons.

  Input geometry:
  | No unit cell requested.
  | Atomic structure:
  |       Atom                x [A]            y [A]            z [A]
  |    1: Species Al           -0.08939661        1.65908537        2.25840342
  |    2: Species Al            2.51215250        2.61109223        1.73955838
  |    3: Species Al            1.38566008        2.67806398       -0.65713405
  |    4: Species F             0.99793158        3.11806034        2.84471906
  |    5: Species F            -1.60293708        2.70222092        2.17220019
  |    6: Species F            -0.50586607       -0.05527887        2.74948723
  |    7: Species F             1.89081795        0.86047459        1.91056647
  |    8: Species F             2.98494415        1.83761585       -0.04525082
  |    9: Species F             1.07382381        3.03067213       -2.40929621
  |   10: Species F             1.76579469        4.02301359        0.67524767
  |   11: Species F             4.08400337        3.11216778        2.44455098
  |   12: Species F            -0.05078879        1.78119921        0.11301369

 
  Finished reading input file 'control.in'.
 

------------------------------------------------------------
          Reading geometry description geometry.in.
------------------------------------------------------------
 
  Consistency checks for stacksize environment parameter are next.
 
  | Maximum stacksize for task 0: unlimited
  | Maximum stacksize for task 1: unlimited
  | Maximum stacksize for task 2: unlimited
  | Maximum stacksize for task 3: unlimited
  | Maximum stacksize for task 4: unlimited
  | Maximum stacksize for task 5: unlimited
  | Maximum stacksize for task 6: unlimited
  | Maximum stacksize for task 7: unlimited
  | Maximum stacksize for task 8: unlimited
  | Maximum stacksize for task 9: unlimited
  | Maximum stacksize for task 10: unlimited
  | Maximum stacksize for task 11: unlimited
  | Maximum stacksize for task 12: unlimited
  | Maximum stacksize for task 13: unlimited
  | Maximum stacksize for task 14: unlimited
  | Maximum stacksize for task 15: unlimited
  | Maximum stacksize for task 16: unlimited
  | Maximum stacksize for task 17: unlimited
  | Maximum stacksize for task 18: unlimited
  | Maximum stacksize for task 19: unlimited
  | Maximum stacksize for task 20: unlimited
  | Maximum stacksize for task 21: unlimited
  | Maximum stacksize for task 22: unlimited
  | Maximum stacksize for task 23: unlimited
  | Current stacksize for task 0: unlimited
  | Current stacksize for task 1: unlimited
  | Current stacksize for task 2: unlimited
  | Current stacksize for task 3: unlimited
  | Current stacksize for task 4: unlimited
  | Current stacksize for task 5: unlimited
  | Current stacksize for task 6: unlimited
  | Current stacksize for task 7: unlimited
  | Current stacksize for task 8: unlimited
  | Current stacksize for task 9: unlimited
  | Current stacksize for task 10: unlimited
  | Current stacksize for task 11: unlimited
  | Current stacksize for task 12: unlimited
  | Current stacksize for task 13: unlimited
  | Current stacksize for task 14: unlimited
  | Current stacksize for task 15: unlimited
  | Current stacksize for task 16: unlimited
  | Current stacksize for task 17: unlimited
  | Current stacksize for task 18: unlimited
  | Current stacksize for task 19: unlimited
  | Current stacksize for task 20: unlimited
  | Current stacksize for task 21: unlimited
  | Current stacksize for task 22: unlimited
  | Current stacksize for task 23: unlimited
 
  Consistency checks for the contents of control.in are next.
 
  MPI_IN_PLACE appears to work with this MPI implementation.
  | Keeping use_mpi_in_place .true. (see manual).
  Target number of points in a grid batch is not set. Defaulting to  100
  Method for grid partitioning is not set. Defaulting to parallel hash+maxmin partitioning.
  Batch size limit is not set. Defaulting to    200
  By default, will store active basis functions for each batch.
  If in need of memory, prune_basis_once .false. can be used to disable this option.
  communication_type for Hartree potential was not specified.
  Defaulting to calc_hartree .
  Pulay mixer: Number of initial linear mixing iterations not set.
  Defaulting to    0 iterations.
  Work space size for distributed Hartree potential not set.
  Defaulting to   0.200000E+03 MB.
  Algorithm-dependent basis array size parameters:
  | n_max_pulay                         :       10
  Presetting      1001 iterations before the initial mixing cycle
  is restarted anyway using the sc_init_iter criterion / keyword.
  Presetting a factor      1.000 between actual scf density residual
  and density convergence criterion sc_accuracy_rho below which sc_init_iter
  takes no effect.
  Geometry relaxation not requested: no relaxation will be performed.
  Forces evaluation will include force correction term due to incomplete self-consistency (default).
  Handling of forces: Unphysical translation and rotation will be removed from forces.
  No accuracy limit for integral partition fn. given. Defaulting to  0.1000E-14.
  No threshold value for u(r) in integrations given. Defaulting to  0.1000E-05.
  No accuracy for occupation numbers given. Defaulting to  0.1000E-12.
  No threshold value for occupation numbers given. Defaulting to  0.0000E+00.
  No accuracy for fermi level given. Defaulting to  0.1000E-19.
  Maximum # of iterations to find E_F not set. Defaulting to  200.
  Preferred method for the eigenvalue solver ('KS_method') not specified in 'control.in'.
  Calling BLACS routine to test compilation state
  Since ScaLAPACK support is enabled, defaulting to ELPA (via ELSI).
  Will not use alltoall communication since running on < 1024 CPUs.
  Threshold for basis singularities not set.
  Default threshold for basis singularities:  0.1000E-04
  partition_type (choice of integration weights) for integrals was not specified.
  | Using a version of the partition function of Stratmann and coworkers ('stratmann_sparse').
  | At each grid point, the set of atoms used to build the partition table is smoothly restricted to
  | only those atoms whose free-atom density would be non-zero at that grid point.
  Partitioning for Hartree potential was not defined. Using partition_type for integrals.
  | Adjusted default value of keyword multip_moments_threshold to:       0.10000000E-11
  | This value may affect high angular momentum components of the Hartree potential in periodic systems.
  No q(lm)/r^(l+1) cutoff set for long-range Hartree potential.
  | Using default value of  0.100000E-09 .
  | Verify using the multipole_threshold keyword.
  Defaulting to new monopole extrapolation.
  Density update method: automatic selection selected.
  Charge integration errors on the 3D integration grid will be compensated
  by explicit normalization and distribution of residual charges.
  Use the "compensate_multipole_errors" flag to change this behaviour.
  Set 'collect_eigenvectors' to be '.true.' for use_density_matrix .false.
 
  Consistency checks for the contents of geometry.in are next.
 
  Number of empty states per atom not set in control.in - providing a guess from actual geometry.
  | Total number of empty states used during s.c.f. cycle:       36
  If you use a very high smearing, use empty_states (per atom!) in control.in to increase this value.

  Structure-dependent array size parameters: 
  | Maximum number of distinct radial functions  :       14
  | Maximum number of basis functions            :      180
  | Number of Kohn-Sham states (occupied + empty):       96
------------------------------------------------------------

------------------------------------------------------------
          Preparing all fixed parts of the calculation.
------------------------------------------------------------
  Determining machine precision:
    2.225073858507201E-308
  Setting up grids for atomic and cluster calculations.

  Creating wave function, potential, and density for free atoms.

  Species: Al

  List of occupied orbitals and eigenvalues:
    n    l              occ      energy [Ha]    energy [eV]
    1    0           2.0000       -55.621123     -1513.5278
    2    0           2.0000        -3.957030      -107.6763
    3    0           2.0000        -0.272233        -7.4078
    2    1           6.0000        -2.540949       -69.1427
    3    1           1.0000        -0.083300        -2.2667


  Species: F

  List of occupied orbitals and eigenvalues:
    n    l              occ      energy [Ha]    energy [eV]
    1    0           2.0000       -24.399611      -663.9472
    2    0           2.0000        -1.098702       -29.8972
    2    1           5.0000        -0.408210       -11.1080


  Adding cutoff potential to free-atom effective potential.
  Creating fixed part of basis set: Ionic, confined, hydrogenic.
 
  Al                   ion:

  List of free ionic orbitals and eigenvalues:
    n    l      energy [Ha]    energy [eV]
    1    0       -56.418846     -1535.2349
    2    0        -4.732717      -128.7838
    3    0        -0.872690       -23.7471
    2    1        -3.317230       -90.2664


  List of ionic basis orbitals and eigenvalues:
    n    l      energy [Ha]    energy [eV]    outer radius [A]
    3    2        -0.346815        -9.4373       4.594041
    3    1        -0.631870       -17.1940       4.538221
    3    0        -0.872657       -23.7462       4.538221

 
  F                    hydrogenic:
 
  List of hydrogenic basis orbitals: 
    n    l      effective z      eigenvalue [eV]  inner max. [A]     outer max. [A]     outer radius [A]   
    2    1         1.700000        -9.7616           1.243167           1.243167           4.598524
    3    2         7.400000       -82.7828           0.642437           0.642437           3.305741
    3    0         6.800000       -69.9026           0.057798           1.022307           3.781556
 
  Creating atomic-like basis functions for current effective potential.

  Species Al                  :

  List of atomic basis orbitals and eigenvalues:
    n    l      energy [Ha]    energy [eV]    outer radius [A]
    1    0       -55.621123     -1513.5278       0.850197
    2    0        -3.957030      -107.6763       3.144911
    3    0        -0.272233        -7.4078       4.594041
    2    1        -2.540949       -69.1427       3.731966
    3    1        -0.083300        -2.2667       4.594041


  Species F                   :

  List of atomic basis orbitals and eigenvalues:
    n    l      energy [Ha]    energy [eV]    outer radius [A]
    1    0       -24.399611      -663.9472       1.258458
    2    0        -1.098702       -29.8972       4.325857
    2    1        -0.408210       -11.1080       4.487453

  Assembling full basis from fixed parts.
  | Species Al :   atomic orbital   1 s accepted.
  | Species Al :   atomic orbital   2 s accepted.
  | Species Al :    ionic orbital   3 s accepted.
  | Species Al :   atomic orbital   3 s accepted.
  | Species Al :   atomic orbital   2 p accepted.
  | Species Al :    ionic orbital   3 p accepted.
  | Species Al :   atomic orbital   3 p accepted.
  | Species Al :    ionic orbital   3 d accepted.
  | Species F :   atomic orbital   1 s accepted.
  | Species F :    hydro orbital   3 s accepted.
  | Species F :   atomic orbital   2 s accepted.
  | Species F :   atomic orbital   2 p accepted.
  | Species F :    hydro orbital   2 p accepted.
  | Species F :    hydro orbital   3 d accepted.
 
  Basis size parameters after reduction:
  | Total number of radial functions:       14
  | Total number of basis functions :      180
 
  Per-task memory consumption for arrays in subroutine allocate_ext:
  |           4.807768MB.
  Testing on-site integration grid accuracy.
  |  Species  Function  <phi|h_atom|phi> (log., in eV)  <phi|h_atom|phi> (rad., in eV)
           1        1              -1513.5277717935              -1513.5271881332
           1        2               -107.6762691836               -107.6762662489
           1        3                 -6.9467474784                 -6.9471269649
           1        4                  5.5771951849                  5.4862107220 ***
           1        5                -69.1427313144                -69.1427312731
           1        6                 -1.5197375330                 -1.5230432022
           1        7                  6.8210948310                  6.5529872240 ***
           1        8                  4.3216540965                  4.2851170187 ***
           2        9               -663.9471986398               -663.9470363334
           2       10                 16.8514011578                 16.8512525338
           2       11                -28.4490593856                -28.4490661472
           2       12                -11.1080115307                -11.1080620173
           2       13                  7.1940182175                  7.1685154137
           2       14                 44.8544281765                 44.8543763625
 * Note: Onsite integrals marked "***" above are less accurate than
 * onsite_accuracy_threshold =    0.03000 eV. Usually, this is harmless.
 * When in doubt, tighten the "radial" and/or "radial_multiplier" flags to check.

  Preparing densities etc. for the partition functions (integrals / Hartree potential).

  Preparations completed.
  max(cpu_time)          :      0.184 s.
  Wall clock time (cpu1) :      0.184 s.
------------------------------------------------------------

------------------------------------------------------------
          Begin self-consistency loop: Initialization.

          Date     :  20220517, Time     :  120529.921
------------------------------------------------------------

  Initializing index lists of integration centers etc. from given atomic structure:
  | Number of centers in hartree potential         :        12
  | Number of centers in hartree multipole         :        12
  | Number of centers in electron density summation:        12
  | Number of centers in basis integrals           :        12
  | Number of centers in integrals                 :        12
  | Number of centers in hamiltonian               :        12
  * Using 24 tasks for Scalapack Eigenvalue solver.
  Detailed listing of tasks and assigned k-points:
  (for non-periodic systems, the "k-point" denotes an internal label only)
   Task     0 k-point     1 on node-k98a-028
   Task     1 k-point     1 on node-k98a-028
   Task     2 k-point     1 on node-k98a-028
   Task     3 k-point     1 on node-k98a-028
   Task     4 k-point     1 on node-k98a-028
   Task     5 k-point     1 on node-k98a-028
   Task     6 k-point     1 on node-k98a-028
   Task     7 k-point     1 on node-k98a-028
   Task     8 k-point     1 on node-k98a-028
   Task     9 k-point     1 on node-k98a-028
   Task    10 k-point     1 on node-k98a-028
   Task    11 k-point     1 on node-k98a-028
   Task    12 k-point     1 on node-k98a-028
   Task    13 k-point     1 on node-k98a-028
   Task    14 k-point     1 on node-k98a-028
   Task    15 k-point     1 on node-k98a-028
   Task    16 k-point     1 on node-k98a-028
   Task    17 k-point     1 on node-k98a-028
   Task    18 k-point     1 on node-k98a-028
   Task    19 k-point     1 on node-k98a-028
   Task    20 k-point     1 on node-k98a-028
   Task    21 k-point     1 on node-k98a-028
   Task    22 k-point     1 on node-k98a-028
   Task    23 k-point     1 on node-k98a-028
  Tasks:    24 split into      6 X      4 BLACS grid
  Calculating block size based on n_basis =          180  max_nprow =            6  max_npcol =            4
  ScaLAPACK block size set to:           16
  Allocating        0.012 MB for ovlp
  Allocating        0.012 MB for ham
  Allocating        0.012 MB for eigenvec
  Required Scalapack workspace - INTEGER:            1  REAL:             1
  Partitioning the integration grid into batches with parallel hashing+maxmin method.
  | Number of batches:     1015
  | Maximal batch size:     198
  | Minimal batch size:      17
  | Average batch size:      90.562
  | Standard deviation of batch sizes:      25.738

  Integration load balanced across    24 MPI tasks.
  Work distribution over tasks is as follows:
  Task     0 has       3851 integration points.
  Task     1 has       3783 integration points.
  Task     2 has       3835 integration points.
  Task     3 has       3923 integration points.
  Task     4 has       3858 integration points.
  Task     5 has       3788 integration points.
  Task     6 has       3884 integration points.
  Task     7 has       3787 integration points.
  Task     8 has       3920 integration points.
  Task     9 has       3783 integration points.
  Task    10 has       3775 integration points.
  Task    11 has       3846 integration points.
  Task    12 has       3837 integration points.
  Task    13 has       3860 integration points.
  Task    14 has       3789 integration points.
  Task    15 has       3779 integration points.
  Task    16 has       3776 integration points.
  Task    17 has       3783 integration points.
  Task    18 has       3779 integration points.
  Task    19 has       3860 integration points.
  Task    20 has       3856 integration points.
  Task    21 has       3856 integration points.
  Task    22 has       3851 integration points.
  Task    23 has       3861 integration points.
  Initializing partition tables, free-atom densities, potentials, etc. across the integration grid (initialize_grid_storage).
  | initialize_grid_storage: Actual outermost partition radius vs. multipole_radius_free
  | (-- VB: in principle, multipole_radius_free should be larger, hence this output)
  | Species        1: Confinement radius =              4.999999999999999 AA, multipole_radius_free =              5.004487022111096 AA.
  | Species        1: outer_partition_radius set to              5.004487022111096 AA .
  | Species        2: Confinement radius =              4.999999999999999 AA, multipole_radius_free =              5.009370088163274 AA.
  | Species        2: outer_partition_radius set to              5.009370088163274 AA .
  | The sparse table of interatomic distances needs          1.64 kbyte instead of         1.15 kbyte of memory.
  | Using the partition_type stratmann_smoother will reduce your memory usage.
  | Net number of integration points:    91920
  | of which are non-zero points    :    85208
  Renormalizing the initial density to the exact electron count on the 3D integration grid.
  | Initial density: Formal number of electrons (from input files) :     120.0000000000
  | Integrated number of electrons on 3D grid     :     119.9999621538
  | Charge integration error                      :      -0.0000378462
  | Normalization factor for density and gradient :       1.0000003154
  Renormalizing the free-atom superposition density to the exact electron count on the 3D integration grid.
  | Formal number of electrons (from input files) :     120.0000000000
  | Integrated number of electrons on 3D grid     :     119.9999621538
  | Charge integration error                      :      -0.0000378462
  | Normalization factor for density and gradient :       1.0000003154
  Obtaining max. number of non-zero basis functions in each batch (get_n_compute_maxes).
  | Maximal number of non-zero basis functions:      164 in task     0
  | Maximal number of non-zero basis functions:      165 in task     1
  | Maximal number of non-zero basis functions:      169 in task     2
  | Maximal number of non-zero basis functions:      166 in task     3
  | Maximal number of non-zero basis functions:      166 in task     4
  | Maximal number of non-zero basis functions:      171 in task     5
  | Maximal number of non-zero basis functions:      163 in task     6
  | Maximal number of non-zero basis functions:      165 in task     7
  | Maximal number of non-zero basis functions:      172 in task     8
  | Maximal number of non-zero basis functions:      171 in task     9
  | Maximal number of non-zero basis functions:      166 in task    10
  | Maximal number of non-zero basis functions:      172 in task    11
  | Maximal number of non-zero basis functions:      169 in task    12
  | Maximal number of non-zero basis functions:      171 in task    13
  | Maximal number of non-zero basis functions:      170 in task    14
  | Maximal number of non-zero basis functions:      170 in task    15
  | Maximal number of non-zero basis functions:      170 in task    16
  | Maximal number of non-zero basis functions:      166 in task    17
  | Maximal number of non-zero basis functions:      171 in task    18
  | Maximal number of non-zero basis functions:      170 in task    19
  | Maximal number of non-zero basis functions:      169 in task    20
  | Maximal number of non-zero basis functions:      171 in task    21
  | Maximal number of non-zero basis functions:      172 in task    22
  | Maximal number of non-zero basis functions:      172 in task    23
  Selecting the method for density update.
  Loop over occupied states selected for charge density update.
  Allocating        0.132 MB for KS_eigenvector
  Integrating Hamiltonian matrix: batch-based integration.
  Time summed over all CPUs for integration: real work        0.757 s, elapsed        0.801 s
  Integrating overlap matrix.
  Time summed over all CPUs for integration: real work        0.286 s, elapsed        0.303 s
  Deallocating overlap matrix.

  Updating Kohn-Sham eigenvalues and eigenvectors using ELSI and the ELPA eigensolver.
  Overlap matrix is not singular
  | Lowest and highest eigenvalues :  0.3049E-02,  0.5678E+01
  Finished singularity check of overlap matrix
  | Time :     0.007 s
  Starting ELPA eigensolver
  Finished Cholesky decomposition
  | Time :     0.003 s
  Finished transformation to standard eigenproblem
  | Time :     0.001 s
  Finished solving standard eigenproblem
  | Time :     0.005 s
  Finished back-transformation of eigenvectors
  | Time :     0.000 s

  Obtaining occupation numbers and chemical potential using ELSI.
  | Chemical potential (Fermi level):    -7.41581975 eV
  Writing Kohn-Sham eigenvalues.

  State    Occupation    Eigenvalue [Ha]    Eigenvalue [eV]
      1       2.00000         -55.486574        -1509.86649
      2       2.00000         -55.484663        -1509.81450
      3       2.00000         -55.483205        -1509.77483
      4       2.00000         -24.357867         -662.81128
      5       2.00000         -24.357578         -662.80342
      6       2.00000         -24.353466         -662.69153
      7       2.00000         -24.350092         -662.59972
      8       2.00000         -24.349016         -662.57042
      9       2.00000         -24.343214         -662.41256
     10       2.00000         -24.340761         -662.34582
     11       2.00000         -24.338837         -662.29346
     12       2.00000         -24.337872         -662.26719
     13       2.00000          -3.952464         -107.55203
     14       2.00000          -3.949795         -107.47940
     15       2.00000          -3.947921         -107.42841
     16       2.00000          -2.545456          -69.26537
     17       2.00000          -2.544142          -69.22963
     18       2.00000          -2.543569          -69.21403
     19       2.00000          -2.543114          -69.20165
     20       2.00000          -2.541262          -69.15125
     21       2.00000          -2.540627          -69.13397
     22       2.00000          -2.540422          -69.12841
     23       2.00000          -2.540066          -69.11872
     24       2.00000          -2.538453          -69.07482
     25       2.00000          -1.187997          -32.32704
     26       2.00000          -1.174918          -31.97114
     27       2.00000          -1.171826          -31.88701
     28       2.00000          -1.165116          -31.70441
     29       2.00000          -1.159168          -31.54257
     30       2.00000          -1.152631          -31.36470
     31       2.00000          -1.149124          -31.26926
     32       2.00000          -1.147160          -31.21582
     33       2.00000          -1.143729          -31.12244
     34       2.00000          -0.558391          -15.19460
     35       2.00000          -0.543195          -14.78109
     36       2.00000          -0.540492          -14.70755
     37       2.00000          -0.520870          -14.17360
     38       2.00000          -0.516979          -14.06772
     39       2.00000          -0.507588          -13.81219
     40       2.00000          -0.503231          -13.69361
     41       2.00000          -0.496621          -13.51375
     42       2.00000          -0.495245          -13.47629
     43       2.00000          -0.493824          -13.43763
     44       2.00000          -0.487696          -13.27088
     45       2.00000          -0.485499          -13.21109
     46       2.00000          -0.475156          -12.92967
     47       2.00000          -0.471939          -12.84212
     48       2.00000          -0.470220          -12.79533
     49       2.00000          -0.466066          -12.68231
     50       2.00000          -0.462732          -12.59158
     51       2.00000          -0.459003          -12.49012
     52       2.00000          -0.454047          -12.35524
     53       2.00000          -0.453311          -12.33522
     54       2.00000          -0.452003          -12.29961
     55       2.00000          -0.451860          -12.29574
     56       2.00000          -0.450254          -12.25203
     57       2.00000          -0.449056          -12.21945
     58       2.00000          -0.443161          -12.05902
     59       2.00000          -0.442135          -12.03111
     60       2.00000          -0.438913          -11.94342
     61       0.00000          -0.149326           -4.06336
     62       0.00000          -0.099717           -2.71345
     63       0.00000          -0.067384           -1.83361
     64       0.00000          -0.043232           -1.17640
     65       0.00000          -0.022316           -0.60725
     66       0.00000           0.000508            0.01382
     67       0.00000           0.018160            0.49415
     68       0.00000           0.031137            0.84728
     69       0.00000           0.045614            1.24123
     70       0.00000           0.070182            1.90976
     71       0.00000           0.073919            2.01144
     72       0.00000           0.116587            3.17248
     73       0.00000           0.149303            4.06274
     74       0.00000           0.160171            4.35848
     75       0.00000           0.164510            4.47655
     76       0.00000           0.176736            4.80924
     77       0.00000           0.192698            5.24359
     78       0.00000           0.196920            5.35847
     79       0.00000           0.208581            5.67579
     80       0.00000           0.218242            5.93868
     81       0.00000           0.222491            6.05429
     82       0.00000           0.225597            6.13882
     83       0.00000           0.236084            6.42417
     84       0.00000           0.241008            6.55815
     85       0.00000           0.260136            7.07866
     86       0.00000           0.261683            7.12075
     87       0.00000           0.266007            7.23842
     88       0.00000           0.271836            7.39702
     89       0.00000           0.282148            7.67764
     90       0.00000           0.288747            7.85721
     91       0.00000           0.297390            8.09239
     92       0.00000           0.329664            8.97060
     93       0.00000           0.339296            9.23271
     94       0.00000           0.357702            9.73358
     95       0.00000           0.368967           10.04010
     96       0.00000           0.382186           10.39980

  Highest occupied state (VBM) at    -11.94341705 eV
  | Occupation number:      2.00000000

  Lowest unoccupied state (CBM) at    -4.06335597 eV
  | Occupation number:      0.00000000

  Overall HOMO-LUMO gap:      7.88006108 eV.
  Calculating total energy contributions from superposition of free atom densities.

  Total energy components:
  | Sum of eigenvalues            :        -887.50318989 Ha      -24150.19054511 eV
  | XC energy correction          :        -144.36814714 Ha       -3928.45716125 eV
  | XC potential correction       :         187.97737216 Ha        5115.12455104 eV
  | Free-atom electrostatic energy:        -781.44735289 Ha      -21264.26438588 eV
  | Hartree energy correction     :           0.00000000 Ha           0.00000000 eV
  | Entropy correction            :           0.00000000 Ha           0.00000000 eV
  | ---------------------------
  | Total energy                  :       -1625.34131776 Ha      -44227.78754120 eV
  | Total energy, T -> 0          :       -1625.34131776 Ha      -44227.78754120 eV  <-- do not rely on this value for anything but (periodic) metals
  | Electronic free energy        :       -1625.34131776 Ha      -44227.78754120 eV

  Derived energy quantities:
  | Kinetic energy                :        1627.68355971 Ha       44291.52318757 eV
  | Electrostatic energy          :       -3108.65673033 Ha      -84590.85356753 eV
  | Energy correction for multipole
  | error in Hartree potential    :           0.00000000 Ha           0.00000000 eV
  | Sum of eigenvalues per atom                           :       -2012.51587876 eV
  | Total energy (T->0) per atom                          :       -3685.64896177 eV  <-- do not rely on this value for anything but (periodic) metals
  | Electronic free energy per atom                       :       -3685.64896177 eV
  Initialize hartree_potential_storage
  Max. number of atoms included in rho_multipole:           12

  End scf initialization - timings             :  max(cpu_time)    wall_clock(cpu1)
  | Time for scf. initialization                :        0.151 s           0.151 s
  | Boundary condition initialization           :        0.000 s           0.000 s
  | Integration                                 :        0.050 s           0.049 s
  | Solution of K.-S. eqns.                     :        0.019 s           0.018 s
  | Grid partitioning                           :        0.046 s           0.047 s
  | Preloading free-atom quantities on grid     :        0.017 s           0.018 s
  | Free-atom superposition energy              :        0.007 s           0.006 s
  | Total energy evaluation                     :        0.000 s           0.001 s

  Partial memory accounting:
  | Current value for overall tracked memory usage:
  |   Minimum:        0.273 MB (on task 23)
  |   Maximum:        0.292 MB (on task  0)
  |   Average:        0.287 MB
  | Peak value for overall tracked memory usage:
  |   Minimum:        1.361 MB (on task  6 after allocating wave)
  |   Maximum:        1.425 MB (on task  8 after allocating wave)
  |   Average:        1.398 MB
  | Largest tracked array allocation so far:
  |   Minimum:        0.246 MB (H_times_psi on task  6)
  |   Maximum:        0.563 MB (all_coords on task 14)
  |   Average:        0.278 MB
  Note:  These values currently only include a subset of arrays which are explicitly tracked.
  The "true" memory usage will be greater.
------------------------------------------------------------
  Evaluating new KS density.
  Integration grid: deviation in total charge (<rho> - N_e) =   1.421085E-14

  Time for density update prior                :  max(cpu_time)    wall_clock(cpu1)
  | self-consistency iterative process          :        0.030 s           0.030 s

------------------------------------------------------------
          Begin self-consistency iteration #    1

  Date     :  20220517, Time     :  120530.102
------------------------------------------------------------
  Pulay mixing of updated and previous charge densities.
  Renormalizing the density to the exact electron count on the 3D integration grid.
  | Formal number of electrons (from input files) :     120.0000000000
  | Integrated number of electrons on 3D grid     :     120.0000000000
  | Charge integration error                      :       0.0000000000
  | Normalization factor for density and gradient :       1.0000000000

  Evaluating partitioned Hartree potential by multipole expansion.
  | Original multipole sum: apparent total charge =  -0.386307E-13
  | Sum of charges compensated after spline to logarithmic grids =   0.928863E-04
  | Analytical far-field extrapolation by fixed multipoles:
  | Hartree multipole sum: apparent total charge =  -0.405986E-13
  Summing up the Hartree potential.
  Time summed over all CPUs for potential: real work        0.383 s, elapsed        0.404 s
  | RMS charge density error from multipole expansion :   0.110406E-01

  Integrating Hamiltonian matrix: batch-based integration.
  Time summed over all CPUs for integration: real work        0.704 s, elapsed        0.742 s

  Updating Kohn-Sham eigenvalues and eigenvectors using ELSI and the ELPA eigensolver.
  Starting ELPA eigensolver
  Finished transformation to standard eigenproblem
  | Time :     0.001 s
  Finished solving standard eigenproblem
  | Time :     0.016 s
  Finished back-transformation of eigenvectors
  | Time :     0.002 s

  Obtaining occupation numbers and chemical potential using ELSI.
  | Chemical potential (Fermi level):    -7.38613662 eV
  Writing Kohn-Sham eigenvalues.

  State    Occupation    Eigenvalue [Ha]    Eigenvalue [eV]
      1       2.00000         -55.678231        -1515.08176
      2       2.00000         -55.652980        -1514.39465
      3       2.00000         -55.637029        -1513.96059
      4       2.00000         -24.237974         -659.54883
      5       2.00000         -24.213465         -658.88190
      6       2.00000         -24.213187         -658.87434
      7       2.00000         -24.212023         -658.84268
      8       2.00000         -24.178336         -657.92599
      9       2.00000         -24.087866         -655.46420
     10       2.00000         -24.073654         -655.07745
     11       2.00000         -24.047739         -654.37227
     12       2.00000         -24.039654         -654.15228
     13       2.00000          -4.115999         -112.00203
     14       2.00000          -4.093078         -111.37831
     15       2.00000          -4.073617         -110.84875
     16       2.00000          -2.708951          -73.71430
     17       2.00000          -2.708708          -73.70770
     18       2.00000          -2.708386          -73.69894
     19       2.00000          -2.686887          -73.11391
     20       2.00000          -2.685623          -73.07951
     21       2.00000          -2.684613          -73.05203
     22       2.00000          -2.667674          -72.59111
     23       2.00000          -2.666635          -72.56282
     24       2.00000          -2.664492          -72.50453
     25       2.00000          -1.162992          -31.64663
     26       2.00000          -1.135124          -30.88829
     27       2.00000          -1.134463          -30.87030
     28       2.00000          -1.126535          -30.65458
     29       2.00000          -1.100405          -29.94355
     30       2.00000          -1.032838          -28.10495
     31       2.00000          -1.021093          -27.78535
     32       2.00000          -0.995909          -27.10006
     33       2.00000          -0.988266          -26.89208
     34       2.00000          -0.554294          -15.08312
     35       2.00000          -0.531157          -14.45351
     36       2.00000          -0.514309          -13.99507
     37       2.00000          -0.493011          -13.41552
     38       2.00000          -0.488515          -13.29316
     39       2.00000          -0.475681          -12.94393
     40       2.00000          -0.473723          -12.89066
     41       2.00000          -0.464720          -12.64567
     42       2.00000          -0.445337          -12.11823
     43       2.00000          -0.433502          -11.79619
     44       2.00000          -0.431197          -11.73346
     45       2.00000          -0.421096          -11.45861
     46       2.00000          -0.416128          -11.32341
     47       2.00000          -0.408949          -11.12807
     48       2.00000          -0.397163          -10.80735
     49       2.00000          -0.388024          -10.55867
     50       2.00000          -0.379873          -10.33687
     51       2.00000          -0.370800          -10.08998
     52       2.00000          -0.343194           -9.33878
     53       2.00000          -0.341612           -9.29575
     54       2.00000          -0.337816           -9.19243
     55       2.00000          -0.329788           -8.97400
     56       2.00000          -0.328628           -8.94243
     57       2.00000          -0.310115           -8.43865
     58       2.00000          -0.307413           -8.36515
     59       2.00000          -0.296183           -8.05956
     60       2.00000          -0.289213           -7.86988
     61       0.00000          -0.167483           -4.55746
     62       0.00000          -0.109796           -2.98771
     63       0.00000          -0.078162           -2.12691
     64       0.00000          -0.064187           -1.74662
     65       0.00000          -0.052523           -1.42923
     66       0.00000          -0.020254           -0.55115
     67       0.00000           0.001946            0.05295
     68       0.00000           0.026966            0.73379
     69       0.00000           0.034581            0.94100
     70       0.00000           0.063881            1.73829
     71       0.00000           0.078924            2.14762
     72       0.00000           0.096534            2.62683
     73       0.00000           0.146911            3.99766
     74       0.00000           0.154745            4.21082
     75       0.00000           0.157123            4.27554
     76       0.00000           0.163417            4.44682
     77       0.00000           0.182622            4.96940
     78       0.00000           0.191453            5.20969
     79       0.00000           0.193692            5.27062
     80       0.00000           0.212368            5.77882
     81       0.00000           0.214098            5.82591
     82       0.00000           0.222080            6.04310
     83       0.00000           0.231339            6.29505
     84       0.00000           0.234104            6.37028
     85       0.00000           0.236413            6.43314
     86       0.00000           0.251482            6.84318
     87       0.00000           0.254358            6.92143
     88       0.00000           0.266106            7.24112
     89       0.00000           0.270907            7.37175
     90       0.00000           0.283109            7.70377
     91       0.00000           0.284541            7.74276
     92       0.00000           0.325969            8.87008
     93       0.00000           0.348092            9.47207
     94       0.00000           0.365543            9.94694
     95       0.00000           0.384325           10.45802
     96       0.00000           0.385562           10.49168

  Highest occupied state (VBM) at     -7.86987695 eV
  | Occupation number:      2.00000000

  Lowest unoccupied state (CBM) at    -4.55745721 eV
  | Occupation number:      0.00000000

  Overall HOMO-LUMO gap:      3.31241974 eV.

  Total energy components:
  | Sum of eigenvalues            :        -882.81172970 Ha      -24022.52941799 eV
  | XC energy correction          :        -145.65498646 Ha       -3963.47384081 eV
  | XC potential correction       :         189.66886262 Ha        5161.15234855 eV
  | Free-atom electrostatic energy:        -781.44735289 Ha      -21264.26438588 eV
  | Hartree energy correction     :          -4.88321112 Ha        -132.87893540 eV
  | Entropy correction            :           0.00000000 Ha           0.00000000 eV
  | ---------------------------
  | Total energy                  :       -1625.12841754 Ha      -44221.99423153 eV
  | Total energy, T -> 0          :       -1625.12841754 Ha      -44221.99423153 eV  <-- do not rely on this value for anything but (periodic) metals
  | Electronic free energy        :       -1625.12841754 Ha      -44221.99423153 eV

  Derived energy quantities:
  | Kinetic energy                :        1633.77993527 Ha       44457.41400705 eV
  | Electrostatic energy          :       -3113.25336635 Ha      -84715.93439777 eV
  | Energy correction for multipole
  | error in Hartree potential    :           0.03254862 Ha           0.88569300 eV
  | Sum of eigenvalues per atom                           :       -2001.87745150 eV
  | Total energy (T->0) per atom                          :       -3685.16618596 eV  <-- do not rely on this value for anything but (periodic) metals
  | Electronic free energy per atom                       :       -3685.16618596 eV
  Evaluating new KS density.
  Integration grid: deviation in total charge (<rho> - N_e) =  -1.421085E-14

  Self-consistency convergence accuracy:
  | Change of charge density      :  0.5904E+00
  | Change of sum of eigenvalues  :  0.1277E+03 eV
  | Change of total energy        :  0.5793E+01 eV


------------------------------------------------------------
  End self-consistency iteration #     1       :  max(cpu_time)    wall_clock(cpu1)
  | Time for this iteration                     :        0.112 s           0.112 s
  | Charge density update                       :        0.028 s           0.028 s
  | Density mixing                              :        0.001 s           0.001 s
  | Hartree multipole update                    :        0.010 s           0.010 s
  | Hartree multipole summation                 :        0.019 s           0.019 s
  | Integration                                 :        0.032 s           0.032 s
  | Solution of K.-S. eqns.                     :        0.021 s           0.021 s
  | Total energy evaluation                     :        0.000 s           0.001 s

  Partial memory accounting:
  | Current value for overall tracked memory usage:
  |   Minimum:        0.273 MB (on task 23)
  |   Maximum:        0.292 MB (on task  0)
  |   Average:        0.287 MB
  | Peak value for overall tracked memory usage:
  |   Minimum:        1.361 MB (on task  6 after allocating wave)
  |   Maximum:        1.425 MB (on task  8 after allocating wave)
  |   Average:        1.398 MB
  | Largest tracked array allocation so far:
  |   Minimum:        0.739 MB (gradient_basis_wave on task  6)
  |   Maximum:        0.779 MB (gradient_basis_wave on task  8)
  |   Average:        0.765 MB
  Note:  These values currently only include a subset of arrays which are explicitly tracked.
  The "true" memory usage will be greater.
------------------------------------------------------------

------------------------------------------------------------
          Begin self-consistency iteration #    2

  Date     :  20220517, Time     :  120530.221
------------------------------------------------------------
  Pulay mixing of updated and previous charge densities.
  Renormalizing the density to the exact electron count on the 3D integration grid.
  | Formal number of electrons (from input files) :     120.0000000000
  | Integrated number of electrons on 3D grid     :     120.0000000000
  | Charge integration error                      :       0.0000000000
  | Normalization factor for density and gradient :       1.0000000000

  Evaluating partitioned Hartree potential by multipole expansion.
  | Original multipole sum: apparent total charge =   0.455796E-13
  | Sum of charges compensated after spline to logarithmic grids =   0.562209E-04
  | Analytical far-field extrapolation by fixed multipoles:
  | Hartree multipole sum: apparent total charge =   0.481255E-13
  Summing up the Hartree potential.
  Time summed over all CPUs for potential: real work        0.381 s, elapsed        0.393 s
  | RMS charge density error from multipole expansion :   0.127531E-01

  Integrating Hamiltonian matrix: batch-based integration.
  Time summed over all CPUs for integration: real work        0.705 s, elapsed        0.739 s

  Updating Kohn-Sham eigenvalues and eigenvectors using ELSI and the ELPA eigensolver.
  Starting ELPA eigensolver
  Finished transformation to standard eigenproblem
  | Time :     0.001 s
  Finished solving standard eigenproblem
  | Time :     0.012 s
  Finished back-transformation of eigenvectors
  | Time :     0.001 s

  Obtaining occupation numbers and chemical potential using ELSI.
  | Chemical potential (Fermi level):    -7.55366314 eV
  Highest occupied state (VBM) at     -8.95945496 eV
  | Occupation number:      2.00000000

  Lowest unoccupied state (CBM) at    -4.77185588 eV
  | Occupation number:      0.00000000

  Overall HOMO-LUMO gap:      4.18759909 eV.

  Checking to see if s.c.f. parameters should be adjusted.

  Total energy components:
  | Sum of eigenvalues            :        -885.70564230 Ha      -24101.27678648 eV
  | XC energy correction          :        -145.17413174 Ha       -3950.38911836 eV
  | XC potential correction       :         189.03630730 Ha        5143.93964235 eV
  | Free-atom electrostatic energy:        -781.44735289 Ha      -21264.26438588 eV
  | Hartree energy correction     :          -1.77614483 Ha         -48.33135985 eV
  | Entropy correction            :           0.00000000 Ha           0.00000000 eV
  | ---------------------------
  | Total energy                  :       -1625.06696446 Ha      -44220.32200823 eV
  | Total energy, T -> 0          :       -1625.06696446 Ha      -44220.32200823 eV  <-- do not rely on this value for anything but (periodic) metals
  | Electronic free energy        :       -1625.06696446 Ha      -44220.32200823 eV

  Derived energy quantities:
  | Kinetic energy                :        1629.97370712 Ha       44353.84126924 eV
  | Electrostatic energy          :       -3109.86653983 Ha      -84623.77415912 eV
  | Energy correction for multipole
  | error in Hartree potential    :           0.03617171 Ha           0.98428241 eV
  | Sum of eigenvalues per atom                           :       -2008.43973221 eV
  | Total energy (T->0) per atom                          :       -3685.02683402 eV  <-- do not rely on this value for anything but (periodic) metals
  | Electronic free energy per atom                       :       -3685.02683402 eV
  Evaluating new KS density.
  Integration grid: deviation in total charge (<rho> - N_e) =  -1.421085E-14

  Self-consistency convergence accuracy:
  | Change of charge density      :  0.4635E+00
  | Change of sum of eigenvalues  : -0.7875E+02 eV
  | Change of total energy        :  0.1672E+01 eV


------------------------------------------------------------
  End self-consistency iteration #     2       :  max(cpu_time)    wall_clock(cpu1)
  | Time for this iteration                     :        0.102 s           0.100 s
  | Charge density update                       :        0.029 s           0.029 s
  | Density mixing                              :        0.006 s           0.003 s
  | Hartree multipole update                    :        0.001 s           0.002 s
  | Hartree multipole summation                 :        0.017 s           0.016 s
  | Integration                                 :        0.033 s           0.033 s
  | Solution of K.-S. eqns.                     :        0.016 s           0.016 s
  | Total energy evaluation                     :        0.000 s           0.001 s

  Partial memory accounting:
  | Current value for overall tracked memory usage:
  |   Minimum:        0.274 MB (on task 23)
  |   Maximum:        0.293 MB (on task  0)
  |   Average:        0.288 MB
  | Peak value for overall tracked memory usage:
  |   Minimum:        1.361 MB (on task  6 after allocating wave)
  |   Maximum:        1.425 MB (on task  8 after allocating wave)
  |   Average:        1.398 MB
  | Largest tracked array allocation so far:
  |   Minimum:        0.739 MB (gradient_basis_wave on task  6)
  |   Maximum:        0.779 MB (gradient_basis_wave on task  8)
  |   Average:        0.765 MB
  Note:  These values currently only include a subset of arrays which are explicitly tracked.
  The "true" memory usage will be greater.
------------------------------------------------------------

------------------------------------------------------------
          Begin self-consistency iteration #    3

  Date     :  20220517, Time     :  120530.324
------------------------------------------------------------
  Pulay mixing of updated and previous charge densities.
  Renormalizing the density to the exact electron count on the 3D integration grid.
  | Formal number of electrons (from input files) :     120.0000000000
  | Integrated number of electrons on 3D grid     :     120.0000000000
  | Charge integration error                      :      -0.0000000000
  | Normalization factor for density and gradient :       1.0000000000

  Evaluating partitioned Hartree potential by multipole expansion.
  | Original multipole sum: apparent total charge =  -0.568577E-13
  | Sum of charges compensated after spline to logarithmic grids =   0.712667E-04
  | Analytical far-field extrapolation by fixed multipoles:
  | Hartree multipole sum: apparent total charge =  -0.550313E-13
  Summing up the Hartree potential.
  Time summed over all CPUs for potential: real work        0.381 s, elapsed        0.394 s
  | RMS charge density error from multipole expansion :   0.175412E-01

  Integrating Hamiltonian matrix: batch-based integration.
  Time summed over all CPUs for integration: real work        0.705 s, elapsed        0.737 s

  Updating Kohn-Sham eigenvalues and eigenvectors using ELSI and the ELPA eigensolver.
  Starting ELPA eigensolver
  Finished transformation to standard eigenproblem
  | Time :     0.003 s
  Finished solving standard eigenproblem
  | Time :     0.008 s
  Finished back-transformation of eigenvectors
  | Time :     0.003 s

  Obtaining occupation numbers and chemical potential using ELSI.
  | Chemical potential (Fermi level):    -7.59255618 eV
  Highest occupied state (VBM) at     -8.55431823 eV
  | Occupation number:      2.00000000

  Lowest unoccupied state (CBM) at    -5.01152522 eV
  | Occupation number:      0.00000000

  Overall HOMO-LUMO gap:      3.54279301 eV.

  Total energy components:
  | Sum of eigenvalues            :        -886.66245865 Ha      -24127.31308410 eV
  | XC energy correction          :        -145.13607251 Ha       -3949.35347400 eV
  | XC potential correction       :         188.98506979 Ha        5142.54539880 eV
  | Free-atom electrostatic energy:        -781.44735289 Ha      -21264.26438588 eV
  | Hartree energy correction     :          -0.80531468 Ha         -21.91372751 eV
  | Entropy correction            :           0.00000000 Ha           0.00000000 eV
  | ---------------------------
  | Total energy                  :       -1625.06612895 Ha      -44220.29927269 eV
  | Total energy, T -> 0          :       -1625.06612895 Ha      -44220.29927269 eV  <-- do not rely on this value for anything but (periodic) metals
  | Electronic free energy        :       -1625.06612895 Ha      -44220.29927269 eV

  Derived energy quantities:
  | Kinetic energy                :        1628.23554882 Ha       44306.54357559 eV
  | Electrostatic energy          :       -3108.16560526 Ha      -84577.48937428 eV
  | Energy correction for multipole
  | error in Hartree potential    :           0.04921026 Ha           1.33907926 eV
  | Sum of eigenvalues per atom                           :       -2010.60942367 eV
  | Total energy (T->0) per atom                          :       -3685.02493939 eV  <-- do not rely on this value for anything but (periodic) metals
  | Electronic free energy per atom                       :       -3685.02493939 eV
  Evaluating new KS density.
  Integration grid: deviation in total charge (<rho> - N_e) =   2.842171E-14

  Self-consistency convergence accuracy:
  | Change of charge density      :  0.1244E+00
  | Change of sum of eigenvalues  : -0.2604E+02 eV
  | Change of total energy        :  0.2274E-01 eV


------------------------------------------------------------
  End self-consistency iteration #     3       :  max(cpu_time)    wall_clock(cpu1)
  | Time for this iteration                     :        0.103 s           0.103 s
  | Charge density update                       :        0.028 s           0.029 s
  | Density mixing                              :        0.008 s           0.008 s
  | Hartree multipole update                    :        0.001 s           0.001 s
  | Hartree multipole summation                 :        0.017 s           0.017 s
  | Integration                                 :        0.032 s           0.032 s
  | Solution of K.-S. eqns.                     :        0.015 s           0.016 s
  | Total energy evaluation                     :        0.000 s           0.000 s

  Partial memory accounting:
  | Current value for overall tracked memory usage:
  |   Minimum:        0.274 MB (on task 23)
  |   Maximum:        0.293 MB (on task  0)
  |   Average:        0.288 MB
  | Peak value for overall tracked memory usage:
  |   Minimum:        1.361 MB (on task  6 after allocating wave)
  |   Maximum:        1.425 MB (on task  8 after allocating wave)
  |   Average:        1.398 MB
  | Largest tracked array allocation so far:
  |   Minimum:        0.739 MB (gradient_basis_wave on task  6)
  |   Maximum:        0.779 MB (gradient_basis_wave on task  8)
  |   Average:        0.765 MB
  Note:  These values currently only include a subset of arrays which are explicitly tracked.
  The "true" memory usage will be greater.
------------------------------------------------------------

------------------------------------------------------------
          Begin self-consistency iteration #    4

  Date     :  20220517, Time     :  120530.435
------------------------------------------------------------
  Pulay mixing of updated and previous charge densities.
  Renormalizing the density to the exact electron count on the 3D integration grid.
  | Formal number of electrons (from input files) :     120.0000000000
  | Integrated number of electrons on 3D grid     :     120.0000000000
  | Charge integration error                      :       0.0000000000
  | Normalization factor for density and gradient :       1.0000000000

  Evaluating partitioned Hartree potential by multipole expansion.
  | Original multipole sum: apparent total charge =  -0.158655E-13
  | Sum of charges compensated after spline to logarithmic grids =   0.763295E-04
  | Analytical far-field extrapolation by fixed multipoles:
  | Hartree multipole sum: apparent total charge =  -0.171692E-13
  Summing up the Hartree potential.
  Time summed over all CPUs for potential: real work        0.381 s, elapsed        0.394 s
  | RMS charge density error from multipole expansion :   0.193734E-01

  Integrating Hamiltonian matrix: batch-based integration.
  Time summed over all CPUs for integration: real work        0.705 s, elapsed        0.743 s

  Updating Kohn-Sham eigenvalues and eigenvectors using ELSI and the ELPA eigensolver.
  Starting ELPA eigensolver
  Finished transformation to standard eigenproblem
  | Time :     0.003 s
  Finished solving standard eigenproblem
  | Time :     0.013 s
  Finished back-transformation of eigenvectors
  | Time :     0.002 s

  Obtaining occupation numbers and chemical potential using ELSI.
  | Chemical potential (Fermi level):    -7.59083369 eV
  Highest occupied state (VBM) at     -8.59872421 eV
  | Occupation number:      2.00000000

  Lowest unoccupied state (CBM) at    -4.97431477 eV
  | Occupation number:      0.00000000

  Overall HOMO-LUMO gap:      3.62440944 eV.

  Total energy components:
  | Sum of eigenvalues            :        -886.74723611 Ha      -24129.61999606 eV
  | XC energy correction          :        -145.12136438 Ha       -3948.95324525 eV
  | XC potential correction       :         188.96517346 Ha        5142.00399209 eV
  | Free-atom electrostatic energy:        -781.44735289 Ha      -21264.26438588 eV
  | Hartree energy correction     :          -0.71311853 Ha         -19.40494260 eV
  | Entropy correction            :           0.00000000 Ha           0.00000000 eV
  | ---------------------------
  | Total energy                  :       -1625.06389845 Ha      -44220.23857771 eV
  | Total energy, T -> 0          :       -1625.06389845 Ha      -44220.23857771 eV  <-- do not rely on this value for anything but (periodic) metals
  | Electronic free energy        :       -1625.06389845 Ha      -44220.23857771 eV

  Derived energy quantities:
  | Kinetic energy                :        1627.64737018 Ha       44290.53842026 eV
  | Electrostatic energy          :       -3107.58990424 Ha      -84561.82375272 eV
  | Energy correction for multipole
  | error in Hartree potential    :           0.05379502 Ha           1.46383701 eV
  | Sum of eigenvalues per atom                           :       -2010.80166634 eV
  | Total energy (T->0) per atom                          :       -3685.01988148 eV  <-- do not rely on this value for anything but (periodic) metals
  | Electronic free energy per atom                       :       -3685.01988148 eV
  Evaluating new KS density.
  Integration grid: deviation in total charge (<rho> - N_e) =  -4.263256E-14

  Self-consistency convergence accuracy:
  | Change of charge density      :  0.8194E-01
  | Change of sum of eigenvalues  : -0.2307E+01 eV
  | Change of total energy        :  0.6069E-01 eV


------------------------------------------------------------
  End self-consistency iteration #     4       :  max(cpu_time)    wall_clock(cpu1)
  | Time for this iteration                     :        0.106 s           0.104 s
  | Charge density update                       :        0.028 s           0.028 s
  | Density mixing                              :        0.007 s           0.003 s
  | Hartree multipole update                    :        0.001 s           0.001 s
  | Hartree multipole summation                 :        0.017 s           0.017 s
  | Integration                                 :        0.033 s           0.034 s
  | Solution of K.-S. eqns.                     :        0.020 s           0.019 s
  | Total energy evaluation                     :        0.000 s           0.001 s

  Partial memory accounting:
  | Current value for overall tracked memory usage:
  |   Minimum:        0.274 MB (on task 23)
  |   Maximum:        0.293 MB (on task  0)
  |   Average:        0.288 MB
  | Peak value for overall tracked memory usage:
  |   Minimum:        1.361 MB (on task  6 after allocating wave)
  |   Maximum:        1.425 MB (on task  8 after allocating wave)
  |   Average:        1.398 MB
  | Largest tracked array allocation so far:
  |   Minimum:        0.739 MB (gradient_basis_wave on task  6)
  |   Maximum:        0.779 MB (gradient_basis_wave on task  8)
  |   Average:        0.765 MB
  Note:  These values currently only include a subset of arrays which are explicitly tracked.
  The "true" memory usage will be greater.
------------------------------------------------------------

------------------------------------------------------------
          Begin self-consistency iteration #    5

  Date     :  20220517, Time     :  120530.549
------------------------------------------------------------
  Pulay mixing of updated and previous charge densities.
  Renormalizing the density to the exact electron count on the 3D integration grid.
  | Formal number of electrons (from input files) :     120.0000000000
  | Integrated number of electrons on 3D grid     :     120.0000000000
  | Charge integration error                      :      -0.0000000000
  | Normalization factor for density and gradient :       1.0000000000

  Evaluating partitioned Hartree potential by multipole expansion.
  | Original multipole sum: apparent total charge =  -0.775444E-13
  | Sum of charges compensated after spline to logarithmic grids =   0.769980E-04
  | Analytical far-field extrapolation by fixed multipoles:
  | Hartree multipole sum: apparent total charge =  -0.774460E-13
  Summing up the Hartree potential.
  Time summed over all CPUs for potential: real work        0.381 s, elapsed        0.394 s
  | RMS charge density error from multipole expansion :   0.191689E-01

  Integrating Hamiltonian matrix: batch-based integration.
  Time summed over all CPUs for integration: real work        0.706 s, elapsed        0.738 s

  Updating Kohn-Sham eigenvalues and eigenvectors using ELSI and the ELPA eigensolver.
  Starting ELPA eigensolver
  Finished transformation to standard eigenproblem
  | Time :     0.003 s
  Finished solving standard eigenproblem
  | Time :     0.009 s
  Finished back-transformation of eigenvectors
  | Time :     0.001 s

  Obtaining occupation numbers and chemical potential using ELSI.
  | Chemical potential (Fermi level):    -7.58039518 eV
  Highest occupied state (VBM) at     -8.68475661 eV
  | Occupation number:      2.00000000

  Lowest unoccupied state (CBM) at    -4.90909017 eV
  | Occupation number:      0.00000000

  Overall HOMO-LUMO gap:      3.77566644 eV.

  Total energy components:
  | Sum of eigenvalues            :        -886.55280459 Ha      -24124.32924528 eV
  | XC energy correction          :        -145.11833280 Ha       -3948.87075195 eV
  | XC potential correction       :         188.96135862 Ha        5141.90018505 eV
  | Free-atom electrostatic energy:        -781.44735289 Ha      -21264.26438588 eV
  | Hartree energy correction     :          -0.90663008 Ha         -24.67065962 eV
  | Entropy correction            :           0.00000000 Ha           0.00000000 eV
[...]
   Total forces(   7)            : -0.826044E+00  0.249515E+01  0.296627E+00
  atom #    8
   Hellmann-Feynman              :  0.577868E+00 -0.787375E+00  0.109488E+00
   Ionic forces                  :  0.000000E+00  0.000000E+00  0.000000E+00
   Multipole                     :  0.417132E+00 -0.291429E+00 -0.157120E-01
   Hartree pot. SCF incomplete   :  0.768583E-05 -0.551686E-05 -0.666549E-05
   Pulay + GGA                   : -0.303705E+01  0.284349E+01 -0.179157E+00
   ----------------------------------------------------------------
   Total forces(   8)            : -0.204204E+01  0.176468E+01 -0.853872E-01
  atom #    9
   Hellmann-Feynman              : -0.515203E+00  0.677101E+00 -0.318249E+01
   Ionic forces                  :  0.000000E+00  0.000000E+00  0.000000E+00
   Multipole                     : -0.201718E+00  0.131119E+00 -0.838274E+00
   Hartree pot. SCF incomplete   : -0.245263E-05  0.442748E-06 -0.344424E-05
   Pulay + GGA                   :  0.148384E+01 -0.139273E+01  0.742663E+01
   ----------------------------------------------------------------
   Total forces(   9)            :  0.766917E+00 -0.584512E+00  0.340587E+01
  atom #   10
   Hellmann-Feynman              : -0.678149E+00  0.714288E+00  0.179997E+00
   Ionic forces                  :  0.000000E+00  0.000000E+00  0.000000E+00
   Multipole                     : -0.391851E-01  0.522857E+00  0.115026E+00
   Hartree pot. SCF incomplete   : -0.328392E-05  0.146526E-04 -0.472747E-05
   Pulay + GGA                   :  0.790505E+00 -0.347911E+01 -0.145910E+01
   ----------------------------------------------------------------
   Total forces(  10)            :  0.731673E-01 -0.224195E+01 -0.116408E+01
  atom #   11
   Hellmann-Feynman              :  0.323647E+01  0.109548E+01  0.133977E+01
   Ionic forces                  :  0.000000E+00  0.000000E+00  0.000000E+00
   Multipole                     :  0.703977E+00  0.237013E+00  0.247985E+00
   Hartree pot. SCF incomplete   :  0.135302E-05  0.102150E-05  0.207673E-05
   Pulay + GGA                   : -0.669204E+01 -0.217281E+01 -0.277722E+01
   ----------------------------------------------------------------
   Total forces(  11)            : -0.275159E+01 -0.840316E+00 -0.118947E+01
  atom #   12
   Hellmann-Feynman              : -0.768409E+00 -0.529321E+00  0.902491E+00
   Ionic forces                  :  0.000000E+00  0.000000E+00  0.000000E+00
   Multipole                     : -0.290036E+00 -0.255807E+00  0.196721E+00
   Hartree pot. SCF incomplete   : -0.985801E-05 -0.383388E-05 -0.360322E-05
   Pulay + GGA                   :  0.311159E+01  0.180268E+01 -0.754183E+00
   ----------------------------------------------------------------
   Total forces(  12)            :  0.205314E+01  0.101755E+01  0.345025E+00


  Self-consistency convergence accuracy:
  | Change of charge density      :  0.1176E-05
  | Change of sum of eigenvalues  : -0.2440E-04 eV
  | Change of total energy        :  0.6303E-07 eV
  | Change of forces              :  0.1936E-05 eV/A

  Writing Kohn-Sham eigenvalues.

  State    Occupation    Eigenvalue [Ha]    Eigenvalue [eV]
      1       2.00000         -55.665899        -1514.74618
      2       2.00000         -55.632912        -1513.84857
      3       2.00000         -55.610146        -1513.22908
      4       2.00000         -24.317692         -661.71807
      5       2.00000         -24.302307         -661.29943
      6       2.00000         -24.294342         -661.08268
      7       2.00000         -24.288441         -660.92211
      8       2.00000         -24.269457         -660.40554
      9       2.00000         -24.240312         -659.61244
     10       2.00000         -24.212202         -658.84755
     11       2.00000         -24.181682         -658.01704
     12       2.00000         -24.172893         -657.77788
     13       2.00000          -4.117529         -112.04367
     14       2.00000          -4.086161         -111.19010
     15       2.00000          -4.059838         -110.47382
     16       2.00000          -2.710795          -73.76450
     17       2.00000          -2.709092          -73.71815
     18       2.00000          -2.707476          -73.67416
     19       2.00000          -2.679230          -72.90555
     20       2.00000          -2.677553          -72.85994
     21       2.00000          -2.676365          -72.82761
     22       2.00000          -2.654627          -72.23607
     23       2.00000          -2.651335          -72.14650
     24       2.00000          -2.648103          -72.05856
     25       2.00000          -1.187754          -32.32042
     26       2.00000          -1.162536          -31.63423
     27       2.00000          -1.154149          -31.40599
     28       2.00000          -1.150158          -31.29739
     29       2.00000          -1.123851          -30.58153
     30       2.00000          -1.086523          -29.56578
     31       2.00000          -1.061366          -28.88123
     32       2.00000          -1.027623          -27.96305
     33       2.00000          -1.018135          -27.70487
     34       2.00000          -0.572737          -15.58496
     35       2.00000          -0.552442          -15.03272
     36       2.00000          -0.530707          -14.44128
     37       2.00000          -0.515736          -14.03389
     38       2.00000          -0.512198          -13.93762
     39       2.00000          -0.497223          -13.53012
     40       2.00000          -0.493210          -13.42093
     41       2.00000          -0.489409          -13.31749
     42       2.00000          -0.468443          -12.74698
     43       2.00000          -0.459801          -12.51181
     44       2.00000          -0.455401          -12.39208
     45       2.00000          -0.446976          -12.16283
     46       2.00000          -0.441378          -12.01050
     47       2.00000          -0.440047          -11.97430
     48       2.00000          -0.432214          -11.76113
     49       2.00000          -0.418145          -11.37829
     50       2.00000          -0.410249          -11.16346
     51       2.00000          -0.396586          -10.79166
     52       2.00000          -0.392565          -10.68223
     53       2.00000          -0.390498          -10.62598
     54       2.00000          -0.368459          -10.02627
     55       2.00000          -0.366956           -9.98539
     56       2.00000          -0.365394           -9.94287
     57       2.00000          -0.338251           -9.20428
     58       2.00000          -0.334083           -9.09086
     59       2.00000          -0.324348           -8.82596
     60       2.00000          -0.318126           -8.65665
     61       0.00000          -0.180539           -4.91273
     62       0.00000          -0.121123           -3.29592
     63       0.00000          -0.083342           -2.26785
     64       0.00000          -0.071056           -1.93353
     65       0.00000          -0.059478           -1.61847
     66       0.00000          -0.024857           -0.67640
     67       0.00000           0.001453            0.03954
     68       0.00000           0.022265            0.60587
     69       0.00000           0.030567            0.83176
     70       0.00000           0.062725            1.70683
     71       0.00000           0.076945            2.09378
     72       0.00000           0.092914            2.52832
     73       0.00000           0.138393            3.76586
     74       0.00000           0.148436            4.03915
     75       0.00000           0.154097            4.19319
     76       0.00000           0.156741            4.26514
     77       0.00000           0.178465            4.85627
     78       0.00000           0.186761            5.08202
     79       0.00000           0.191248            5.20411
     80       0.00000           0.210761            5.73510
     81       0.00000           0.211232            5.74790
     82       0.00000           0.217986            5.93169
     83       0.00000           0.226494            6.16321
     84       0.00000           0.229902            6.25595
     85       0.00000           0.234413            6.37870
     86       0.00000           0.247062            6.72291
     87       0.00000           0.248941            6.77403
     88       0.00000           0.263235            7.16299
     89       0.00000           0.264742            7.20399
     90       0.00000           0.278020            7.56530
     91       0.00000           0.281199            7.65182
     92       0.00000           0.323680            8.80779
     93       0.00000           0.341492            9.29246
     94       0.00000           0.359552            9.78392
     95       0.00000           0.373566           10.16525
     96       0.00000           0.378276           10.29342

  Highest occupied state (VBM) at     -8.65665008 eV
  | Occupation number:      2.00000000

  Lowest unoccupied state (CBM) at    -4.91272835 eV
  | Occupation number:      0.00000000

  Overall HOMO-LUMO gap:      3.74392173 eV.
  | Chemical Potential                          :    -7.57813833 eV

  Self-consistency cycle converged.


------------------------------------------------------------
  End self-consistency iteration #    13       :  max(cpu_time)    wall_clock(cpu1)
  | Time for this iteration                     :        0.277 s           0.275 s
  | Charge density & force component update     :        0.153 s           0.154 s
  | Density mixing                              :        0.005 s           0.002 s
  | Hartree multipole update                    :        0.001 s           0.002 s
  | Hartree multipole summation                 :        0.049 s           0.049 s
  | Hartree pot. SCF incomplete forces          :        0.032 s           0.032 s
  | Integration                                 :        0.031 s           0.031 s
  | Solution of K.-S. eqns.                     :        0.004 s           0.004 s
  | Total energy evaluation                     :        0.000 s           0.000 s

  Partial memory accounting:
  | Current value for overall tracked memory usage:
  |   Minimum:        0.274 MB (on task 23)
  |   Maximum:        0.293 MB (on task  0)
  |   Average:        0.289 MB
  | Peak value for overall tracked memory usage:
  |   Minimum:        3.027 MB (on task  6 after allocating hessian_basis_wave)
  |   Maximum:        3.163 MB (on task  8 after allocating hessian_basis_wave)
  |   Average:        3.110 MB
  | Largest tracked array allocation so far:
  |   Minimum:        1.477 MB (hessian_basis_wave on task  6)
  |   Maximum:        1.559 MB (hessian_basis_wave on task  8)
  |   Average:        1.530 MB
  Note:  These values currently only include a subset of arrays which are explicitly tracked.
  The "true" memory usage will be greater.
------------------------------------------------------------
  Removing unitary transformations (pure translations, rotations) from forces on atoms.
  Atomic forces before filtering:
  | Net force on center of mass :  -0.141411E-01 -0.111454E-01  0.190292E-02 eV/A
  | Net torque on center of mass:  -0.854475E-03  0.144647E-01 -0.112165E-02 eV
  Atomic forces after filtering:
  | Net force on center of mass :   0.178406E-14  0.535218E-15  0.446015E-15 eV/A
  | Net torque on center of mass:   0.415397E-14 -0.188817E-15 -0.188817E-14 eV

  Energy and forces in a compact form:
  | Total energy uncorrected      :         -0.442202344815808E+05 eV
  | Total energy corrected        :         -0.442202344815808E+05 eV  <-- do not rely on this value for anything but (periodic) metals
  | Electronic free energy        :         -0.442202344815808E+05 eV
  Total atomic forces (unitary forces cleaned) [eV/Ang]:
  |    1         -0.317974093756809E+01         -0.134024706569686E+01          0.229615410081618E+00
  |    2          0.289503562776547E+01          0.181796219976440E+00          0.210379294281410E+01
  |    3         -0.886235000964752E+00          0.168979895401027E-01         -0.241908332667241E+01
  |    4          0.610558579933050E+00         -0.182179786039053E+01         -0.102939445695989E+01
  |    5          0.252244915534932E+01         -0.166757689138283E+01          0.197211237494993E+00
  |    6          0.756264721952520E+00          0.301456149150642E+01         -0.690935413709317E+00
  |    7         -0.824975501428893E+00          0.249613705929614E+01          0.296679697598951E+00
  |    8         -0.204051941729319E+01          0.176569686401808E+01         -0.850693635287234E-01
  |    9          0.768980463677415E+00         -0.583670769491744E+00          0.340565617371789E+01
  |   10          0.743596053337868E-01         -0.224099967396262E+01         -0.116413279078681E+01
  |   11         -0.275079849972035E+01         -0.839176273522219E+00         -0.118888943966829E+01
  |   12          0.205462120296371E+01          0.101837891010962E+01          0.344549329617877E+00

  ------------------------------------ 
  Start decomposition of the XC Energy 
  ------------------------------------ 
  X and C from original XC functional choice 
  Hartree-Fock Energy :          0.000000000 Ha              0.000000000 eV
  X Energy            :       -140.170493704 Ha          -3814.233199725 eV
  C Energy            :         -4.951864958 Ha           -134.747101358 eV
  Total XC Energy     :       -145.122358661 Ha          -3948.980301083 eV
  ------------------------------------ 
  LDA X and C from self-consistent density 
  X Energy LDA        :       -132.755343825 Ha          -3612.456705251 eV
  C Energy LDA        :         -8.825205147 Ha           -240.146050536 eV
  ------------------------------------ 
  End decomposition of the XC Energy 
  ------------------------------------ 

------------------------------------------------------------

------------------------------------------------------------------------------
  Final output of selected total energy values:

  The following output summarizes some interesting total energy values
  at the end of a run (AFTER all relaxation, molecular dynamics, etc.).

  | Total energy of the DFT / Hartree-Fock s.c.f. calculation      :         -44220.234481581 eV
  | Final zero-broadening corrected energy (caution - metals only) :         -44220.234481581 eV
  | For reference only, the value of 1 Hartree used in FHI-aims is :             27.211384500 eV

  Before relying on these values, please be sure to understand exactly which
  total energy value is referred to by a given number. Different objects may
  all carry the same name 'total energy'. Definitions:

  Total energy of the DFT / Hartree-Fock s.c.f. calculation:
  | Note that this energy does not include ANY quantities calculated after the
  | s.c.f. cycle, in particular not ANY RPA, MP2, etc. many-body perturbation terms.

  Final zero-broadening corrected energy:
  | For metallic systems only, a broadening of the occupation numbers at the Fermi
  | level can be extrapolated back to zero broadening by an electron-gas inspired
  | formula. For all systems that are not real metals, this value can be
  | meaningless and should be avoided.

------------------------------------------------------------------------------
  Methods described in the following list of references were used in this FHI-aims run.
  If you publish the results, please make sure to cite these reference if they apply.
  FHI-aims is an academic code, and for our developers (often, Ph.D. students
  and postdocs), scientific credit in the community is essential.
  Thank you for helping us!

  For any use of FHI-aims, please cite:

    Volker Blum, Ralf Gehrke, Felix Hanke, Paula Havu, Ville Havu,
    Xinguo Ren, Karsten Reuter, and Matthias Scheffler
    'Ab initio molecular simulations with numeric atom-centered orbitals'
    Computer Physics Communications 180, 2175-2196 (2009)
    http://dx.doi.org/10.1016/j.cpc.2009.06.022


  The ELSI infrastructure was used in your run to solve the Kohn-Sham electronic structure.
  Please check out http://elsi-interchange.org to learn more.
  If scalability is important for your project, please acknowledge ELSI by citing:

    V. W-z. Yu, F. Corsetti, A. Garcia, W. P. Huhn, M. Jacquelin, W. Jia,
    B. Lange, L. Lin, J. Lu, W. Mi, A. Seifitokaldani, A. Vazquez-Mayagoitia,
    C. Yang, H. Yang, and V. Blum
    'ELSI: A unified software interface for Kohn-Sham electronic structure solvers'
    Computer Physics Communications 222, 267-285 (2018).
    http://dx.doi.org/10.1016/j.cpc.2017.09.007


  For the real-space grid partitioning and parallelization used in this calculation, please cite:

    Ville Havu, Volker Blum, Paula Havu, and Matthias Scheffler,
    'Efficient O(N) integration for all-electron electronic structure calculation'
    'using numerically tabulated basis functions'
    Journal of Computational Physics 228, 8367-8379 (2009).
    http://dx.doi.org/10.1016/j.jcp.2009.08.008

  Of course, there are many other important community references, e.g., those cited in the
  above references. Our list is limited to references that describe implementations in the
  FHI-aims code. The reason is purely practical (length of this list) - please credit others as well.

------------------------------------------------------------
          Leaving FHI-aims.
          Date     :  20220517, Time     :  120531.829

          Computational steps:
          | Number of self-consistency cycles          :           13
          | Number of SCF (re)initializations          :            1

          Detailed time accounting                     :  max(cpu_time)    wall_clock(cpu1)
          | Total time                                  :        2.072 s           2.142 s
          | Preparation time                            :        0.184 s           0.184 s
          | Boundary condition initalization            :        0.000 s           0.000 s
          | Grid partitioning                           :        0.046 s           0.047 s
          | Preloading free-atom quantities on grid     :        0.017 s           0.018 s
          | Free-atom superposition energy              :        0.007 s           0.006 s
          | Total time for integrations                 :        0.467 s           0.468 s
          | Total time for solution of K.-S. equations  :        0.179 s           0.180 s
          | Total time for density & force components   :        0.648 s           0.650 s
          | Total time for mixing                       :        0.077 s           0.042 s
          | Total time for Hartree multipole update     :        0.026 s           0.027 s
          | Total time for Hartree multipole sum        :        0.287 s           0.285 s
          | Total time for total energy evaluation      :        0.003 s           0.006 s
          | Total time NSC force correction             :        0.064 s           0.064 s
          | Total time for scaled ZORA corrections      :        0.000 s           0.000 s

          Partial memory accounting:
          | Residual value for overall tracked memory usage across tasks:     0.000000 MB (should be 0.000000 MB)
          | Peak values for overall tracked memory usage:
          |   Minimum:        3.027 MB (on task  6 after allocating hessian_basis_wave)
          |   Maximum:        3.163 MB (on task  8 after allocating hessian_basis_wave)
          |   Average:        3.110 MB
          | Largest tracked array allocation:
          |   Minimum:        1.477 MB (hessian_basis_wave on task  6)
          |   Maximum:        1.559 MB (hessian_basis_wave on task  8)
          |   Average:        1.530 MB
          Note:  These values currently only include a subset of arrays which are explicitly tracked.
          The "true" memory usage will be greater.

          Have a nice day.
------------------------------------------------------------
