********************************************************************************
*                       GENERAL UTILITY LATTICE PROGRAM                        *
*                                 Julian Gale                                  *
*                       Curtin Institute for Computation                       *
*                           Department of Chemistry                            *
*                    Curtin University, Western Australia                      *
********************************************************************************
* Version = 5.1.1 * Last modified =  24th November 2018                        *
********************************************************************************
*  optimise     - perform optimisation run                                     *
*  conp         - constant pressure calculation                                *
*  shell        - only shells and radii to be optimised                        *
*  phonon       - calculate phonons for final geometry                         *
*  eigenvectors - output phonon eigenvectors                                   *
********************************************************************************

  Job Started  at 14:38.51 25th May        2022                               

  Number of CPUs =     1

  Host name      = login03                                 


  Total number of configurations input =      1

********************************************************************************
*  Input for Configuration =   1                                               *
********************************************************************************

  Formula = Al3F9                                                       

  Number of irreducible atoms/shells =      21


  Total number atoms/shells =      21

  Dimensionality = 0               :  Cluster


  Charge on cluster =  -0.000000


  Initial cluster dipoles : x =     -0.032624 e.Angs
                            y =     -0.006817 e.Angs
                            z =      0.086580 e.Angs

  Temperature of configuration =  0.000     K 

  Symmetry number =      1

  Cartesian coordinates of cluster :

--------------------------------------------------------------------------------
   No.  Atomic       x           y          z         Charge      Occupancy
        Label      (Angs)      (Angs)     (Angs)        (e)         (Frac)  
--------------------------------------------------------------------------------
      1 Al    c      0.3649     -0.5991      1.7426     3.00000    1.000000    
      2 Al    c      2.3416     -1.7846     -0.5289     3.00000    1.000000    
      3 Al    c     -0.9040     -1.8348     -0.9854     3.00000    1.000000    
      4 F     c      3.4191     -0.4078     -1.0304     0.59000    1.000000    
      5 F     c     -1.8636     -0.6542     -1.9814     0.59000    1.000000    
      6 F     c      2.8080     -3.5428     -0.6102     0.59000    1.000000    
      7 F     c     -1.1914     -3.6314     -0.9355     0.59000    1.000000    
      8 F     c      1.8380     -1.5635      1.2248     0.59000    1.000000    
      9 F     c      0.8194     -1.5087     -1.4911     0.59000    1.000000    
     10 F     c      0.0510     -1.1731      3.4348     0.59000    1.000000    
     11 F     c      0.5769      1.1373      1.2234     0.59000    1.000000    
     12 F     c     -1.0171     -1.3046      0.7638     0.59000    1.000000    
     13 F     s      3.4191 *   -0.4078 *   -1.0304 *  -1.59000    1.000000    
     14 F     s     -1.8636 *   -0.6542 *   -1.9814 *  -1.59000    1.000000    
     15 F     s      2.8080 *   -3.5428 *   -0.6102 *  -1.59000    1.000000    
     16 F     s     -1.1914 *   -3.6314 *   -0.9355 *  -1.59000    1.000000    
     17 F     s      1.8380 *   -1.5635 *    1.2248 *  -1.59000    1.000000    
     18 F     s      0.8194 *   -1.5087 *   -1.4911 *  -1.59000    1.000000    
     19 F     s      0.0510 *   -1.1731 *    3.4348 *  -1.59000    1.000000    
     20 F     s      0.5769 *    1.1373 *    1.2234 *  -1.59000    1.000000    
     21 F     s     -1.0171 *   -1.3046 *    0.7638 *  -1.59000    1.000000    
--------------------------------------------------------------------------------


  Brillouin zone sampling points :

--------------------------------------------------------------------------------
  Point number          x          y          z            Weight
--------------------------------------------------------------------------------
        1           0.000000   0.000000   0.000000     1.00000000
--------------------------------------------------------------------------------


********************************************************************************
*  General input information                                                   *
********************************************************************************

  Species output for all configurations : 

--------------------------------------------------------------------------------
  Species    Type    Atomic    Atomic    Charge       Radii (Angs)     Library
                     Number     Mass       (e)     Cova   Ionic  VDW   Symbol
--------------------------------------------------------------------------------
    Al       Core       13      26.98   3.000000   1.350  0.000  2.050          
    F        Core        9      19.00   0.590000   0.710  0.000  1.300          
    F        Shell       9       0.00  -1.590000   0.710  0.000  1.300          
--------------------------------------------------------------------------------


  Accuracy factor for short range sums = 12.000

  Time limit = Infinity

  Maximum range for interatomic potentials =    100000.000000 Angstroms

  General interatomic potentials :

--------------------------------------------------------------------------------
Atom  Types   Potential      Parameter       Value         Units   Cutoffs(Ang)
  1     2                                                            Min /  Max 
--------------------------------------------------------------------------------
Al   c F    s Buckingham    Buckingham A     3760.0008    eV        0.000 10.000
                            Buckingham rho  0.22200000    Ang       
                            Buckingham C     0.0000000    eV*Ang^6  
--------------------------------------------------------------------------------
F    s F    s Buck 4 range  Buck4 A          1127.7000    eV        0.000 12.000
                            Buck4 rho       0.27530000    Ang       
                            Buck4 C          15.830000    eV*Ang^6  
                            Buck4 minimum    2.7900000    Ang       
--------------------------------------------------------------------------------
F    c F    s Spring (c-s)  Spring k 2       20.770000    eV*Ang^-2 0.000  0.800
                            Spring k 4       0.0000000    eV*Ang^-4 
--------------------------------------------------------------------------------

********************************************************************************
*  Output for configuration   1                                                *
********************************************************************************


  Components of energy : 

--------------------------------------------------------------------------------
  Interatomic potentials     =          11.68682917 eV    
  Monopole - monopole (real) =        -182.11919761 eV    
--------------------------------------------------------------------------------
  Total lattice energy       =        -170.43236844 eV    
--------------------------------------------------------------------------------
  Total lattice energy       =          -16444.1183 kJ/mol
--------------------------------------------------------------------------------


  Number of variables =       27

  Maximum number of calculations  =          2000
  Maximum Hessian update interval =            10
  Maximum step size               =   1.000000000
  Maximum parameter tolerance     =   0.000001000
  Maximum function  tolerance     =   0.000010000
  Maximum gradient  tolerance     =   0.000000010
  Maximum gradient  component     =   0.010000000

  Symmetry not applied to optimisation

  Newton-Raphson optimiser to be used

  BFGS hessian update to be used

  Lower half triangular hessian to be used

  Minimiser to switch to RFO
  When gradient norm is less than     0.010000

  Shell only optimisation

  Start of cluster optimisation :

  Cycle:      0 Energy:      -170.432368  Gnorm:      1.358754  CPU:    0.004
  ** Hessian calculated **
  Cycle:      1 Energy:      -186.081221  Gnorm:      0.421154  CPU:    0.006
  ** Hessian calculated **
  Cycle:      2 Energy:      -187.238912  Gnorm:      0.009539  CPU:    0.008
  ** Hessian has required structure
  Cycle:      3 Energy:      -187.239553  Gnorm:      0.003462  CPU:    0.010
  ** Hessian has required structure
  Cycle:      4 Energy:      -187.239631  Gnorm:      0.002078  CPU:    0.011
  ** Hessian has required structure
  Cycle:      5 Energy:      -187.239641  Gnorm:      0.001867  CPU:    0.013
  ** Hessian has required structure
  Cycle:      6 Energy:      -187.239643  Gnorm:      0.001749  CPU:    0.014
  ** Hessian has required structure
  Cycle:      7 Energy:      -187.239643  Gnorm:      0.001740  CPU:    0.016
  ** Hessian has required structure
  Cycle:      8 Energy:      -187.239643  Gnorm:      0.001740  CPU:    0.017
  ** Hessian has required structure
  Cycle:      9 Energy:      -187.239643  Gnorm:      0.001726  CPU:    0.019
  ** Hessian has required structure
  Cycle:     10 Energy:      -187.239644  Gnorm:      0.001687  CPU:    0.020
  ** Hessian has required structure
  Cycle:     11 Energy:      -187.239648  Gnorm:      0.001403  CPU:    0.022
  ** Hessian has required structure
  Cycle:     12 Energy:      -187.239661  Gnorm:      0.000000  CPU:    0.024
  ** Hessian has required structure
  Cycle:     13 Energy:      -187.239661  Gnorm:      0.000000  CPU:    0.025
  ** Hessian has required structure
  Cycle:     14 Energy:      -187.239661  Gnorm:      0.000000  CPU:    0.027
  ** Hessian has required structure
  Cycle:     15 Energy:      -187.239661  Gnorm:      0.000000  CPU:    0.028
  ** Hessian has required structure
  Cycle:     16 Energy:      -187.239661  Gnorm:      0.000000  CPU:    0.030
  ** Hessian calculated **

  XYZ File written as 002/1/sp_mod_40/sp_mod_40_eig.xyz



  **** Optimisation achieved ****


  Final energy =    -187.23966149 eV
  Final Gnorm  =       0.00000038

  Components of energy : 

--------------------------------------------------------------------------------
  Interatomic potentials     =          37.81560536 eV    
  Monopole - monopole (real) =        -225.05526685 eV    
--------------------------------------------------------------------------------
  Total lattice energy       =        -187.23966149 eV    
--------------------------------------------------------------------------------
  Total lattice energy       =          -18065.7651 kJ/mol
--------------------------------------------------------------------------------

  Final cartesian coordinates of atoms :

--------------------------------------------------------------------------------
   No.  Atomic        x           y          z          Radius
        Label       (Angs)      (Angs)     (Angs)       (Angs) 
--------------------------------------------------------------------------------
     1  Al    c     0.364892   -0.599119    1.742637    0.000000
     2  Al    c     2.341633   -1.784601   -0.528897    0.000000
     3  Al    c    -0.903973   -1.834797   -0.985420    0.000000
     4  F     c     3.419098   -0.407773   -1.030401    0.000000
     5  F     c    -1.863589   -0.654198   -1.981374    0.000000
     6  F     c     2.807990   -3.542820   -0.610168    0.000000
     7  F     c    -1.191392   -3.631398   -0.935467    0.000000
     8  F     c     1.837970   -1.563516    1.224801    0.000000
     9  F     c     0.819416   -1.508652   -1.491079    0.000000
    10  F     c     0.050987   -1.173106    3.434830    0.000000
    11  F     c     0.576922    1.137348    1.223450    0.000000
    12  F     c    -1.017125   -1.304619    0.763789    0.000000
    13  F     s     3.249973   -0.621218   -0.951757    0.000000
    14  F     s    -1.713212   -0.836761   -1.824954    0.000000
    15  F     s     2.732825   -3.269625   -0.595721    0.000000
    16  F     s    -1.144336   -3.353432   -0.940000    0.000000
    17  F     s     1.701767   -1.461896    1.054017    0.000000
    18  F     s     0.790384   -1.590922   -1.281962    0.000000
    19  F     s     0.099945   -1.085954    3.171431    0.000000
    20  F     s     0.544425    0.865298    1.297887    0.000000
    21  F     s    -0.808232   -1.280631    0.656716    0.000000
--------------------------------------------------------------------------------


  Final Cartesian derivatives :

--------------------------------------------------------------------------------
   No.  Atomic          x             y             z           Radius
        Label       (eV/Angs)     (eV/Angs)    (eV/Angs)      (eV/Angs)
--------------------------------------------------------------------------------
      1 Al    c       0.000000      0.000000      0.000000      0.000000
      2 Al    c       0.000000      0.000000      0.000000      0.000000
      3 Al    c       0.000000      0.000000      0.000000      0.000000
      4 F     c       0.000000      0.000000      0.000000      0.000000
      5 F     c       0.000000      0.000000      0.000000      0.000000
      6 F     c       0.000000      0.000000      0.000000      0.000000
      7 F     c       0.000000      0.000000      0.000000      0.000000
      8 F     c       0.000000      0.000000      0.000000      0.000000
      9 F     c       0.000000      0.000000      0.000000      0.000000
     10 F     c       0.000000      0.000000      0.000000      0.000000
     11 F     c       0.000000      0.000000      0.000000      0.000000
     12 F     c       0.000000      0.000000      0.000000      0.000000
     13 F     s      -0.000004     -0.000005      0.000002      0.000000
     14 F     s       0.000000     -0.000001     -0.000000      0.000000
     15 F     s      -0.000001      0.000004      0.000001      0.000000
     16 F     s      -0.000001      0.000000      0.000001      0.000000
     17 F     s      -0.000001     -0.000001     -0.000001      0.000000
     18 F     s       0.000004      0.000001      0.000001      0.000000
     19 F     s       0.000000      0.000002      0.000001      0.000000
     20 F     s      -0.000001     -0.000003     -0.000000      0.000000
     21 F     s       0.000001     -0.000001      0.000000      0.000000
--------------------------------------------------------------------------------
  Maximum abs         0.000004      0.000005      0.000002      0.000000
--------------------------------------------------------------------------------


  Born effective charge tensors : 

-------------------------------------------------------------------------------
  Atom             x           y             z
-------------------------------------------------------------------------------
    1 Al    x       1.4090     -0.1097      0.1144
            y      -0.1129      0.7731      0.4669
            z       0.1117      0.4603      0.9310
-------------------------------------------------------------------------------
    2 Al    x       1.3041     -0.1708      0.0575
            y      -0.1720      0.4373      0.1500
            z       0.0545      0.1534      1.3803
-------------------------------------------------------------------------------
    3 Al    x       1.3454      0.1537     -0.1081
            y       0.1588      0.5017      0.3018
            z      -0.1020      0.3015      1.2706
-------------------------------------------------------------------------------
    4 F     x      -0.3845      0.2955     -0.0821
            y       0.2508     -0.1885     -0.1278
            z      -0.0775     -0.1406     -0.5101
-------------------------------------------------------------------------------
    5 F     x      -0.4129     -0.2301      0.1562
            y      -0.1916     -0.2768     -0.2128
            z       0.1480     -0.2378     -0.3848
-------------------------------------------------------------------------------
    6 F     x      -0.5551     -0.1484      0.0045
            y      -0.1071      0.0164      0.0014
            z       0.0023      0.0215     -0.5478
-------------------------------------------------------------------------------
    7 F     x      -0.5748      0.0908     -0.0268
            y       0.0546      0.0327     -0.0542
            z      -0.0193     -0.0216     -0.5552
-------------------------------------------------------------------------------
    8 F     x      -0.3521      0.0141     -0.0155
            y       0.0025     -0.2609     -0.0320
            z      -0.0109     -0.0401     -0.3277
-------------------------------------------------------------------------------
    9 F     x      -0.3388     -0.0001      0.0068
            y       0.0057     -0.2530     -0.0412
            z       0.0050     -0.0384     -0.3527
-------------------------------------------------------------------------------
   10 F     x      -0.5382      0.0424     -0.0944
            y       0.0330     -0.4756     -0.1824
            z      -0.0972     -0.2302     -0.0500
-------------------------------------------------------------------------------
   11 F     x      -0.5454      0.0674     -0.0142
            y       0.0757     -0.0415     -0.2343
            z      -0.0107     -0.1767     -0.5325
-------------------------------------------------------------------------------
   12 F     x      -0.3568     -0.0048      0.0018
            y       0.0025     -0.2650     -0.0355
            z      -0.0040     -0.0512     -0.3211
-------------------------------------------------------------------------------




  Moment of inertia tensor (10^-46 x kgm^2): 

-------------------------------------------------------------------------------
                x           y           z           Principal axis system
-------------------------------------------------------------------------------
       x        154.28        1.98       -1.76          153.884309
       y          1.98      202.10      -24.29          155.629300
       z         -1.76      -24.29      167.96          214.826490
-------------------------------------------------------------------------------
  Centre of mass (Ang) =     0.603311    -1.405658     0.069577
-------------------------------------------------------------------------------


  Vibrational Frequency Calculation : 

--------------------------------------------------------------------------------

  Frequencies (cm-1) and Eigenvectors : 

  Frequency      -0.0000    0.0000    0.0000   15.0850   19.6195   21.1789
  IR Intensity    0.0000    0.0000    0.0000    0.0000    0.0000    0.0000
     in X         0.0000    0.0000    0.0000    0.0000    0.0000    0.0000
     in Y         0.0000    0.0000    0.0000    0.0000    0.0000    0.0000
     in Z         0.0000    0.0000    0.0000    0.0000    0.0000    0.0000
  Raman Intsty    0.0000    0.0000    0.0000    0.0001    0.0000    0.0002

     1 x      -0.252954 -0.164134 -0.127135  0.262349 -0.052430 -0.022943
     1 y      -0.189328  0.100134  0.247420 -0.004318 -0.006775 -0.287567
     1 z      -0.085195  0.264806 -0.172362  0.042430  0.000413  0.138901
     2 x      -0.252954 -0.164134 -0.127135 -0.096948  0.031607  0.010008
     2 y      -0.189328  0.100134  0.247420 -0.044787  0.271201  0.136466
     2 z      -0.085195  0.264806 -0.172362 -0.255581 -0.077532 -0.060686
     3 x      -0.252954 -0.164134 -0.127135 -0.163814  0.021041  0.012823
     3 y      -0.189328  0.100134  0.247420  0.049332 -0.263982  0.149938
     3 z      -0.085195  0.264806 -0.172362  0.211811  0.073907 -0.077925
     4 x      -0.212274 -0.137738 -0.106690 -0.118518 -0.191125 -0.006334
     4 y      -0.158881  0.084031  0.207631 -0.050208  0.383145  0.191061
     4 z      -0.071494  0.222220 -0.144643 -0.329161 -0.106509  0.127240
     5 x      -0.212274 -0.137738 -0.106690 -0.226061 -0.177580 -0.005161
     5 y      -0.158881  0.084031  0.207631  0.054813 -0.402656  0.251620
     5 z      -0.071494  0.222220 -0.144643  0.279052  0.035818  0.098854
     6 x      -0.212274 -0.137738 -0.106690 -0.118042  0.279724  0.026438
     6 y      -0.158881  0.084031  0.207631 -0.044031  0.295358  0.129859
     6 z      -0.071494  0.222220 -0.144643 -0.283643 -0.072328 -0.278715
     7 x      -0.212274 -0.137738 -0.106690 -0.174769  0.265376  0.040110
     7 y      -0.158881  0.084031  0.207631  0.048799 -0.258643  0.114120
     7 z      -0.071494  0.222220 -0.144643  0.231708  0.166186 -0.323238
     8 x      -0.212274 -0.137738 -0.106690  0.125272  0.042771  0.009644
     8 y      -0.158881  0.084031  0.207631 -0.045429  0.155808 -0.120781
     8 z      -0.071494  0.222220 -0.144643 -0.154208 -0.051689 -0.021589
     9 x      -0.212274 -0.137738 -0.106690 -0.190602 -0.046249  0.006162
     9 y      -0.158881  0.084031  0.207631 -0.006252 -0.009779  0.229918
     9 z      -0.071494  0.222220 -0.144643 -0.032281 -0.018480 -0.014105
    10 x      -0.212274 -0.137738 -0.106690  0.400801  0.067958 -0.007165
    10 y      -0.158881  0.084031  0.207631 -0.025050 -0.055866 -0.503460
    10 z      -0.071494  0.222220 -0.144643  0.061880  0.004190  0.030232
    11 x      -0.212274 -0.137738 -0.106690  0.219437 -0.240739 -0.062491
    11 y      -0.158881  0.084031  0.207631 -0.000662  0.022427 -0.160719
    11 z      -0.071494  0.222220 -0.144643  0.045823  0.014972  0.369659
    12 x      -0.212274 -0.137738 -0.106690  0.080592 -0.000397 -0.001070
    12 y      -0.158881  0.084031  0.207631  0.067750 -0.130322 -0.130232
    12 z      -0.071494  0.222220 -0.144643  0.182426  0.031668  0.011316


  Frequency      33.3326   39.7876   48.1830  124.3416  146.5456  150.5310
  IR Intensity    0.0012    0.0006    0.0022    0.0003    0.0086    0.0082
     in X         0.0000    0.0004    0.0001    0.0003    0.0004    0.0074
     in Y         0.0002    0.0002    0.0016    0.0000    0.0006    0.0005
     in Z         0.0010    0.0000    0.0006    0.0000    0.0075    0.0003
  Raman Intsty    0.0083    0.0009    0.0491    0.0054    0.0333    0.0003

     1 x       0.010166 -0.015377 -0.036620 -0.047507  0.021090 -0.072417
     1 y       0.028025  0.021162  0.057048  0.003683 -0.150575 -0.102426
     1 z       0.040222  0.025566  0.027127 -0.015477  0.006770 -0.008219
     2 x      -0.009274  0.056025 -0.018197  0.019592  0.066787 -0.033177
     2 y      -0.042706 -0.003724 -0.018272 -0.010185  0.162966 -0.052864
     2 z      -0.031351 -0.004752 -0.043065 -0.010926  0.057402  0.042977
     3 x      -0.000712 -0.024582  0.058171  0.001154 -0.056834 -0.039552
     3 y       0.024055 -0.022978 -0.008304  0.010020  0.002504  0.187250
     3 z      -0.041769 -0.022227 -0.022558  0.023231  0.073461 -0.009277
     4 x      -0.092325 -0.105513  0.275102  0.161965  0.046543 -0.189610
     4 y       0.036156  0.004010 -0.312833  0.006917  0.014175 -0.027140
     4 z      -0.013840 -0.314481 -0.224705  0.344269 -0.327097 -0.252626
     5 x       0.062373  0.216715 -0.120086  0.285193  0.239547 -0.018070
     5 y      -0.157461  0.231742 -0.143670 -0.039103 -0.070461  0.057036
     5 z      -0.306512  0.047388 -0.017025 -0.310587 -0.300103 -0.152863
     6 x       0.118405  0.212681 -0.411445 -0.091224 -0.094203  0.200877
     6 y      -0.003196  0.025102 -0.131292 -0.023982  0.106833 -0.002585
     6 z       0.010017  0.326622  0.162731 -0.306374 -0.044157  0.439237
     7 x      -0.060726 -0.400935  0.301353 -0.207772 -0.240259  0.263544
     7 y       0.039850  0.040394 -0.047095  0.049605  0.038576  0.115122
     7 z       0.359244 -0.135392  0.013716  0.277866  0.218284 -0.021299
     8 x      -0.086720  0.134694  0.116952 -0.058958  0.257520 -0.173564
     8 y      -0.052748  0.305364  0.351123  0.014219  0.103497 -0.236303
     8 z      -0.057475 -0.036394 -0.060153 -0.044428  0.140227  0.003973
     9 x       0.014668  0.023305  0.010992 -0.000018 -0.057557 -0.013405
     9 y      -0.173869 -0.397728  0.274572 -0.003795  0.281188  0.184581
     9 z      -0.096975 -0.042898 -0.018580  0.022846  0.326886  0.091598
    10 x      -0.156125  0.096360  0.054146  0.472923 -0.276324  0.421984
    10 y      -0.293238 -0.152436 -0.197882 -0.045014 -0.157092 -0.158120
    10 z      -0.102804 -0.014863 -0.043480  0.065640 -0.055950  0.060250
    11 x       0.245448 -0.284347 -0.259564 -0.441597  0.153961 -0.065802
    11 y       0.112994  0.089901  0.146377  0.033432 -0.214648 -0.146052
    11 z       0.440276  0.158932  0.266207 -0.074232 -0.229812 -0.205062
    12 x      -0.045212  0.087895  0.028552 -0.088623 -0.066218 -0.252993
    12 y       0.480340 -0.139747  0.024390  0.003529 -0.119818  0.175376
    12 z      -0.192729  0.012770 -0.032837  0.028778  0.107713  0.006428


  Frequency     159.8896  163.5605  177.9750  190.0251  199.3011  218.6340
  IR Intensity    0.0012    0.0051    0.0058    0.0072    0.0109    0.0130
     in X         0.0011    0.0002    0.0017    0.0003    0.0107    0.0000
     in Y         0.0000    0.0045    0.0009    0.0022    0.0000    0.0002
     in Z         0.0001    0.0005    0.0032    0.0047    0.0002    0.0128
  Raman Intsty    0.0868    0.0336    0.0378    0.0266    0.0032    0.0004

     1 x      -0.131871  0.043957  0.043587  0.080107  0.170642  0.181973
     1 y      -0.004918  0.056666  0.017564  0.152214 -0.126650  0.171253
     1 z      -0.047288 -0.139752 -0.056356 -0.126461  0.102297 -0.162597
     2 x       0.087130  0.097739 -0.067610  0.009274 -0.023785 -0.077143
     2 y      -0.059243  0.034272  0.069445 -0.272917 -0.184178 -0.160124
     2 z      -0.099532  0.075730 -0.028451  0.162008  0.031985 -0.207560
     3 x       0.025101 -0.119197  0.095937 -0.065717  0.021342 -0.094378
     3 y       0.065247  0.025828 -0.003145 -0.027080  0.310918 -0.013502
     3 z       0.125985 -0.015435 -0.021326  0.083173 -0.159772  0.104046
     4 x       0.281978  0.298887 -0.183900 -0.420262 -0.184368 -0.078736
     4 y      -0.232147 -0.054107  0.246269  0.039566 -0.043026  0.003326
     4 z      -0.136173  0.289746  0.208178  0.006824  0.018140  0.205604
     5 x       0.076698 -0.469854  0.121375  0.137653 -0.359477  0.095695
     5 y       0.276763 -0.148417  0.217568  0.103487 -0.039511 -0.024407
     5 z       0.316931  0.134567  0.206527  0.037052 -0.162408 -0.094365
     6 x       0.353182  0.193759 -0.386390  0.021350  0.172602  0.229717
     6 y       0.027376  0.058525 -0.038846 -0.221472 -0.112727 -0.088835
     6 z      -0.199219  0.105823  0.232325 -0.320108 -0.046199  0.253118
     7 x       0.192080 -0.270983  0.142263  0.254840  0.039614 -0.095315
     7 y       0.034367  0.049772 -0.004514 -0.083114  0.290774 -0.012684
     7 z       0.337339 -0.106030  0.332263 -0.177535  0.245995  0.065005
     8 x      -0.157428  0.144177  0.059861  0.198534  0.261633 -0.096568
     8 y      -0.012768  0.132522  0.054961  0.119527 -0.018861 -0.152000
     8 z      -0.162058  0.053638 -0.007423  0.189568  0.128300 -0.197547
     9 x       0.023562 -0.020074  0.046762 -0.025738  0.096119 -0.132483
     9 y      -0.051639 -0.032985 -0.107635 -0.036469  0.018459  0.410520
     9 z      -0.001666  0.182390 -0.283102  0.364901 -0.131164  0.028402
    10 x      -0.310409  0.102706 -0.033838 -0.013818 -0.192299 -0.088182
    10 y      -0.073818 -0.341542 -0.352837 -0.119332  0.094349 -0.053785
    10 z      -0.101018 -0.244623 -0.188374 -0.217286  0.100291 -0.275211
    11 x      -0.216132  0.049189  0.049543 -0.125718 -0.339198 -0.001994
    11 y      -0.014787  0.016854 -0.066613  0.183154 -0.100994  0.261962
    11 z      -0.120356 -0.246029 -0.338975 -0.040028 -0.058023  0.134030
    12 x      -0.220125 -0.054618  0.098630 -0.055040  0.304941  0.155410
    12 y       0.045358  0.180235 -0.048290  0.190758 -0.088570 -0.341269
    12 z       0.091047 -0.074799 -0.034945  0.015142 -0.064557  0.198070


  Frequency     224.7722  235.3119  245.0213  259.4351  266.3165  320.3789
  IR Intensity    0.0204    0.0563    0.1358    0.0703    0.0166    0.0000
     in X         0.0142    0.0545    0.0045    0.0671    0.0027    0.0000
     in Y         0.0016    0.0013    0.0482    0.0001    0.0023    0.0000
     in Z         0.0046    0.0006    0.0832    0.0032    0.0116    0.0000
  Raman Intsty    0.0032    0.0001    0.0208    0.0799    0.1693    0.0083

     1 x      -0.162361 -0.313498 -0.019192 -0.044106  0.111843  0.036688
     1 y       0.067853  0.078647 -0.337115 -0.085575 -0.010836 -0.054185
     1 z      -0.146483 -0.057629 -0.215237 -0.137767 -0.223884 -0.218263
     2 x       0.160265 -0.116773  0.020159  0.400600  0.051600 -0.144986
     2 y      -0.006913 -0.075672 -0.073725 -0.080652  0.223285  0.038517
     2 z       0.250639  0.177435 -0.168186 -0.093275  0.050177  0.082510
     3 x       0.255694 -0.070764 -0.150245  0.190710 -0.257955  0.118889
     3 y      -0.149572  0.110114 -0.149495  0.200463  0.075196  0.024515
     3 z      -0.251500 -0.192459 -0.192272  0.095683 -0.106280  0.126951
     4 x      -0.110750 -0.073631 -0.015379 -0.055234  0.219922 -0.015664
     4 y       0.030140 -0.144105  0.093002  0.315514  0.040971 -0.112583
     4 z      -0.231233  0.065789  0.204743 -0.013776 -0.096616 -0.007451
     5 x      -0.091625 -0.113100  0.017649 -0.154274 -0.110282  0.056329
     5 y       0.030653  0.105815  0.249299 -0.175237  0.183495 -0.118365
     5 z       0.288191 -0.145884  0.111465 -0.008066 -0.134498  0.052729
     6 x      -0.037955  0.153029  0.066547 -0.202734 -0.189234  0.040598
     6 y      -0.043595  0.017012 -0.075890 -0.254877  0.162768  0.105939
     6 z      -0.084276 -0.142800  0.170513  0.043926  0.054891 -0.010339
     7 x      -0.298866  0.157964  0.005514 -0.038068  0.226574 -0.069524
     7 y      -0.039629  0.074172 -0.164652  0.238807  0.000375  0.057638
     7 z       0.224728  0.175482  0.179950 -0.012249  0.120566 -0.051666
     8 x      -0.174408 -0.060708  0.317477 -0.057177  0.040108  0.335855
     8 y      -0.223142  0.379491  0.176867  0.056027 -0.391342 -0.135475
     8 z       0.163978  0.058985 -0.094020 -0.262868  0.175000  0.371967
     9 x       0.235987  0.003206 -0.104855  0.215872 -0.107903  0.067468
     9 y       0.301100 -0.080436  0.167172 -0.159764 -0.360788  0.055646
     9 z       0.084040 -0.034727  0.120261  0.153852  0.247689 -0.492666
    10 x       0.131526  0.205889  0.062635 -0.051013  0.045897  0.038335
    10 y       0.010123 -0.057540  0.318081  0.098030  0.078861  0.083160
    10 z      -0.106248 -0.005568  0.015310 -0.080337 -0.214494 -0.206670
    11 x      -0.048490  0.421799  0.014336  0.026413 -0.086809 -0.030398
    11 y       0.118128  0.025231 -0.211916 -0.020909  0.132614  0.059685
    11 z       0.096549  0.069893  0.219272  0.119218  0.186243  0.138298
    12 x       0.092384 -0.097397 -0.186036 -0.335854  0.074351 -0.435619
    12 y      -0.078160 -0.454401  0.115753 -0.138387 -0.189721 -0.006189
    12 z      -0.260149  0.045406 -0.241474  0.221598 -0.005138  0.216287


  Frequency     458.8108  501.3914  505.4990  605.8073  610.4553  640.6722
  IR Intensity    0.0004    0.0221    0.0171    0.0713    0.0701    0.0003
     in X         0.0002    0.0010    0.0157    0.0130    0.0584    0.0000
     in Y         0.0000    0.0024    0.0006    0.0006    0.0002    0.0000
     in Z         0.0001    0.0188    0.0008    0.0576    0.0115    0.0002
  Raman Intsty    4.4245    0.0854    0.2066    0.0080    0.1731    0.0000

     1 x       0.000264  0.004319 -0.425458  0.156474  0.515757 -0.300976
     1 y      -0.185891 -0.131211  0.034792  0.059972 -0.054579  0.025845
     1 z      -0.208223 -0.134564 -0.064607  0.085726  0.069100 -0.041627
     2 x      -0.267344  0.220222  0.059484 -0.190434  0.063790  0.077565
     2 y       0.061185 -0.001015 -0.046495 -0.012386  0.035116  0.042944
     2 z       0.079415  0.321574 -0.270934 -0.351716  0.341358  0.307836
     3 x       0.225708 -0.311022 -0.030349  0.319441  0.002440  0.226211
     3 y       0.102929  0.014868  0.080441 -0.050016 -0.051483 -0.068130
     3 z       0.161280  0.245456  0.250219 -0.346161 -0.137090 -0.301823
     4 x      -0.166416  0.073091  0.173928  0.097874  0.086224  0.016809
     4 y      -0.255638  0.119371  0.217183  0.097872  0.098894  0.016169
     4 z       0.084503 -0.080272 -0.057082 -0.024485 -0.059022 -0.001932
     5 x       0.160091 -0.047455  0.149968 -0.052693  0.109731  0.005180
     5 y      -0.237365  0.092509 -0.175989  0.040348 -0.115015 -0.005013
     5 z       0.173885 -0.111214  0.125125 -0.016234  0.119422  0.002937
     6 x      -0.053624  0.024635  0.078254  0.047390  0.044991  0.025784
     6 y       0.303532 -0.146536 -0.276841 -0.112019 -0.148148 -0.077934
     6 z       0.005323 -0.044830  0.012027  0.007420 -0.028851  0.000289
     7 x       0.028551  0.000406  0.057306 -0.027761  0.043049  0.011228
     7 y       0.305963 -0.147810  0.265107 -0.050530  0.215106  0.050194
     7 z      -0.026956 -0.029069 -0.025911  0.018368  0.010627 -0.004217
     8 x      -0.119365 -0.293954  0.065841 -0.293234 -0.205422  0.255469
     8 y       0.102413  0.189948 -0.046862  0.168137  0.130572 -0.155038
     8 z      -0.174480  0.071814  0.345333  0.409788 -0.017678 -0.296739
     9 x      -0.036428  0.041705 -0.331107 -0.109425 -0.457278 -0.480293
     9 y      -0.092949  0.103519 -0.007661 -0.057261  0.010130 -0.011738
     9 z       0.214762 -0.294158 -0.044105  0.145109 -0.108791 -0.056184
    10 x       0.058050  0.053101  0.044471  0.028123 -0.031299 -0.002491
    10 y       0.125938  0.104354 -0.007805  0.047957 -0.007380  0.003321
    10 z      -0.294380 -0.281760  0.018307 -0.193351  0.037167 -0.014728
    11 x      -0.032070 -0.036230  0.044400 -0.032267 -0.017550 -0.009057
    11 y      -0.248655 -0.316714  0.002575 -0.235352  0.052848 -0.006631
    11 z       0.101921  0.087308  0.005963  0.054148 -0.015264 -0.000430
    12 x       0.210512  0.287754  0.189214  0.001802 -0.265963  0.174035
    12 y       0.022710  0.141205 -0.051618  0.103744 -0.152465  0.185885
    12 z      -0.123272  0.166838 -0.277985  0.328699 -0.263364  0.413443


  Frequency     688.9330  695.8016  716.2387  807.7763  811.5418  816.0703
  IR Intensity    0.0718    0.0650    0.0014    0.0001    0.0032    0.0018
     in X         0.0000    0.0649    0.0004    0.0000    0.0000    0.0000
     in Y         0.0246    0.0000    0.0000    0.0001    0.0027    0.0010
     in Z         0.0472    0.0001    0.0010    0.0000    0.0005    0.0008
  Raman Intsty    0.0309    0.0674    0.0105    0.0010    0.0006    0.0422

     1 x      -0.033705 -0.021250  0.025279  0.011631 -0.003645 -0.126549
     1 y       0.391643  0.067955 -0.341210  0.112173 -0.022431 -0.466750
     1 z       0.387736  0.065594 -0.234121 -0.104138  0.035138  0.549311
     2 x      -0.139194 -0.451429 -0.447349 -0.105253  0.123399  0.035396
     2 y       0.057666  0.097161  0.120557 -0.593143  0.372036 -0.166832
     2 z       0.103033  0.121466  0.154030  0.102996 -0.065903 -0.014011
     3 x       0.191654 -0.360060  0.329182 -0.056541 -0.164844 -0.045057
     3 y       0.121924 -0.151677  0.197097  0.367960  0.562648  0.019792
     3 z       0.193901 -0.224342  0.230570 -0.129520 -0.233374 -0.056232
     4 x       0.059734  0.195373  0.165402  0.224292 -0.153745  0.039926
     4 y       0.070348  0.229711  0.183535  0.301064 -0.203493  0.060210
     4 z      -0.028296 -0.088163 -0.076471 -0.105221  0.071634 -0.021367
     5 x      -0.101816  0.163915 -0.117381  0.126075  0.213351  0.024856
     5 y       0.115368 -0.183368  0.120741 -0.165016 -0.274716 -0.027995
     5 z      -0.105155  0.166200 -0.118413  0.133812  0.223189  0.022564
     6 x       0.039194  0.085509  0.089122 -0.090358  0.052743 -0.030022
     6 y      -0.133704 -0.279632 -0.265228  0.375602 -0.227213  0.113043
     6 z      -0.009772 -0.017677 -0.017756  0.014513 -0.005499  0.004920
     7 x      -0.037670  0.051219 -0.059520 -0.035421 -0.051312  0.001012
     7 y      -0.206482  0.267106 -0.273641 -0.249930 -0.375929 -0.009024
     7 z      -0.000466  0.000199 -0.002884  0.009123  0.019299  0.002012
     8 x       0.197850  0.095916 -0.039689  0.018558 -0.008885 -0.003117
     8 y      -0.126776 -0.054746  0.043189  0.000829 -0.005217  0.016807
     8 z      -0.177599 -0.149465 -0.063797 -0.020249  0.017983  0.005123
     9 x      -0.054703  0.390550  0.007273 -0.038232 -0.008675 -0.007114
     9 y      -0.015598  0.005496 -0.039902  0.003260 -0.018500  0.008525
     9 z       0.026220  0.059887  0.074543 -0.004593  0.001924 -0.009738
    10 x       0.062347  0.012330 -0.023763 -0.016464  0.005613  0.083458
    10 y       0.099687  0.016262 -0.029643 -0.033252  0.008978  0.160842
    10 z      -0.342006 -0.057730  0.132316  0.092066 -0.025955 -0.445511
    11 x      -0.040024 -0.006168  0.029818 -0.012272  0.001634  0.050531
    11 y      -0.350278 -0.055533  0.281130 -0.089897  0.016392  0.394366
    11 z       0.089224  0.013685 -0.062927  0.028125 -0.005472 -0.134035
    12 x      -0.147261  0.003678  0.059426  0.002763  0.003007  0.002783
    12 y      -0.133267  0.038688  0.007888 -0.007993 -0.007380  0.014641
    12 z      -0.268028  0.117491 -0.043927  0.008125  0.017653  0.005158




--------------------------------------------------------------------------------
  Vibrational properties (for cluster):  Temperature  =       0.000 K
--------------------------------------------------------------------------------
  Zero point energy            =        0.685782 eV
--------------------------------------------------------------------------------

  Phonon density of states : 

--------------------------------------------------------------------------------
 Frequency (cm-1) Density of States                                             
--------------------------------------------------------------------------------
    0.00000 |****************************************                      0.057
   12.75110 |************************************************************  0.086
   25.50220 |********************                                          0.029
   38.25330 |****************************************                      0.057
   51.00440 |                                                              0.000
   63.75550 |                                                              0.000
   76.50660 |                                                              0.000
   89.25770 |                                                              0.000
  102.00880 |                                                              0.000
  114.75990 |********************                                          0.029
  127.51100 |                                                              0.000
  140.26210 |****************************************                      0.057
  153.01320 |****************************************                      0.057
  165.76430 |********************                                          0.029
  178.51540 |********************                                          0.029
  191.26650 |********************                                          0.029
  204.01760 |                                                              0.000
  216.76870 |****************************************                      0.057
  229.51980 |********************                                          0.029
  242.27090 |********************                                          0.029
  255.02200 |****************************************                      0.057
  267.77310 |                                                              0.000
  280.52420 |                                                              0.000
  293.27530 |                                                              0.000
  306.02640 |                                                              0.000
  318.77750 |********************                                          0.029
  331.52860 |                                                              0.000
  344.27970 |                                                              0.000
  357.03080 |                                                              0.000
  369.78190 |                                                              0.000
  382.53300 |                                                              0.000
  395.28410 |                                                              0.000
  408.03520 |                                                              0.000
  420.78630 |                                                              0.000
  433.53740 |                                                              0.000
  446.28850 |********************                                          0.029
  459.03960 |                                                              0.000
  471.79070 |                                                              0.000
  484.54180 |                                                              0.000
  497.29290 |****************************************                      0.057
  510.04400 |                                                              0.000
  522.79510 |                                                              0.000
  535.54620 |                                                              0.000
  548.29730 |                                                              0.000
  561.04840 |                                                              0.000
  573.79950 |                                                              0.000
  586.55060 |                                                              0.000
  599.30169 |****************************************                      0.057
  612.05279 |                                                              0.000
  624.80389 |                                                              0.000
  637.55499 |********************                                          0.029
  650.30609 |                                                              0.000
  663.05719 |                                                              0.000
  675.80829 |                                                              0.000
  688.55939 |****************************************                      0.057
  701.31049 |                                                              0.000
  714.06159 |********************                                          0.029
  726.81269 |                                                              0.000
  739.56379 |                                                              0.000
  752.31489 |                                                              0.000
  765.06599 |                                                              0.000
  777.81709 |                                                              0.000
  790.56819 |                                                              0.000
  803.31929 |************************************************************  0.086
--------------------------------------------------------------------------------



  Time to end of optimisation =       0.0400 seconds


  Peak dynamic memory used =       0.65 MB 


  Timing analysis for GULP :

--------------------------------------------------------------------------------
  Task / Subroutine                                          Time (Seconds)
--------------------------------------------------------------------------------
  Calculation of real space energy and derivatives                0.0027
  Calculation of phonons                                          0.0015
  Calculation and manipulation of Hessian matrix                  0.0018
--------------------------------------------------------------------------------
  Total CPU time                                                  0.0400
--------------------------------------------------------------------------------


  Job Finished at 14:38.51 25th May        2022                               

