------------------------------------------------------------
          Invoking FHI-aims ...

          When using FHI-aims, please cite the following reference:

            Volker Blum, Ralf Gehrke, Felix Hanke, Paula Havu,
            Ville Havu, Xinguo Ren, Karsten Reuter, and Matthias Scheffler,
            'Ab Initio Molecular Simulations with Numeric Atom-Centered Orbitals',
            Computer Physics Communications 180, 2175-2196 (2009)

          In addition, many other developments in FHI-aims are likely important for
          your particular application. A partial list of references is given at the end of
          this file. Thank you for giving credit to the authors of these developments.

          For any questions about FHI-aims, please visit our slack channel at

            https://fhi-aims.slack.com

          and our main development and support site at

            https://aims-git.rz-berlin.mpg.de .

          The latter site, in particular, has a wiki to collect information, as well
          as an issue tracker to log discussions, suggest improvements, and report issues
          or bugs. https://aims-git.rz-berlin.mpg.de is also the main development site
          of the project and all new and updated code versions can be obtained there.
          Please send an email to aims-coordinators@fhi-berlin.mpg.de and we will add
          you to these sites. They are for you and everyone is welcome there.

------------------------------------------------------------



  Date     :  20220517, Time     :  114320.167
  Time zero on CPU 1             :   0.407220000000000E-01  s.
  Internal wall clock time zero  :           422019800.167  s.

  FHI-aims created a unique identifier for this run for later identification
  aims_uuid : F4C02EDA-912D-49DC-A4EB-027558CE496B

  Build configuration of the current instance of FHI-aims
  -------------------------------------------------------
  FHI-aims version      : 210914
  Commit number         : GITDIR-NOTFOUND
  CMake host system     : Linux-3.10.0-693.17.1.el7.x86_64
  CMake version         : 3.21.1
  Fortran compiler      : /shared/ucl/apps/intel/2018.Update3/impi/2018.3.222/intel64/bin/mpiifort (Intel) version 18.0.3.20180410
  Fortran compiler flags: -O3 -ip -fp-model precise
  C compiler            : /shared/ucl/apps/intel/2018.Update3/compilers_and_libraries_2018.3.222/linux/bin/intel64/icc (Intel) version 18.0.3.20180410
  C compiler flags      : -O3 -ip -fp-model precise -std=gnu99
  ELPA2 kernel          : AVX2
  Using MPI
  Using ScaLAPACK
  Using LibXC
  Using i-PI
  Using RLSY
  Linking against: /shared/ucl/apps/intel/2019.Update5/compilers_and_libraries_2019.5.281/linux/mkl/lib/intel64/libmkl_intel_lp64.so
                   /shared/ucl/apps/intel/2019.Update5/compilers_and_libraries_2019.5.281/linux/mkl/lib/intel64/libmkl_sequential.so
                   /shared/ucl/apps/intel/2019.Update5/compilers_and_libraries_2019.5.281/linux/mkl/lib/intel64/libmkl_core.so
                   /shared/ucl/apps/intel/2019.Update5/compilers_and_libraries_2019.5.281/linux/mkl/lib/intel64/libmkl_blacs_intelmpi_lp64.so
                   /shared/ucl/apps/intel/2019.Update5/compilers_and_libraries_2019.5.281/linux/mkl/lib/intel64/libmkl_scalapack_lp64.so

  Using       24 parallel tasks.
  Task        0 on host node-k98a-011 reporting.
  Task        1 on host node-k98a-011 reporting.
  Task        2 on host node-k98a-011 reporting.
  Task        3 on host node-k98a-011 reporting.
  Task        4 on host node-k98a-011 reporting.
  Task        5 on host node-k98a-011 reporting.
  Task        6 on host node-k98a-011 reporting.
  Task        7 on host node-k98a-011 reporting.
  Task        8 on host node-k98a-011 reporting.
  Task        9 on host node-k98a-011 reporting.
  Task       10 on host node-k98a-011 reporting.
  Task       11 on host node-k98a-011 reporting.
  Task       12 on host node-k98a-011 reporting.
  Task       13 on host node-k98a-011 reporting.
  Task       14 on host node-k98a-011 reporting.
  Task       15 on host node-k98a-011 reporting.
  Task       16 on host node-k98a-011 reporting.
  Task       17 on host node-k98a-011 reporting.
  Task       18 on host node-k98a-011 reporting.
  Task       19 on host node-k98a-011 reporting.
  Task       20 on host node-k98a-011 reporting.
  Task       21 on host node-k98a-011 reporting.
  Task       22 on host node-k98a-011 reporting.
  Task       23 on host node-k98a-011 reporting.

  Performing system and environment tests:
  | Environment variable OMP_NUM_THREADS correctly set to 1.
  | Checking for ScaLAPACK...
  | Testing pdtran()...
  | All pdtran() tests passed.

  Obtaining array dimensions for all initial allocations:
  
  -----------------------------------------------------------------------
  Parsing control.in (first pass over file, find array dimensions only).
  The contents of control.in will be repeated verbatim below
  unless switched off by setting 'verbatim_writeout .false.' .
  in the first line of control.in .
  -----------------------------------------------------------------------
  
  #########################################################################################  Physical model
  #########################################################################################
  xc                 pbesol
  spin               none
  relativistic       atomic_zora scalar
  charge             0.0
  #  SCF convergence
  occupation_type    gaussian 0.01
  mixer              pulay
  n_max_pulay        10
  charge_mix_param   0.5
  sc_accuracy_rho    1E-5
  sc_accuracy_eev    1E-3
  sc_accuracy_etot   1E-6
  sc_accuracy_forces 1E-4
  sc_iter_limit      1500
  #  Relaxation
  #relax_geometry   bfgs 1.e-3
  
  ################################################################################
  #
  #  FHI-aims code project
  #  VB, Fritz-Haber Institut, 2009
  #
  #  Suggested "light" defaults for Al atom (to be pasted into control.in file)
  #  Be sure to double-check any results obtained with these settings for post-processing,
  #  e.g., with the "tight" defaults and larger basis sets.
  #
  ################################################################################
    species        Al
  #     global species definitions
      nucleus             13
      mass                26.9815386
  #
      l_hartree           4
  #
      cut_pot             3.5          1.5  1.0
      basis_dep_cutoff    1e-4
  #
      radial_base         41 5.0
      radial_multiplier   1
      angular_grids       specified
        division   0.6594  110
        division   0.8170  194
        division   0.9059  302
  #      division   1.0363  434
  #      division   1.1443  590
  #      division   1.2621  770
  #      division   2.8177  974
  #      outer_grid   974
        outer_grid   302
  ################################################################################
  #
  #  Definition of "minimal" basis
  #
  ################################################################################
  #     valence basis states
      valence      3  s   2.
      valence      3  p   1.
  #     ion occupancy
      ion_occ      3  s   1.
      ion_occ      2  p   6.
  ################################################################################
  #
  #  Suggested additional basis functions. For production calculations,
  #  uncomment them one after another (the most important basis functions are
  #  listed first).
  #
  #  Constructed for dimers: 2.0 A, 2.5 A, 3.0 A, 3.75 A, 4.5 A
  #
  ################################################################################
  #  "First tier" - improvements: -199.47 meV to -10.63 meV
       ionic 3 d auto
       ionic 3 p auto
  #     hydro 4 f 4.7
       ionic 3 s auto
  #  "Second tier" - improvements: -5.35 meV to -1.57 meV
  #     hydro 5 g 7
  #     hydro 3 d 6
  #     hydro 2 s 11.6
  #     hydro 2 p 0.9
  #  "Third tier" - improvements: -0.63 meV to -0.20 meV
  #     hydro 5 f 7.6
  #     hydro 4 p 7.2
  #     hydro 4 s 3.7
  #     hydro 4 d 7.6
  #  "Fourth tier" - improvements: -0.17 meV to -0.08 meV
  #     hydro 4 d 13.6
  #     hydro 5 g 11.2
  #     hydro 4 d 0.9
  #     hydro 1 s 0.4
  #     hydro 4 p 0.1
  #     hydro 5 f 9.8
  #  Further basis functions that fell out of the optimization - noise level...
  #     hydro 4 p 5
  
  ################################################################################
  #
  #  FHI-aims code project
  #  VB, Fritz-Haber Institut, 2009
  #
  #  Suggested "light" defaults for F atom (to be pasted into control.in file)
  #  Be sure to double-check any results obtained with these settings for post-processing,
  #  e.g., with the "tight" defaults and larger basis sets.
  #
  ################################################################################
    species        F
  #     global species definitions
      nucleus             9
      mass                18.9984032
  #
      l_hartree           4
  #
      cut_pot             3.5  1.5  1.0
      basis_dep_cutoff    1e-4
  #
      radial_base         37 5.0
      radial_multiplier   1
      angular_grids specified
        division   0.4014  110
        division   0.5291  194
        division   0.6019  302
  #      division   0.6814  434
  #      division   0.7989  590
  #      division   0.8965  770
  #      division   1.3427  974
  #      outer_grid   974
        outer_grid   302
  ################################################################################
  #
  #  Definition of "minimal" basis
  #
  ################################################################################
  #     valence basis states
      valence      2  s   2.
      valence      2  p   5.
  #     ion occupancy
      ion_occ      2  s   1.
      ion_occ      2  p   4.
  ################################################################################
  #
  #  Suggested additional basis functions. For production calculations,
  #  uncomment them one after another (the most important basis functions are
  #  listed first).
  #
  #  Constructed for dimers: 1.2 A, 1.418 A, 1.75 A, 2.25 A, 3.25 A
  #
  ################################################################################
  #  "First tier" - improvements: -149.44 meV to -45.88 meV
       hydro 2 p 1.7
       hydro 3 d 7.4
       hydro 3 s 6.8
  #  "Second tier" - improvements: -12.96 meV to -1.56 meV
  #     hydro 4 f 11.2
  #     ionic 2 p auto
  #     hydro 1 s 0.75
  #     hydro 4 d 8.8
  #     hydro 5 g 16.8
  #  "Third tier" - improvements: -0.58 meV to -0.05 meV
  #     hydro 3 p 6.2
  #     hydro 3 s 3.2
  #     hydro 4 f 9.6
  #     hydro 3 s 19.6
  #     hydro 4 d 8.6
  #     hydro 5 g 14.4
  # Further basis functions: -0.05 meV and below
  #     hydro 3 p 4.2
  
  -----------------------------------------------------------------------
  Completed first pass over input file control.in .
  -----------------------------------------------------------------------
  
  
  -----------------------------------------------------------------------
  Parsing geometry.in (first pass over file, find array dimensions only).
  The contents of geometry.in will be repeated verbatim below
  unless switched off by setting 'verbatim_writeout .false.' .
  in the first line of geometry.in .
  -----------------------------------------------------------------------
  
  atom 0.474329995 -0.481839278 1.702658717 Al
  atom 2.302019163 -1.905951454 -0.587027290 Al
  atom -0.968113582 -1.829258340 -0.886378936 Al
  atom 3.458882911 -0.669429593 -1.287873003 F
  atom -1.888670651 -0.575013689 -1.823635221 F
  atom 2.629319187 -3.674055677 -0.471300792 F
  atom -1.361250573 -3.603598985 -0.871108669 F
  atom 1.946708996 -1.403916532 1.154258800 F
  atom 0.759090164 -1.600154882 -1.493882265 F
  atom 0.266699151 -0.973990041 3.452677481 F
  atom 0.553577779 1.202753566 1.072174072 F
  atom -0.930874869 -1.353110321 0.865959212 F
  
  -----------------------------------------------------------------------
  Completed first pass over input file geometry.in .
  -----------------------------------------------------------------------
  

  Basic array size parameters:
  | Number of species                 :        2
  | Number of atoms                   :       12
  | Max. basis fn. angular momentum   :        2
  | Max. atomic/ionic basis occupied n:        3
  | Max. number of basis fn. types    :        3
  | Max. radial fns per species/type  :        5
  | Max. logarithmic grid size        :     1340
  | Max. radial integration grid size :       41
  | Max. angular integration grid size:      302
  | Max. angular grid division number :        8
  | Radial grid for Hartree potential :     1340
  | Number of spin channels           :        1

------------------------------------------------------------
          Reading file control.in.
------------------------------------------------------------
  XC: Using PBEsol gradient-corrected functionals.
  Spin treatment: No spin polarisation.
  Scalar relativistic treatment of kinetic energy: on-site free-atom approximation to ZORA.
  Charge =   0.000000E+00: Neutral system requested explicitly.
  Occupation type: Gaussian broadening, width =   0.100000E-01 eV.
  Using pulay charge density mixing.
  Pulay mixing - number of memorized iterations:   10
  Charge density mixing - mixing parameter:     0.5000
  Convergence accuracy of self-consistent charge density:  0.1000E-04
  Convergence accuracy of sum of eigenvalues:  0.1000E-02
  Convergence accuracy of total energy:  0.1000E-05
  Convergence accuracy of forces:  0.1000E-03
  Maximum number of s.-c. iterations  :  1500
 
  Reading configuration options for species Al                  .
  | Found nuclear charge :  13.0000
  | Found atomic mass :    26.9815386000000      amu
  | Found l_max for Hartree potential  :   4
  | Found cutoff potl. onset [A], width [A], scale factor :    3.50000    1.50000    1.00000
  | Threshold for basis-dependent cutoff potential is   0.100000E-03
  | Found data for basic radial integration grid :    41 points, outermost radius =    5.000 A
  | Found multiplier for basic radial grid :   1
  | Found angular grid specification: user-specified.
  | Specified grid contains     4 separate shells.
  | Check grid settings after all constraints further below.
  | Found free-atom valence shell :  3 s   2.000
  | Found free-atom valence shell :  3 p   1.000
  | Found free-ion valence shell :  3 s   1.000
  | Found free-ion valence shell :  2 p   6.000
  | Found ionic basis function :  3 d , default cutoff radius.
  | Found ionic basis function :  3 p , default cutoff radius.
  | Found ionic basis function :  3 s , default cutoff radius.
  Species Al                  : Missing cutoff potential type.
  Defaulting to exp(1/x)/(1-x)^2 type cutoff potential.
  Species Al: No 'logarithmic' tag. Using default grid for free atom:
  | Default logarithmic grid data [bohr] : 0.1000E-03 0.1000E+03 0.1012E+01
  | Will include ionic basis functions of  2.0-fold positive Al                   ion.
  Species Al: On-site basis accuracy parameter (for Gram-Schmidt orthonormalisation) not specified.
  Using default value basis_acc =  0.1000000E-03.
  Species Al                  : Using default innermost maximum threshold i_radial=  2 for radial functions.
  Species Al                  : Default cutoff onset for free atom density etc. : 0.35000000E+01 AA.
  Species Al                  : Basic radial grid will be enhanced according to radial_multiplier =   1, to contain    41 grid points.
 
  Reading configuration options for species F                   .
  | Found nuclear charge :   9.0000
  | Found atomic mass :    18.9984032000000      amu
  | Found l_max for Hartree potential  :   4
  | Found cutoff potl. onset [A], width [A], scale factor :    3.50000    1.50000    1.00000
  | Threshold for basis-dependent cutoff potential is   0.100000E-03
  | Found data for basic radial integration grid :    37 points, outermost radius =    5.000 A
  | Found multiplier for basic radial grid :   1
  | Found angular grid specification: user-specified.
  | Specified grid contains     4 separate shells.
  | Check grid settings after all constraints further below.
  | Found free-atom valence shell :  2 s   2.000
  | Found free-atom valence shell :  2 p   5.000
  | Found free-ion valence shell :  2 s   1.000
  | Found free-ion valence shell :  2 p   4.000
  | Found hydrogenic basis function :  2 p   1.700
  | Found hydrogenic basis function :  3 d   7.400
  | Found hydrogenic basis function :  3 s   6.800
  Species F                   : Missing cutoff potential type.
  Defaulting to exp(1/x)/(1-x)^2 type cutoff potential.
  Species F : No 'logarithmic' tag. Using default grid for free atom:
  | Default logarithmic grid data [bohr] : 0.1000E-03 0.1000E+03 0.1012E+01
  Species F : On-site basis accuracy parameter (for Gram-Schmidt orthonormalisation) not specified.
  Using default value basis_acc =  0.1000000E-03.
  Species F                   : Using default innermost maximum threshold i_radial=  2 for radial functions.
  Species F                   : Default cutoff onset for free atom density etc. : 0.35000000E+01 AA.
  Species F                   : Basic radial grid will be enhanced according to radial_multiplier =   1, to contain    37 grid points.
 
  Finished reading input file 'control.in'.
 
------------------------------------------------------------


------------------------------------------------------------
          Reading geometry description geometry.in.
------------------------------------------------------------
  | The smallest distance between any two atoms is         1.80045665 AA.
  | The first atom of this pair is atom number                      1 .
  | The second atom of this pair is atom number                    11 .
  Input structure read successfully.
  The structure contains       12 atoms,  and a total of        120.000 electrons.

  Input geometry:
  | No unit cell requested.
  | Atomic structure:
  |       Atom                x [A]            y [A]            z [A]
  |    1: Species Al            0.47433000       -0.48183928        1.70265872
  |    2: Species Al            2.30201916       -1.90595145       -0.58702729
  |    3: Species Al           -0.96811358       -1.82925834       -0.88637894
  |    4: Species F             3.45888291       -0.66942959       -1.28787300
  |    5: Species F            -1.88867065       -0.57501369       -1.82363522
  |    6: Species F             2.62931919       -3.67405568       -0.47130079
  |    7: Species F            -1.36125057       -3.60359899       -0.87110867
  |    8: Species F             1.94670900       -1.40391653        1.15425880
  |    9: Species F             0.75909016       -1.60015488       -1.49388227
  |   10: Species F             0.26669915       -0.97399004        3.45267748
  |   11: Species F             0.55357778        1.20275357        1.07217407
  |   12: Species F            -0.93087487       -1.35311032        0.86595921

 
  Finished reading input file 'control.in'.
 

------------------------------------------------------------
          Reading geometry description geometry.in.
------------------------------------------------------------
 
  Consistency checks for stacksize environment parameter are next.
 
  | Maximum stacksize for task 0: unlimited
  | Maximum stacksize for task 1: unlimited
  | Maximum stacksize for task 2: unlimited
  | Maximum stacksize for task 3: unlimited
  | Maximum stacksize for task 4: unlimited
  | Maximum stacksize for task 5: unlimited
  | Maximum stacksize for task 6: unlimited
  | Maximum stacksize for task 7: unlimited
  | Maximum stacksize for task 8: unlimited
  | Maximum stacksize for task 9: unlimited
  | Maximum stacksize for task 10: unlimited
  | Maximum stacksize for task 11: unlimited
  | Maximum stacksize for task 12: unlimited
  | Maximum stacksize for task 13: unlimited
  | Maximum stacksize for task 14: unlimited
  | Maximum stacksize for task 15: unlimited
  | Maximum stacksize for task 16: unlimited
  | Maximum stacksize for task 17: unlimited
  | Maximum stacksize for task 18: unlimited
  | Maximum stacksize for task 19: unlimited
  | Maximum stacksize for task 20: unlimited
  | Maximum stacksize for task 21: unlimited
  | Maximum stacksize for task 22: unlimited
  | Maximum stacksize for task 23: unlimited
  | Current stacksize for task 0: unlimited
  | Current stacksize for task 1: unlimited
  | Current stacksize for task 2: unlimited
  | Current stacksize for task 3: unlimited
  | Current stacksize for task 4: unlimited
  | Current stacksize for task 5: unlimited
  | Current stacksize for task 6: unlimited
  | Current stacksize for task 7: unlimited
  | Current stacksize for task 8: unlimited
  | Current stacksize for task 9: unlimited
  | Current stacksize for task 10: unlimited
  | Current stacksize for task 11: unlimited
  | Current stacksize for task 12: unlimited
  | Current stacksize for task 13: unlimited
  | Current stacksize for task 14: unlimited
  | Current stacksize for task 15: unlimited
  | Current stacksize for task 16: unlimited
  | Current stacksize for task 17: unlimited
  | Current stacksize for task 18: unlimited
  | Current stacksize for task 19: unlimited
  | Current stacksize for task 20: unlimited
  | Current stacksize for task 21: unlimited
  | Current stacksize for task 22: unlimited
  | Current stacksize for task 23: unlimited
 
  Consistency checks for the contents of control.in are next.
 
  MPI_IN_PLACE appears to work with this MPI implementation.
  | Keeping use_mpi_in_place .true. (see manual).
  Target number of points in a grid batch is not set. Defaulting to  100
  Method for grid partitioning is not set. Defaulting to parallel hash+maxmin partitioning.
  Batch size limit is not set. Defaulting to    200
  By default, will store active basis functions for each batch.
  If in need of memory, prune_basis_once .false. can be used to disable this option.
  communication_type for Hartree potential was not specified.
  Defaulting to calc_hartree .
  Pulay mixer: Number of initial linear mixing iterations not set.
  Defaulting to    0 iterations.
  Work space size for distributed Hartree potential not set.
  Defaulting to   0.200000E+03 MB.
  Algorithm-dependent basis array size parameters:
  | n_max_pulay                         :       10
  Presetting      1001 iterations before the initial mixing cycle
  is restarted anyway using the sc_init_iter criterion / keyword.
  Presetting a factor      1.000 between actual scf density residual
  and density convergence criterion sc_accuracy_rho below which sc_init_iter
  takes no effect.
  Geometry relaxation not requested: no relaxation will be performed.
  Forces evaluation will include force correction term due to incomplete self-consistency (default).
  Handling of forces: Unphysical translation and rotation will be removed from forces.
  No accuracy limit for integral partition fn. given. Defaulting to  0.1000E-14.
  No threshold value for u(r) in integrations given. Defaulting to  0.1000E-05.
  No accuracy for occupation numbers given. Defaulting to  0.1000E-12.
  No threshold value for occupation numbers given. Defaulting to  0.0000E+00.
  No accuracy for fermi level given. Defaulting to  0.1000E-19.
  Maximum # of iterations to find E_F not set. Defaulting to  200.
  Preferred method for the eigenvalue solver ('KS_method') not specified in 'control.in'.
  Calling BLACS routine to test compilation state
  Since ScaLAPACK support is enabled, defaulting to ELPA (via ELSI).
  Will not use alltoall communication since running on < 1024 CPUs.
  Threshold for basis singularities not set.
  Default threshold for basis singularities:  0.1000E-04
  partition_type (choice of integration weights) for integrals was not specified.
  | Using a version of the partition function of Stratmann and coworkers ('stratmann_sparse').
  | At each grid point, the set of atoms used to build the partition table is smoothly restricted to
  | only those atoms whose free-atom density would be non-zero at that grid point.
  Partitioning for Hartree potential was not defined. Using partition_type for integrals.
  | Adjusted default value of keyword multip_moments_threshold to:       0.10000000E-11
  | This value may affect high angular momentum components of the Hartree potential in periodic systems.
  No q(lm)/r^(l+1) cutoff set for long-range Hartree potential.
  | Using default value of  0.100000E-09 .
  | Verify using the multipole_threshold keyword.
  Defaulting to new monopole extrapolation.
  Density update method: automatic selection selected.
  Charge integration errors on the 3D integration grid will be compensated
  by explicit normalization and distribution of residual charges.
  Use the "compensate_multipole_errors" flag to change this behaviour.
  Set 'collect_eigenvectors' to be '.true.' for use_density_matrix .false.
 
  Consistency checks for the contents of geometry.in are next.
 
  Number of empty states per atom not set in control.in - providing a guess from actual geometry.
  | Total number of empty states used during s.c.f. cycle:       36
  If you use a very high smearing, use empty_states (per atom!) in control.in to increase this value.

  Structure-dependent array size parameters: 
  | Maximum number of distinct radial functions  :       14
  | Maximum number of basis functions            :      180
  | Number of Kohn-Sham states (occupied + empty):       96
------------------------------------------------------------

------------------------------------------------------------
          Preparing all fixed parts of the calculation.
------------------------------------------------------------
  Determining machine precision:
    2.225073858507201E-308
  Setting up grids for atomic and cluster calculations.

  Creating wave function, potential, and density for free atoms.

  Species: Al

  List of occupied orbitals and eigenvalues:
    n    l              occ      energy [Ha]    energy [eV]
    1    0           2.0000       -55.621123     -1513.5278
    2    0           2.0000        -3.957030      -107.6763
    3    0           2.0000        -0.272233        -7.4078
    2    1           6.0000        -2.540949       -69.1427
    3    1           1.0000        -0.083300        -2.2667


  Species: F

  List of occupied orbitals and eigenvalues:
    n    l              occ      energy [Ha]    energy [eV]
    1    0           2.0000       -24.399611      -663.9472
    2    0           2.0000        -1.098702       -29.8972
    2    1           5.0000        -0.408210       -11.1080


  Adding cutoff potential to free-atom effective potential.
  Creating fixed part of basis set: Ionic, confined, hydrogenic.
 
  Al                   ion:

  List of free ionic orbitals and eigenvalues:
    n    l      energy [Ha]    energy [eV]
    1    0       -56.418846     -1535.2349
    2    0        -4.732717      -128.7838
    3    0        -0.872690       -23.7471
    2    1        -3.317230       -90.2664


  List of ionic basis orbitals and eigenvalues:
    n    l      energy [Ha]    energy [eV]    outer radius [A]
    3    2        -0.346815        -9.4373       4.594041
    3    1        -0.631870       -17.1940       4.538221
    3    0        -0.872657       -23.7462       4.538221

 
  F                    hydrogenic:
 
  List of hydrogenic basis orbitals: 
    n    l      effective z      eigenvalue [eV]  inner max. [A]     outer max. [A]     outer radius [A]   
    2    1         1.700000        -9.7616           1.243167           1.243167           4.598524
    3    2         7.400000       -82.7828           0.642437           0.642437           3.305741
    3    0         6.800000       -69.9026           0.057798           1.022307           3.781556
 
  Creating atomic-like basis functions for current effective potential.

  Species Al                  :

  List of atomic basis orbitals and eigenvalues:
    n    l      energy [Ha]    energy [eV]    outer radius [A]
    1    0       -55.621123     -1513.5278       0.850197
    2    0        -3.957030      -107.6763       3.144911
    3    0        -0.272233        -7.4078       4.594041
    2    1        -2.540949       -69.1427       3.731966
    3    1        -0.083300        -2.2667       4.594041


  Species F                   :

  List of atomic basis orbitals and eigenvalues:
    n    l      energy [Ha]    energy [eV]    outer radius [A]
    1    0       -24.399611      -663.9472       1.258458
    2    0        -1.098702       -29.8972       4.325857
    2    1        -0.408210       -11.1080       4.487453

  Assembling full basis from fixed parts.
  | Species Al :   atomic orbital   1 s accepted.
  | Species Al :   atomic orbital   2 s accepted.
  | Species Al :    ionic orbital   3 s accepted.
  | Species Al :   atomic orbital   3 s accepted.
  | Species Al :   atomic orbital   2 p accepted.
  | Species Al :    ionic orbital   3 p accepted.
  | Species Al :   atomic orbital   3 p accepted.
  | Species Al :    ionic orbital   3 d accepted.
  | Species F :   atomic orbital   1 s accepted.
  | Species F :    hydro orbital   3 s accepted.
  | Species F :   atomic orbital   2 s accepted.
  | Species F :   atomic orbital   2 p accepted.
  | Species F :    hydro orbital   2 p accepted.
  | Species F :    hydro orbital   3 d accepted.
 
  Basis size parameters after reduction:
  | Total number of radial functions:       14
  | Total number of basis functions :      180
 
  Per-task memory consumption for arrays in subroutine allocate_ext:
  |           4.807768MB.
  Testing on-site integration grid accuracy.
  |  Species  Function  <phi|h_atom|phi> (log., in eV)  <phi|h_atom|phi> (rad., in eV)
           1        1              -1513.5277717935              -1513.5271881332
           1        2               -107.6762691836               -107.6762662489
           1        3                 -6.9467474784                 -6.9471269649
           1        4                  5.5771951849                  5.4862107220 ***
           1        5                -69.1427313144                -69.1427312731
           1        6                 -1.5197375330                 -1.5230432022
           1        7                  6.8210948310                  6.5529872240 ***
           1        8                  4.3216540965                  4.2851170187 ***
           2        9               -663.9471986398               -663.9470363334
           2       10                 16.8514011578                 16.8512525338
           2       11                -28.4490593856                -28.4490661472
           2       12                -11.1080115307                -11.1080620173
           2       13                  7.1940182175                  7.1685154137
           2       14                 44.8544281765                 44.8543763625
 * Note: Onsite integrals marked "***" above are less accurate than
 * onsite_accuracy_threshold =    0.03000 eV. Usually, this is harmless.
 * When in doubt, tighten the "radial" and/or "radial_multiplier" flags to check.

  Preparing densities etc. for the partition functions (integrals / Hartree potential).

  Preparations completed.
  max(cpu_time)          :      0.184 s.
  Wall clock time (cpu1) :      0.183 s.
------------------------------------------------------------

------------------------------------------------------------
          Begin self-consistency loop: Initialization.

          Date     :  20220517, Time     :  114320.395
------------------------------------------------------------

  Initializing index lists of integration centers etc. from given atomic structure:
  | Number of centers in hartree potential         :        12
  | Number of centers in hartree multipole         :        12
  | Number of centers in electron density summation:        12
  | Number of centers in basis integrals           :        12
  | Number of centers in integrals                 :        12
  | Number of centers in hamiltonian               :        12
  * Using 24 tasks for Scalapack Eigenvalue solver.
  Detailed listing of tasks and assigned k-points:
  (for non-periodic systems, the "k-point" denotes an internal label only)
   Task     0 k-point     1 on node-k98a-011
   Task     1 k-point     1 on node-k98a-011
   Task     2 k-point     1 on node-k98a-011
   Task     3 k-point     1 on node-k98a-011
   Task     4 k-point     1 on node-k98a-011
   Task     5 k-point     1 on node-k98a-011
   Task     6 k-point     1 on node-k98a-011
   Task     7 k-point     1 on node-k98a-011
   Task     8 k-point     1 on node-k98a-011
   Task     9 k-point     1 on node-k98a-011
   Task    10 k-point     1 on node-k98a-011
   Task    11 k-point     1 on node-k98a-011
   Task    12 k-point     1 on node-k98a-011
   Task    13 k-point     1 on node-k98a-011
   Task    14 k-point     1 on node-k98a-011
   Task    15 k-point     1 on node-k98a-011
   Task    16 k-point     1 on node-k98a-011
   Task    17 k-point     1 on node-k98a-011
   Task    18 k-point     1 on node-k98a-011
   Task    19 k-point     1 on node-k98a-011
   Task    20 k-point     1 on node-k98a-011
   Task    21 k-point     1 on node-k98a-011
   Task    22 k-point     1 on node-k98a-011
   Task    23 k-point     1 on node-k98a-011
  Tasks:    24 split into      6 X      4 BLACS grid
  Calculating block size based on n_basis =          180  max_nprow =            6  max_npcol =            4
  ScaLAPACK block size set to:           16
  Allocating        0.012 MB for ovlp
  Allocating        0.012 MB for ham
  Allocating        0.012 MB for eigenvec
  Required Scalapack workspace - INTEGER:            1  REAL:             1
  Partitioning the integration grid into batches with parallel hashing+maxmin method.
  | Number of batches:     1032
  | Maximal batch size:     196
  | Minimal batch size:      20
  | Average batch size:      89.070
  | Standard deviation of batch sizes:      23.878

  Integration load balanced across    24 MPI tasks.
  Work distribution over tasks is as follows:
  Task     0 has       3815 integration points.
  Task     1 has       3852 integration points.
  Task     2 has       3834 integration points.
  Task     3 has       3813 integration points.
  Task     4 has       3820 integration points.
  Task     5 has       3842 integration points.
  Task     6 has       3897 integration points.
  Task     7 has       3799 integration points.
  Task     8 has       3868 integration points.
  Task     9 has       3818 integration points.
  Task    10 has       3807 integration points.
  Task    11 has       3805 integration points.
  Task    12 has       3842 integration points.
  Task    13 has       3810 integration points.
  Task    14 has       3819 integration points.
  Task    15 has       3841 integration points.
  Task    16 has       3803 integration points.
  Task    17 has       3802 integration points.
  Task    18 has       3897 integration points.
  Task    19 has       3812 integration points.
  Task    20 has       3798 integration points.
  Task    21 has       3815 integration points.
  Task    22 has       3811 integration points.
  Task    23 has       3900 integration points.
  Initializing partition tables, free-atom densities, potentials, etc. across the integration grid (initialize_grid_storage).
  | initialize_grid_storage: Actual outermost partition radius vs. multipole_radius_free
  | (-- VB: in principle, multipole_radius_free should be larger, hence this output)
  | Species        1: Confinement radius =              4.999999999999999 AA, multipole_radius_free =              5.004487022111096 AA.
  | Species        1: outer_partition_radius set to              5.004487022111096 AA .
  | Species        2: Confinement radius =              4.999999999999999 AA, multipole_radius_free =              5.009370088163274 AA.
  | Species        2: outer_partition_radius set to              5.009370088163274 AA .
  | The sparse table of interatomic distances needs          1.64 kbyte instead of         1.15 kbyte of memory.
  | Using the partition_type stratmann_smoother will reduce your memory usage.
  | Net number of integration points:    91920
  | of which are non-zero points    :    85843
  Renormalizing the initial density to the exact electron count on the 3D integration grid.
  | Initial density: Formal number of electrons (from input files) :     120.0000000000
  | Integrated number of electrons on 3D grid     :     120.0000395610
  | Charge integration error                      :       0.0000395610
  | Normalization factor for density and gradient :       0.9999996703
  Renormalizing the free-atom superposition density to the exact electron count on the 3D integration grid.
  | Formal number of electrons (from input files) :     120.0000000000
  | Integrated number of electrons on 3D grid     :     120.0000395610
  | Charge integration error                      :       0.0000395610
  | Normalization factor for density and gradient :       0.9999996703
  Obtaining max. number of non-zero basis functions in each batch (get_n_compute_maxes).
  | Maximal number of non-zero basis functions:      164 in task     0
  | Maximal number of non-zero basis functions:      164 in task     1
  | Maximal number of non-zero basis functions:      171 in task     2
  | Maximal number of non-zero basis functions:      172 in task     3
  | Maximal number of non-zero basis functions:      164 in task     4
  | Maximal number of non-zero basis functions:      171 in task     5
  | Maximal number of non-zero basis functions:      164 in task     6
  | Maximal number of non-zero basis functions:      165 in task     7
  | Maximal number of non-zero basis functions:      170 in task     8
  | Maximal number of non-zero basis functions:      170 in task     9
  | Maximal number of non-zero basis functions:      169 in task    10
  | Maximal number of non-zero basis functions:      166 in task    11
  | Maximal number of non-zero basis functions:      165 in task    12
  | Maximal number of non-zero basis functions:      161 in task    13
  | Maximal number of non-zero basis functions:      165 in task    14
  | Maximal number of non-zero basis functions:      171 in task    15
  | Maximal number of non-zero basis functions:      170 in task    16
  | Maximal number of non-zero basis functions:      170 in task    17
  | Maximal number of non-zero basis functions:      166 in task    18
  | Maximal number of non-zero basis functions:      166 in task    19
  | Maximal number of non-zero basis functions:      169 in task    20
  | Maximal number of non-zero basis functions:      164 in task    21
  | Maximal number of non-zero basis functions:      165 in task    22
  | Maximal number of non-zero basis functions:      171 in task    23
  Selecting the method for density update.
  Loop over occupied states selected for charge density update.
  Allocating        0.132 MB for KS_eigenvector
  Integrating Hamiltonian matrix: batch-based integration.
  Time summed over all CPUs for integration: real work        0.725 s, elapsed        0.766 s
  Integrating overlap matrix.
  Time summed over all CPUs for integration: real work        0.276 s, elapsed        0.289 s
  Deallocating overlap matrix.

  Updating Kohn-Sham eigenvalues and eigenvectors using ELSI and the ELPA eigensolver.
  Overlap matrix is not singular
  | Lowest and highest eigenvalues :  0.4170E-02,  0.5141E+01
  Finished singularity check of overlap matrix
  | Time :     0.004 s
  Starting ELPA eigensolver
  Finished Cholesky decomposition
  | Time :     0.001 s
  Finished transformation to standard eigenproblem
  | Time :     0.001 s
  Finished solving standard eigenproblem
  | Time :     0.003 s
  Finished back-transformation of eigenvectors
  | Time :     0.001 s

  Obtaining occupation numbers and chemical potential using ELSI.
  | Chemical potential (Fermi level):    -7.69446051 eV
  Writing Kohn-Sham eigenvalues.

  State    Occupation    Eigenvalue [Ha]    Eigenvalue [eV]
      1       2.00000         -55.483444        -1509.78132
      2       2.00000         -55.483440        -1509.78121
      3       2.00000         -55.483421        -1509.78070
      4       2.00000         -24.376421         -663.31616
      5       2.00000         -24.375487         -663.29076
      6       2.00000         -24.375455         -663.28989
      7       2.00000         -24.342431         -662.39124
      8       2.00000         -24.342261         -662.38664
      9       2.00000         -24.340538         -662.33973
     10       2.00000         -24.340405         -662.33613
     11       2.00000         -24.339004         -662.29798
     12       2.00000         -24.338676         -662.28907
     13       2.00000          -3.948702         -107.44964
     14       2.00000          -3.948696         -107.44947
     15       2.00000          -3.948660         -107.44850
     16       2.00000          -2.541095          -69.14670
     17       2.00000          -2.541077          -69.14622
     18       2.00000          -2.541033          -69.14502
     19       2.00000          -2.540557          -69.13208
     20       2.00000          -2.540505          -69.13065
     21       2.00000          -2.540460          -69.12944
     22       2.00000          -2.540279          -69.12450
     23       2.00000          -2.540265          -69.12414
     24       2.00000          -2.540175          -69.12168
     25       2.00000          -1.204378          -32.77279
     26       2.00000          -1.197861          -32.59547
     27       2.00000          -1.197125          -32.57543
     28       2.00000          -1.151897          -31.34472
     29       2.00000          -1.151495          -31.33377
     30       2.00000          -1.149873          -31.28962
     31       2.00000          -1.147715          -31.23090
     32       2.00000          -1.146482          -31.19736
     33       2.00000          -1.146029          -31.18503
     34       2.00000          -0.577148          -15.70500
     35       2.00000          -0.575985          -15.67334
     36       2.00000          -0.552601          -15.03705
     37       2.00000          -0.537205          -14.61809
     38       2.00000          -0.513475          -13.97236
     39       2.00000          -0.504581          -13.73035
     40       2.00000          -0.503043          -13.68849
     41       2.00000          -0.498331          -13.56027
     42       2.00000          -0.494617          -13.45921
     43       2.00000          -0.493768          -13.43610
     44       2.00000          -0.493407          -13.42628
     45       2.00000          -0.492964          -13.41423
     46       2.00000          -0.482109          -13.11886
     47       2.00000          -0.480520          -13.07561
     48       2.00000          -0.477886          -13.00394
     49       2.00000          -0.456522          -12.42258
     50       2.00000          -0.455671          -12.39945
     51       2.00000          -0.455561          -12.39644
     52       2.00000          -0.453426          -12.33835
     53       2.00000          -0.452965          -12.32580
     54       2.00000          -0.451648          -12.28995
     55       2.00000          -0.449511          -12.23182
     56       2.00000          -0.449013          -12.21825
     57       2.00000          -0.448331          -12.19971
     58       2.00000          -0.447327          -12.17238
     59       2.00000          -0.447196          -12.16882
     60       2.00000          -0.446765          -12.15708
     61       0.00000          -0.137772           -3.74896
     62       0.00000          -0.081312           -2.21261
     63       0.00000          -0.080056           -2.17842
     64       0.00000          -0.024902           -0.67763
     65       0.00000          -0.011296           -0.30737
     66       0.00000          -0.002412           -0.06565
     67       0.00000          -0.000774           -0.02105
     68       0.00000           0.038720            1.05362
     69       0.00000           0.053708            1.46148
     70       0.00000           0.053932            1.46756
     71       0.00000           0.081254            2.21103
     72       0.00000           0.082193            2.23659
     73       0.00000           0.137948            3.75376
     74       0.00000           0.161849            4.40414
     75       0.00000           0.163442            4.44748
     76       0.00000           0.182312            4.96096
     77       0.00000           0.185133            5.03773
     78       0.00000           0.190535            5.18472
     79       0.00000           0.194938            5.30454
     80       0.00000           0.199876            5.43891
     81       0.00000           0.204817            5.57337
     82       0.00000           0.213201            5.80150
     83       0.00000           0.214229            5.82947
     84       0.00000           0.228113            6.20726
     85       0.00000           0.238854            6.49955
     86       0.00000           0.253280            6.89211
     87       0.00000           0.273184            7.43371
     88       0.00000           0.295421            8.03883
     89       0.00000           0.298822            8.13136
     90       0.00000           0.302126            8.22127
     91       0.00000           0.304538            8.28690
     92       0.00000           0.317547            8.64089
     93       0.00000           0.348042            9.47070
     94       0.00000           0.350532            9.53846
     95       0.00000           0.356355            9.69690
     96       0.00000           0.371787           10.11685

  Highest occupied state (VBM) at    -12.15708094 eV
  | Occupation number:      2.00000000

  Lowest unoccupied state (CBM) at    -3.74896036 eV
  | Occupation number:      0.00000000

  Overall HOMO-LUMO gap:      8.40812058 eV.
  Calculating total energy contributions from superposition of free atom densities.

  Total energy components:
  | Sum of eigenvalues            :        -887.83382565 Ha      -24159.18760175 eV
  | XC energy correction          :        -144.32638998 Ha       -3927.32089122 eV
  | XC potential correction       :         187.92121239 Ha        5113.59636614 eV
  | Free-atom electrostatic energy:        -781.14872079 Ha      -21256.13819307 eV
  | Hartree energy correction     :           0.00000000 Ha           0.00000000 eV
  | Entropy correction            :           0.00000000 Ha           0.00000000 eV
  | ---------------------------
  | Total energy                  :       -1625.38772402 Ha      -44229.05031991 eV
  | Total energy, T -> 0          :       -1625.38772402 Ha      -44229.05031991 eV  <-- do not rely on this value for anything but (periodic) metals
  | Electronic free energy        :       -1625.38772402 Ha      -44229.05031991 eV

  Derived energy quantities:
  | Kinetic energy                :        1627.57343703 Ha       44288.52659703 eV
  | Electrostatic energy          :       -3108.63477107 Ha      -84590.25602571 eV
  | Energy correction for multipole
  | error in Hartree potential    :           0.00000000 Ha           0.00000000 eV
  | Sum of eigenvalues per atom                           :       -2013.26563348 eV
  | Total energy (T->0) per atom                          :       -3685.75419333 eV  <-- do not rely on this value for anything but (periodic) metals
  | Electronic free energy per atom                       :       -3685.75419333 eV
  Initialize hartree_potential_storage
  Max. number of atoms included in rho_multipole:           12

  End scf initialization - timings             :  max(cpu_time)    wall_clock(cpu1)
  | Time for scf. initialization                :        0.115 s           0.116 s
  | Boundary condition initialization           :        0.000 s           0.000 s
  | Integration                                 :        0.045 s           0.045 s
  | Solution of K.-S. eqns.                     :        0.011 s           0.011 s
  | Grid partitioning                           :        0.035 s           0.035 s
  | Preloading free-atom quantities on grid     :        0.016 s           0.017 s
  | Free-atom superposition energy              :        0.005 s           0.004 s
  | Total energy evaluation                     :        0.000 s           0.001 s

  Partial memory accounting:
  | Current value for overall tracked memory usage:
  |   Minimum:        0.273 MB (on task 23)
  |   Maximum:        0.292 MB (on task  0)
  |   Average:        0.287 MB
  | Peak value for overall tracked memory usage:
  |   Minimum:        1.340 MB (on task 13 after allocating wave)
  |   Maximum:        1.410 MB (on task  2 after allocating wave)
  |   Average:        1.379 MB
  | Largest tracked array allocation so far:
  |   Minimum:        0.245 MB (H_times_psi on task  0)
  |   Maximum:        0.479 MB (all_coords on task  9)
  |   Average:        0.276 MB
  Note:  These values currently only include a subset of arrays which are explicitly tracked.
  The "true" memory usage will be greater.
------------------------------------------------------------
  Evaluating new KS density.
  Integration grid: deviation in total charge (<rho> - N_e) =   2.842171E-14

  Time for density update prior                :  max(cpu_time)    wall_clock(cpu1)
  | self-consistency iterative process          :        0.028 s           0.028 s

------------------------------------------------------------
          Begin self-consistency iteration #    1

  Date     :  20220517, Time     :  114320.540
------------------------------------------------------------
  Pulay mixing of updated and previous charge densities.
  Renormalizing the density to the exact electron count on the 3D integration grid.
  | Formal number of electrons (from input files) :     120.0000000000
  | Integrated number of electrons on 3D grid     :     120.0000000000
  | Charge integration error                      :       0.0000000000
  | Normalization factor for density and gradient :       1.0000000000

  Evaluating partitioned Hartree potential by multipole expansion.
  | Original multipole sum: apparent total charge =   0.917582E-14
  | Sum of charges compensated after spline to logarithmic grids =   0.108014E-03
  | Analytical far-field extrapolation by fixed multipoles:
  | Hartree multipole sum: apparent total charge =   0.835141E-14
  Summing up the Hartree potential.
  Time summed over all CPUs for potential: real work        0.384 s, elapsed        0.430 s
  | RMS charge density error from multipole expansion :   0.105219E-01

  Integrating Hamiltonian matrix: batch-based integration.
  Time summed over all CPUs for integration: real work        0.674 s, elapsed        0.714 s

  Updating Kohn-Sham eigenvalues and eigenvectors using ELSI and the ELPA eigensolver.
  Starting ELPA eigensolver
  Finished transformation to standard eigenproblem
  | Time :     0.000 s
  Finished solving standard eigenproblem
  | Time :     0.004 s
  Finished back-transformation of eigenvectors
  | Time :     0.000 s

  Obtaining occupation numbers and chemical potential using ELSI.
  | Chemical potential (Fermi level):    -7.64244813 eV
  Writing Kohn-Sham eigenvalues.

  State    Occupation    Eigenvalue [Ha]    Eigenvalue [eV]
      1       2.00000         -55.648631        -1514.27628
      2       2.00000         -55.646007        -1514.20490
      3       2.00000         -55.645810        -1514.19952
      4       2.00000         -24.278497         -660.65151
      5       2.00000         -24.273846         -660.52494
      6       2.00000         -24.273611         -660.51856
      7       2.00000         -24.087311         -655.44908
      8       2.00000         -24.078054         -655.19717
      9       2.00000         -24.074297         -655.09495
     10       2.00000         -24.070984         -655.00479
     11       2.00000         -24.067199         -654.90182
     12       2.00000         -24.066624         -654.88616
     13       2.00000          -4.088953         -111.26608
     14       2.00000          -4.086557         -111.20086
     15       2.00000          -4.086387         -111.19626
     16       2.00000          -2.682417          -72.99227
     17       2.00000          -2.682387          -72.99148
     18       2.00000          -2.680065          -72.92828
     19       2.00000          -2.679990          -72.92623
     20       2.00000          -2.679956          -72.92532
     21       2.00000          -2.679890          -72.92351
     22       2.00000          -2.679806          -72.92124
     23       2.00000          -2.677491          -72.85823
     24       2.00000          -2.677323          -72.85367
     25       2.00000          -1.201836          -32.70363
     26       2.00000          -1.193290          -32.47108
     27       2.00000          -1.191037          -32.40975
     28       2.00000          -1.034503          -28.15027
     29       2.00000          -1.026413          -27.93011
     30       2.00000          -1.022612          -27.82667
     31       2.00000          -1.017642          -27.69144
     32       2.00000          -1.013859          -27.58851
     33       2.00000          -1.013777          -27.58627
     34       2.00000          -0.586788          -15.96732
     35       2.00000          -0.583887          -15.88838
     36       2.00000          -0.556717          -15.14905
     37       2.00000          -0.544958          -14.82905
     38       2.00000          -0.504451          -13.72681
     39       2.00000          -0.494294          -13.45044
     40       2.00000          -0.491892          -13.38506
     41       2.00000          -0.486152          -13.22888
     42       2.00000          -0.480833          -13.08412
     43       2.00000          -0.409393          -11.14015
     44       2.00000          -0.399823          -10.87974
     45       2.00000          -0.396885          -10.79979
     46       2.00000          -0.371849          -10.11853
     47       2.00000          -0.369693          -10.05987
     48       2.00000          -0.367796          -10.00825
     49       2.00000          -0.346062           -9.41683
     50       2.00000          -0.344075           -9.36276
     51       2.00000          -0.340387           -9.26240
     52       2.00000          -0.336290           -9.15091
     53       2.00000          -0.335285           -9.12356
     54       2.00000          -0.332671           -9.05243
     55       2.00000          -0.325403           -8.85466
     56       2.00000          -0.323676           -8.80768
     57       2.00000          -0.322775           -8.78314
     58       2.00000          -0.322244           -8.76871
     59       2.00000          -0.321633           -8.75208
     60       2.00000          -0.320625           -8.72466
     61       0.00000          -0.156028           -4.24575
     62       0.00000          -0.084926           -2.31095
     63       0.00000          -0.082286           -2.23912
     64       0.00000          -0.044847           -1.22034
     65       0.00000          -0.031296           -0.85161
     66       0.00000          -0.015507           -0.42197
     67       0.00000          -0.013998           -0.38091
     68       0.00000           0.023978            0.65246
     69       0.00000           0.033887            0.92212
     70       0.00000           0.036837            1.00239
     71       0.00000           0.055277            1.50416
     72       0.00000           0.056009            1.52409
     73       0.00000           0.132859            3.61529
     74       0.00000           0.150700            4.10076
     75       0.00000           0.163567            4.45089
     76       0.00000           0.177592            4.83253
     77       0.00000           0.178124            4.84700
     78       0.00000           0.186826            5.08379
     79       0.00000           0.191338            5.20656
     80       0.00000           0.194144            5.28293
     81       0.00000           0.196884            5.35749
     82       0.00000           0.202658            5.51461
     83       0.00000           0.212453            5.78115
     84       0.00000           0.218759            5.95275
     85       0.00000           0.227010            6.17726
     86       0.00000           0.247307            6.72958
     87       0.00000           0.264203            7.18934
     88       0.00000           0.279513            7.60595
     89       0.00000           0.285175            7.76001
     90       0.00000           0.287037            7.81068
     91       0.00000           0.295354            8.03699
     92       0.00000           0.300010            8.16369
     93       0.00000           0.323107            8.79220
     94       0.00000           0.335188            9.12092
     95       0.00000           0.365993            9.95917
     96       0.00000           0.375680           10.22278

  Highest occupied state (VBM) at     -8.72466092 eV
  | Occupation number:      2.00000000

  Lowest unoccupied state (CBM) at    -4.24574867 eV
  | Occupation number:      0.00000000

  Overall HOMO-LUMO gap:      4.47891225 eV.

  Total energy components:
  | Sum of eigenvalues            :        -882.64719451 Ha      -24018.05218760 eV
  | XC energy correction          :        -145.70577134 Ha       -3964.85576776 eV
  | XC potential correction       :         189.73426013 Ha        5162.93190525 eV
  | Free-atom electrostatic energy:        -781.14872079 Ha      -21256.13819307 eV
  | Hartree energy correction     :          -5.39404889 Ha        -146.77953839 eV
  | Entropy correction            :           0.00000000 Ha           0.00000000 eV
  | ---------------------------
  | Total energy                  :       -1625.16147540 Ha      -44222.89378157 eV
  | Total energy, T -> 0          :       -1625.16147540 Ha      -44222.89378157 eV  <-- do not rely on this value for anything but (periodic) metals
  | Electronic free energy        :       -1625.16147540 Ha      -44222.89378157 eV

  Derived energy quantities:
  | Kinetic energy                :        1634.26598132 Ha       44470.63999288 eV
  | Electrostatic energy          :       -3113.72168537 Ha      -84728.67800669 eV
  | Energy correction for multipole
  | error in Hartree potential    :           0.04505550 Ha           1.22602257 eV
  | Sum of eigenvalues per atom                           :       -2001.50434897 eV
  | Total energy (T->0) per atom                          :       -3685.24114846 eV  <-- do not rely on this value for anything but (periodic) metals
  | Electronic free energy per atom                       :       -3685.24114846 eV
  Evaluating new KS density.
  Integration grid: deviation in total charge (<rho> - N_e) =   2.842171E-14

  Self-consistency convergence accuracy:
  | Change of charge density      :  0.6128E+00
  | Change of sum of eigenvalues  :  0.1411E+03 eV
  | Change of total energy        :  0.6157E+01 eV


------------------------------------------------------------
  End self-consistency iteration #     1       :  max(cpu_time)    wall_clock(cpu1)
  | Time for this iteration                     :        0.083 s           0.082 s
  | Charge density update                       :        0.027 s           0.027 s
  | Density mixing                              :        0.000 s           0.000 s
  | Hartree multipole update                    :        0.001 s           0.001 s
  | Hartree multipole summation                 :        0.018 s           0.019 s
  | Integration                                 :        0.030 s           0.030 s
  | Solution of K.-S. eqns.                     :        0.004 s           0.004 s
  | Total energy evaluation                     :        0.000 s           0.000 s

  Partial memory accounting:
  | Current value for overall tracked memory usage:
  |   Minimum:        0.273 MB (on task 23)
  |   Maximum:        0.292 MB (on task  0)
  |   Average:        0.287 MB
  | Peak value for overall tracked memory usage:
  |   Minimum:        1.340 MB (on task 13 after allocating wave)
  |   Maximum:        1.410 MB (on task  2 after allocating wave)
  |   Average:        1.379 MB
  | Largest tracked array allocation so far:
  |   Minimum:        0.722 MB (gradient_basis_wave on task 13)
  |   Maximum:        0.772 MB (gradient_basis_wave on task  3)
  |   Average:        0.750 MB
  Note:  These values currently only include a subset of arrays which are explicitly tracked.
  The "true" memory usage will be greater.
------------------------------------------------------------

------------------------------------------------------------
          Begin self-consistency iteration #    2

  Date     :  20220517, Time     :  114320.628
------------------------------------------------------------
  Pulay mixing of updated and previous charge densities.
  Renormalizing the density to the exact electron count on the 3D integration grid.
  | Formal number of electrons (from input files) :     120.0000000000
  | Integrated number of electrons on 3D grid     :     120.0000000000
  | Charge integration error                      :      -0.0000000000
  | Normalization factor for density and gradient :       1.0000000000

  Evaluating partitioned Hartree potential by multipole expansion.
  | Original multipole sum: apparent total charge =  -0.492028E-13
  | Sum of charges compensated after spline to logarithmic grids =   0.682869E-04
  | Analytical far-field extrapolation by fixed multipoles:
  | Hartree multipole sum: apparent total charge =  -0.485936E-13
  Summing up the Hartree potential.
  Time summed over all CPUs for potential: real work        0.382 s, elapsed        0.429 s
  | RMS charge density error from multipole expansion :   0.125068E-01

  Integrating Hamiltonian matrix: batch-based integration.
  Time summed over all CPUs for integration: real work        0.673 s, elapsed        0.712 s

  Updating Kohn-Sham eigenvalues and eigenvectors using ELSI and the ELPA eigensolver.
  Starting ELPA eigensolver
  Finished transformation to standard eigenproblem
  | Time :     0.000 s
  Finished solving standard eigenproblem
  | Time :     0.003 s
  Finished back-transformation of eigenvectors
  | Time :     0.000 s

  Obtaining occupation numbers and chemical potential using ELSI.
  | Chemical potential (Fermi level):    -7.81406553 eV
  Highest occupied state (VBM) at     -9.91700330 eV
  | Occupation number:      2.00000000

  Lowest unoccupied state (CBM) at    -4.43191062 eV
  | Occupation number:      0.00000000

  Overall HOMO-LUMO gap:      5.48509268 eV.

  Checking to see if s.c.f. parameters should be adjusted.

  Total energy components:
  | Sum of eigenvalues            :        -885.85468632 Ha      -24105.33248057 eV
  | XC energy correction          :        -145.20070870 Ha       -3951.11231410 eV
  | XC potential correction       :         189.06970221 Ha        5144.84836405 eV
  | Free-atom electrostatic energy:        -781.14872079 Ha      -21256.13819307 eV
  | Hartree energy correction     :          -1.95776351 Ha         -53.27345576 eV
  | Entropy correction            :           0.00000000 Ha           0.00000000 eV
  | ---------------------------
  | Total energy                  :       -1625.09217712 Ha      -44221.00807945 eV
  | Total energy, T -> 0          :       -1625.09217712 Ha      -44221.00807945 eV  <-- do not rely on this value for anything but (periodic) metals
  | Electronic free energy        :       -1625.09217712 Ha      -44221.00807945 eV

  Derived energy quantities:
  | Kinetic energy                :        1630.32650030 Ha       44363.44126012 eV
  | Electrostatic energy          :       -3110.21796871 Ha      -84633.33702547 eV
  | Energy correction for multipole
  | error in Hartree potential    :           0.04917753 Ha           1.33818866 eV
  | Sum of eigenvalues per atom                           :       -2008.77770671 eV
  | Total energy (T->0) per atom                          :       -3685.08400662 eV  <-- do not rely on this value for anything but (periodic) metals
  | Electronic free energy per atom                       :       -3685.08400662 eV
  Evaluating new KS density.
  Integration grid: deviation in total charge (<rho> - N_e) =  -2.842171E-14

  Self-consistency convergence accuracy:
  | Change of charge density      :  0.4955E+00
  | Change of sum of eigenvalues  : -0.8728E+02 eV
  | Change of total energy        :  0.1886E+01 eV


------------------------------------------------------------
  End self-consistency iteration #     2       :  max(cpu_time)    wall_clock(cpu1)
  | Time for this iteration                     :        0.086 s           0.083 s
  | Charge density update                       :        0.027 s           0.028 s
  | Density mixing                              :        0.004 s           0.001 s
  | Hartree multipole update                    :        0.001 s           0.002 s
  | Hartree multipole summation                 :        0.018 s           0.018 s
  | Integration                                 :        0.030 s           0.030 s
  | Solution of K.-S. eqns.                     :        0.004 s           0.004 s
  | Total energy evaluation                     :        0.000 s           0.000 s

  Partial memory accounting:
  | Current value for overall tracked memory usage:
  |   Minimum:        0.274 MB (on task 23)
  |   Maximum:        0.293 MB (on task  0)
  |   Average:        0.288 MB
  | Peak value for overall tracked memory usage:
  |   Minimum:        1.340 MB (on task 13 after allocating wave)
  |   Maximum:        1.410 MB (on task  2 after allocating wave)
  |   Average:        1.379 MB
  | Largest tracked array allocation so far:
  |   Minimum:        0.722 MB (gradient_basis_wave on task 13)
  |   Maximum:        0.772 MB (gradient_basis_wave on task  3)
  |   Average:        0.750 MB
  Note:  These values currently only include a subset of arrays which are explicitly tracked.
  The "true" memory usage will be greater.
------------------------------------------------------------

------------------------------------------------------------
          Begin self-consistency iteration #    3

  Date     :  20220517, Time     :  114320.717
------------------------------------------------------------
  Pulay mixing of updated and previous charge densities.
  Renormalizing the density to the exact electron count on the 3D integration grid.
  | Formal number of electrons (from input files) :     120.0000000000
  | Integrated number of electrons on 3D grid     :     120.0000000000
  | Charge integration error                      :       0.0000000000
  | Normalization factor for density and gradient :       1.0000000000

  Evaluating partitioned Hartree potential by multipole expansion.
  | Original multipole sum: apparent total charge =   0.535431E-13
  | Sum of charges compensated after spline to logarithmic grids =   0.873666E-04
  | Analytical far-field extrapolation by fixed multipoles:
  | Hartree multipole sum: apparent total charge =   0.520857E-13
  Summing up the Hartree potential.
  Time summed over all CPUs for potential: real work        0.383 s, elapsed        0.428 s
  | RMS charge density error from multipole expansion :   0.172085E-01

  Integrating Hamiltonian matrix: batch-based integration.
  Time summed over all CPUs for integration: real work        0.673 s, elapsed        0.713 s

  Updating Kohn-Sham eigenvalues and eigenvectors using ELSI and the ELPA eigensolver.
  Starting ELPA eigensolver
  Finished transformation to standard eigenproblem
  | Time :     0.000 s
  Finished solving standard eigenproblem
  | Time :     0.003 s
  Finished back-transformation of eigenvectors
  | Time :     0.000 s

  Obtaining occupation numbers and chemical potential using ELSI.
  | Chemical potential (Fermi level):    -7.88156219 eV
  Highest occupied state (VBM) at     -9.69276479 eV
  | Occupation number:      2.00000000

  Lowest unoccupied state (CBM) at    -4.69000818 eV
  | Occupation number:      0.00000000

  Overall HOMO-LUMO gap:      5.00275661 eV.

  Total energy components:
  | Sum of eigenvalues            :        -886.97579963 Ha      -24135.83952604 eV
  | XC energy correction          :        -145.16977619 Ha       -3950.27059758 eV
  | XC potential correction       :         189.02764334 Ha        5143.70388402 eV
  | Free-atom electrostatic energy:        -781.14872079 Ha      -21256.13819307 eV
  | Hartree energy correction     :          -0.82449550 Ha         -22.43566408 eV
  | Entropy correction            :           0.00000000 Ha           0.00000000 eV
  | ---------------------------
  | Total energy                  :       -1625.09114877 Ha      -44220.98009676 eV
  | Total energy, T -> 0          :       -1625.09114877 Ha      -44220.98009676 eV  <-- do not rely on this value for anything but (periodic) metals
  | Electronic free energy        :       -1625.09114877 Ha      -44220.98009676 eV

  Derived energy quantities:
  | Kinetic energy                :        1628.65403955 Ha       44317.93128757 eV
  | Electrostatic energy          :       -3108.57541213 Ha      -84588.64078675 eV
  | Energy correction for multipole
  | error in Hartree potential    :           0.06478931 Ha           1.76300677 eV
  | Sum of eigenvalues per atom                           :       -2011.31996050 eV
  | Total energy (T->0) per atom                          :       -3685.08167473 eV  <-- do not rely on this value for anything but (periodic) metals
  | Electronic free energy per atom                       :       -3685.08167473 eV
  Evaluating new KS density.
  Integration grid: deviation in total charge (<rho> - N_e) =   1.421085E-14

  Self-consistency convergence accuracy:
  | Change of charge density      :  0.1262E+00
  | Change of sum of eigenvalues  : -0.3051E+02 eV
  | Change of total energy        :  0.2798E-01 eV


------------------------------------------------------------
  End self-consistency iteration #     3       :  max(cpu_time)    wall_clock(cpu1)
  | Time for this iteration                     :        0.085 s           0.082 s
  | Charge density update                       :        0.027 s           0.027 s
  | Density mixing                              :        0.004 s           0.001 s
  | Hartree multipole update                    :        0.001 s           0.001 s
  | Hartree multipole summation                 :        0.018 s           0.018 s
  | Integration                                 :        0.030 s           0.031 s
  | Solution of K.-S. eqns.                     :        0.004 s           0.004 s
  | Total energy evaluation                     :        0.000 s           0.000 s

  Partial memory accounting:
  | Current value for overall tracked memory usage:
  |   Minimum:        0.274 MB (on task 23)
  |   Maximum:        0.293 MB (on task  0)
  |   Average:        0.288 MB
  | Peak value for overall tracked memory usage:
  |   Minimum:        1.340 MB (on task 13 after allocating wave)
  |   Maximum:        1.410 MB (on task  2 after allocating wave)
  |   Average:        1.379 MB
  | Largest tracked array allocation so far:
  |   Minimum:        0.722 MB (gradient_basis_wave on task 13)
  |   Maximum:        0.772 MB (gradient_basis_wave on task  3)
  |   Average:        0.750 MB
  Note:  These values currently only include a subset of arrays which are explicitly tracked.
  The "true" memory usage will be greater.
------------------------------------------------------------

------------------------------------------------------------
          Begin self-consistency iteration #    4

  Date     :  20220517, Time     :  114320.805
------------------------------------------------------------
  Pulay mixing of updated and previous charge densities.
  Renormalizing the density to the exact electron count on the 3D integration grid.
  | Formal number of electrons (from input files) :     120.0000000000
  | Integrated number of electrons on 3D grid     :     120.0000000000
  | Charge integration error                      :      -0.0000000000
  | Normalization factor for density and gradient :       1.0000000000

  Evaluating partitioned Hartree potential by multipole expansion.
  | Original multipole sum: apparent total charge =   0.130798E-13
  | Sum of charges compensated after spline to logarithmic grids =   0.962447E-04
  | Analytical far-field extrapolation by fixed multipoles:
  | Hartree multipole sum: apparent total charge =   0.146172E-13
  Summing up the Hartree potential.
  Time summed over all CPUs for potential: real work        0.382 s, elapsed        0.428 s
  | RMS charge density error from multipole expansion :   0.194998E-01

  Integrating Hamiltonian matrix: batch-based integration.
  Time summed over all CPUs for integration: real work        0.674 s, elapsed        0.712 s

  Updating Kohn-Sham eigenvalues and eigenvectors using ELSI and the ELPA eigensolver.
  Starting ELPA eigensolver
  Finished transformation to standard eigenproblem
  | Time :     0.000 s
  Finished solving standard eigenproblem
  | Time :     0.003 s
  Finished back-transformation of eigenvectors
  | Time :     0.000 s

  Obtaining occupation numbers and chemical potential using ELSI.
  | Chemical potential (Fermi level):    -7.87911062 eV
  Highest occupied state (VBM) at     -9.79987290 eV
  | Occupation number:      2.00000000

  Lowest unoccupied state (CBM) at    -4.64503295 eV
  | Occupation number:      0.00000000

  Overall HOMO-LUMO gap:      5.15483995 eV.

  Total energy components:
  | Sum of eigenvalues            :        -887.15276589 Ha      -24140.65502288 eV
  | XC energy correction          :        -145.15118257 Ha       -3949.76463968 eV
  | XC potential correction       :         189.00237769 Ha        5143.01637066 eV
  | Free-atom electrostatic energy:        -781.14872079 Ha      -21256.13819307 eV
  | Hartree energy correction     :          -0.63870735 Ha         -17.38011121 eV
  | Entropy correction            :           0.00000000 Ha           0.00000000 eV
  | ---------------------------
  | Total energy                  :       -1625.08899891 Ha      -44220.92159618 eV
  | Total energy, T -> 0          :       -1625.08899891 Ha      -44220.92159618 eV  <-- do not rely on this value for anything but (periodic) metals
  | Electronic free energy        :       -1625.08899891 Ha      -44220.92159618 eV

  Derived energy quantities:
  | Kinetic energy                :        1627.91314838 Ha       44297.77061321 eV
  | Electrostatic energy          :       -3107.85096472 Ha      -84568.92756971 eV
  | Energy correction for multipole
  | error in Hartree potential    :           0.07204965 Ha           1.96057070 eV
  | Sum of eigenvalues per atom                           :       -2011.72125191 eV
  | Total energy (T->0) per atom                          :       -3685.07679968 eV  <-- do not rely on this value for anything but (periodic) metals
  | Electronic free energy per atom                       :       -3685.07679968 eV
  Evaluating new KS density.
  Integration grid: deviation in total charge (<rho> - N_e) =   4.263256E-14

  Self-consistency convergence accuracy:
  | Change of charge density      :  0.8464E-01
  | Change of sum of eigenvalues  : -0.4815E+01 eV
  | Change of total energy        :  0.5850E-01 eV


------------------------------------------------------------
  End self-consistency iteration #     4       :  max(cpu_time)    wall_clock(cpu1)
  | Time for this iteration                     :        0.085 s           0.083 s
  | Charge density update                       :        0.027 s           0.027 s
  | Density mixing                              :        0.004 s           0.002 s
  | Hartree multipole update                    :        0.001 s           0.001 s
  | Hartree multipole summation                 :        0.018 s           0.019 s
  | Integration                                 :        0.030 s           0.030 s
  | Solution of K.-S. eqns.                     :        0.004 s           0.004 s
  | Total energy evaluation                     :        0.000 s           0.000 s

  Partial memory accounting:
  | Current value for overall tracked memory usage:
  |   Minimum:        0.274 MB (on task 23)
  |   Maximum:        0.293 MB (on task  0)
  |   Average:        0.288 MB
  | Peak value for overall tracked memory usage:
  |   Minimum:        1.340 MB (on task 13 after allocating wave)
  |   Maximum:        1.410 MB (on task  2 after allocating wave)
  |   Average:        1.379 MB
  | Largest tracked array allocation so far:
  |   Minimum:        0.722 MB (gradient_basis_wave on task 13)
  |   Maximum:        0.772 MB (gradient_basis_wave on task  3)
  |   Average:        0.750 MB
  Note:  These values currently only include a subset of arrays which are explicitly tracked.
  The "true" memory usage will be greater.
------------------------------------------------------------

------------------------------------------------------------
          Begin self-consistency iteration #    5

  Date     :  20220517, Time     :  114320.895
------------------------------------------------------------
  Pulay mixing of updated and previous charge densities.
  Renormalizing the density to the exact electron count on the 3D integration grid.
  | Formal number of electrons (from input files) :     120.0000000000
  | Integrated number of electrons on 3D grid     :     120.0000000000
  | Charge integration error                      :      -0.0000000000
  | Normalization factor for density and gradient :       1.0000000000

  Evaluating partitioned Hartree potential by multipole expansion.
  | Original multipole sum: apparent total charge =  -0.465574E-13
  | Sum of charges compensated after spline to logarithmic grids =   0.967185E-04
  | Analytical far-field extrapolation by fixed multipoles:
  | Hartree multipole sum: apparent total charge =  -0.469909E-13
  Summing up the Hartree potential.
  Time summed over all CPUs for potential: real work        0.383 s, elapsed        0.428 s
  | RMS charge density error from multipole expansion :   0.192380E-01

  Integrating Hamiltonian matrix: batch-based integration.
  Time summed over all CPUs for integration: real work        0.674 s, elapsed        0.714 s

  Updating Kohn-Sham eigenvalues and eigenvectors using ELSI and the ELPA eigensolver.
  Starting ELPA eigensolver
  Finished transformation to standard eigenproblem
  | Time :     0.000 s
  Finished solving standard eigenproblem
  | Time :     0.003 s
  Finished back-transformation of eigenvectors
  | Time :     0.001 s

  Obtaining occupation numbers and chemical potential using ELSI.
  | Chemical potential (Fermi level):    -7.84775089 eV
  Highest occupied state (VBM) at     -9.83149938 eV
  | Occupation number:      2.00000000

  Lowest unoccupied state (CBM) at    -4.57289201 eV
  | Occupation number:      0.00000000

  Overall HOMO-LUMO gap:      5.25860737 eV.

  Total energy components:
  | Sum of eigenvalues            :        -886.91583535 Ha      -24134.20781473 eV
  | XC energy correction          :        -145.14559627 Ha       -3949.61262857 eV
  | XC potential correction       :         188.99527602 Ha        5142.82312450 eV
  | Free-atom electrostatic energy:        -781.14872079 Ha      -21256.13819307 eV
  | Hartree energy correction     :          -0.87398427 Ha         -23.78232212 eV
  | Entropy correction            :           0.00000000 Ha           0.00000000 eV
[...]
   Total forces(   7)            :  0.849626E+00  0.318761E+01  0.722683E-02
  atom #    8
   Hellmann-Feynman              :  0.861450E-01 -0.753636E+00  0.214905E+00
   Ionic forces                  :  0.000000E+00  0.000000E+00  0.000000E+00
   Multipole                     :  0.257127E+00 -0.896108E-01  0.183489E+00
   Hartree pot. SCF incomplete   : -0.242266E-07 -0.315157E-07 -0.368592E-06
   Pulay + GGA                   : -0.105799E+01  0.965975E+00 -0.119988E+01
   ----------------------------------------------------------------
   Total forces(   8)            : -0.714715E+00  0.122729E+00 -0.801491E+00
  atom #    9
   Hellmann-Feynman              : -0.177241E+00  0.834362E+00 -0.348935E+00
   Ionic forces                  :  0.000000E+00  0.000000E+00  0.000000E+00
   Multipole                     : -0.267704E-01  0.743050E-01 -0.301750E+00
   Hartree pot. SCF incomplete   : -0.425660E-07  0.854696E-06  0.949823E-06
   Pulay + GGA                   : -0.775736E-01 -0.105387E+01  0.164911E+01
   ----------------------------------------------------------------
   Total forces(   9)            : -0.281585E+00 -0.145204E+00  0.998423E+00
  atom #   10
   Hellmann-Feynman              : -0.352966E+00 -0.859587E+00  0.291624E+01
   Ionic forces                  :  0.000000E+00  0.000000E+00  0.000000E+00
   Multipole                     : -0.799181E-01 -0.245651E+00  0.635179E+00
   Hartree pot. SCF incomplete   : -0.106048E-06 -0.274352E-06  0.355062E-06
   Pulay + GGA                   :  0.826175E+00  0.205733E+01 -0.680658E+01
   ----------------------------------------------------------------
   Total forces(  10)            :  0.393291E+00  0.952094E+00 -0.325516E+01
  atom #   11
   Hellmann-Feynman              :  0.147475E+00  0.287687E+01 -0.132320E+01
   Ionic forces                  :  0.000000E+00  0.000000E+00  0.000000E+00
   Multipole                     :  0.374546E-01  0.720970E+00 -0.345137E+00
   Hartree pot. SCF incomplete   :  0.127505E-06 -0.149498E-05 -0.215877E-05
   Pulay + GGA                   : -0.304765E+00 -0.661451E+01  0.254072E+01
   ----------------------------------------------------------------
   Total forces(  11)            : -0.119835E+00 -0.301667E+01  0.872384E+00
  atom #   12
   Hellmann-Feynman              :  0.471505E-01 -0.550875E+00  0.563663E+00
   Ionic forces                  :  0.000000E+00  0.000000E+00  0.000000E+00
   Multipole                     : -0.238304E+00 -0.179209E-01  0.225866E+00
   Hartree pot. SCF incomplete   :  0.526646E-08 -0.523336E-07 -0.436680E-06
   Pulay + GGA                   :  0.121139E+01  0.820622E+00 -0.116608E+01
   ----------------------------------------------------------------
   Total forces(  12)            :  0.102024E+01  0.251827E+00 -0.376548E+00


  Self-consistency convergence accuracy:
  | Change of charge density      :  0.1142E-06
  | Change of sum of eigenvalues  : -0.8840E-05 eV
  | Change of total energy        :  0.1200E-08 eV
  | Change of forces              :  0.3400E-06 eV/A

  Writing Kohn-Sham eigenvalues.

  State    Occupation    Eigenvalue [Ha]    Eigenvalue [eV]
      1       2.00000         -55.632527        -1513.83807
      2       2.00000         -55.629088        -1513.74452
      3       2.00000         -55.628811        -1513.73696
      4       2.00000         -24.338893         -662.29499
      5       2.00000         -24.336662         -662.23427
      6       2.00000         -24.336521         -662.23044
      7       2.00000         -24.227141         -659.25405
      8       2.00000         -24.218122         -659.00863
      9       2.00000         -24.215889         -658.94788
     10       2.00000         -24.212763         -658.86280
     11       2.00000         -24.211521         -658.82901
     12       2.00000         -24.210780         -658.80885
     13       2.00000          -4.086833         -111.20839
     14       2.00000          -4.083561         -111.11936
     15       2.00000          -4.083310         -111.11251
     16       2.00000          -2.680463          -72.93911
     17       2.00000          -2.679425          -72.91085
     18       2.00000          -2.677230          -72.85115
     19       2.00000          -2.676990          -72.84459
     20       2.00000          -2.676156          -72.82192
     21       2.00000          -2.675874          -72.81425
     22       2.00000          -2.675112          -72.79350
     23       2.00000          -2.671756          -72.70217
     24       2.00000          -2.671515          -72.69561
     25       2.00000          -1.221898          -33.24953
     26       2.00000          -1.213842          -33.03031
     27       2.00000          -1.212085          -32.98252
     28       2.00000          -1.076954          -29.30541
     29       2.00000          -1.067923          -29.05966
     30       2.00000          -1.064398          -28.96375
     31       2.00000          -1.059890          -28.84108
     32       2.00000          -1.057756          -28.78299
     33       2.00000          -1.056569          -28.75072
     34       2.00000          -0.605324          -16.47171
     35       2.00000          -0.603157          -16.41273
     36       2.00000          -0.577225          -15.70710
     37       2.00000          -0.563828          -15.34255
     38       2.00000          -0.522358          -14.21407
     39       2.00000          -0.515524          -14.02813
     40       2.00000          -0.512071          -13.93417
     41       2.00000          -0.506231          -13.77525
     42       2.00000          -0.501236          -13.63933
     43       2.00000          -0.444005          -12.08198
     44       2.00000          -0.435866          -11.86053
     45       2.00000          -0.432618          -11.77215
     46       2.00000          -0.413280          -11.24593
     47       2.00000          -0.410365          -11.16661
     48       2.00000          -0.408627          -11.11932
     49       2.00000          -0.384627          -10.46623
     50       2.00000          -0.382446          -10.40688
     51       2.00000          -0.377207          -10.26432
     52       2.00000          -0.374166          -10.18159
     53       2.00000          -0.373081          -10.15205
     54       2.00000          -0.370850          -10.09134
     55       2.00000          -0.365037           -9.93315
     56       2.00000          -0.364074           -9.90695
     57       2.00000          -0.362995           -9.87760
     58       2.00000          -0.362196           -9.85585
     59       2.00000          -0.362100           -9.85325
     60       2.00000          -0.360599           -9.81241
     61       0.00000          -0.168365           -4.58146
     62       0.00000          -0.097070           -2.64141
     63       0.00000          -0.094125           -2.56128
     64       0.00000          -0.052029           -1.41578
     65       0.00000          -0.037194           -1.01211
     66       0.00000          -0.020692           -0.56307
     67       0.00000          -0.019063           -0.51872
     68       0.00000           0.020723            0.56391
     69       0.00000           0.028913            0.78675
     70       0.00000           0.030147            0.82034
     71       0.00000           0.048793            1.32772
     72       0.00000           0.049388            1.34392
     73       0.00000           0.124102            3.37699
     74       0.00000           0.145630            3.96278
     75       0.00000           0.157627            4.28926
     76       0.00000           0.172001            4.68039
     77       0.00000           0.173199            4.71297
     78       0.00000           0.178463            4.85623
     79       0.00000           0.184397            5.01770
     80       0.00000           0.187503            5.10222
     81       0.00000           0.188489            5.12905
     82       0.00000           0.196271            5.34081
     83       0.00000           0.205300            5.58650
     84       0.00000           0.210167            5.71893
     85       0.00000           0.219702            5.97839
     86       0.00000           0.239560            6.51876
     87       0.00000           0.257465            7.00599
     88       0.00000           0.274133            7.45954
     89       0.00000           0.279960            7.61810
     90       0.00000           0.281176            7.65118
     91       0.00000           0.290201            7.89677
     92       0.00000           0.295727            8.04714
     93       0.00000           0.318444            8.66531
     94       0.00000           0.328951            8.95120
     95       0.00000           0.357674            9.73280
     96       0.00000           0.367809           10.00860

  Highest occupied state (VBM) at     -9.81240824 eV
  | Occupation number:      2.00000000

  Lowest unoccupied state (CBM) at    -4.58145804 eV
  | Occupation number:      0.00000000

  Overall HOMO-LUMO gap:      5.23095020 eV.
  | Chemical Potential                          :    -7.84897702 eV

  Self-consistency cycle converged.


------------------------------------------------------------
  End self-consistency iteration #    14       :  max(cpu_time)    wall_clock(cpu1)
  | Time for this iteration                     :        0.272 s           0.270 s
  | Charge density & force component update     :        0.148 s           0.148 s
  | Density mixing                              :        0.005 s           0.002 s
  | Hartree multipole update                    :        0.001 s           0.002 s
  | Hartree multipole summation                 :        0.051 s           0.050 s
  | Hartree pot. SCF incomplete forces          :        0.032 s           0.032 s
  | Integration                                 :        0.030 s           0.031 s
  | Solution of K.-S. eqns.                     :        0.004 s           0.003 s
  | Total energy evaluation                     :        0.000 s           0.000 s

  Partial memory accounting:
  | Current value for overall tracked memory usage:
  |   Minimum:        0.274 MB (on task 23)
  |   Maximum:        0.293 MB (on task  0)
  |   Average:        0.289 MB
  | Peak value for overall tracked memory usage:
  |   Minimum:        2.970 MB (on task 13 after allocating hessian_basis_wave)
  |   Maximum:        3.125 MB (on task  3 after allocating hessian_basis_wave)
  |   Average:        3.058 MB
  | Largest tracked array allocation so far:
  |   Minimum:        1.445 MB (hessian_basis_wave on task 13)
  |   Maximum:        1.543 MB (hessian_basis_wave on task  3)
  |   Average:        1.500 MB
  Note:  These values currently only include a subset of arrays which are explicitly tracked.
  The "true" memory usage will be greater.
------------------------------------------------------------
  Removing unitary transformations (pure translations, rotations) from forces on atoms.
  Atomic forces before filtering:
  | Net force on center of mass :   0.151455E-02 -0.317000E-02  0.106400E-01 eV/A
  | Net torque on center of mass:   0.203309E-01 -0.946461E-02 -0.566437E-02 eV
  Atomic forces after filtering:
  | Net force on center of mass :   0.178406E-15  0.936632E-15 -0.936632E-15 eV/A
  | Net torque on center of mass:  -0.320989E-14  0.122731E-14  0.287946E-14 eV

  Energy and forces in a compact form:
  | Total energy uncorrected      :         -0.442209174246709E+05 eV
  | Total energy corrected        :         -0.442209174246709E+05 eV  <-- do not rely on this value for anything but (periodic) metals
  | Electronic free energy        :         -0.442209174246709E+05 eV
  Total atomic forces (unitary forces cleaned) [eV/Ang]:
  |    1         -0.474952808825524E+00          0.173741702355927E+01          0.284763610498162E+01
  |    2          0.331651890838819E+01         -0.700347302805599E+00         -0.114401490913971E+01
  |    3         -0.276050500098273E+01         -0.933892518993421E+00         -0.206511282972513E+01
  |    4         -0.219130442723275E+01         -0.228600918876926E+01          0.136579223945069E+01
  |    5          0.167151995401533E+01         -0.221843500789659E+01          0.175111429128989E+01
  |    6         -0.708138392821311E+00          0.304596461478988E+01         -0.195059643456973E+00
  |    7          0.849616859386190E+00          0.318720571859753E+01          0.765763288613157E-02
  |    8         -0.714643397497267E+00          0.123642518649378E+00         -0.802623584002789E+00
  |    9         -0.281971704670866E+00         -0.145600354913882E+00          0.997592901361839E+00
  |   10          0.393726576081215E+00          0.953789536929710E+00         -0.325617500882652E+01
  |   11         -0.120120364889968E+00         -0.301597211714146E+01          0.870369472957603E+00
  |   12          0.102025379904949E+01          0.252237077994437E+00         -0.377176667776641E+00

  ------------------------------------ 
  Start decomposition of the XC Energy 
  ------------------------------------ 
  X and C from original XC functional choice 
  Hartree-Fock Energy :          0.000000000 Ha              0.000000000 eV
  X Energy            :       -140.214487226 Ha          -3815.430324365 eV
  C Energy            :         -4.936145628 Ha           -134.319356619 eV
  Total XC Energy     :       -145.150632853 Ha          -3949.749680985 eV
  ------------------------------------ 
  LDA X and C from self-consistent density 
  X Energy LDA        :       -132.782379843 Ha          -3613.192392727 eV
  C Energy LDA        :         -8.823658792 Ha           -240.103972080 eV
  ------------------------------------ 
  End decomposition of the XC Energy 
  ------------------------------------ 

------------------------------------------------------------

------------------------------------------------------------------------------
  Final output of selected total energy values:

  The following output summarizes some interesting total energy values
  at the end of a run (AFTER all relaxation, molecular dynamics, etc.).

  | Total energy of the DFT / Hartree-Fock s.c.f. calculation      :         -44220.917424671 eV
  | Final zero-broadening corrected energy (caution - metals only) :         -44220.917424671 eV
  | For reference only, the value of 1 Hartree used in FHI-aims is :             27.211384500 eV

  Before relying on these values, please be sure to understand exactly which
  total energy value is referred to by a given number. Different objects may
  all carry the same name 'total energy'. Definitions:

  Total energy of the DFT / Hartree-Fock s.c.f. calculation:
  | Note that this energy does not include ANY quantities calculated after the
  | s.c.f. cycle, in particular not ANY RPA, MP2, etc. many-body perturbation terms.

  Final zero-broadening corrected energy:
  | For metallic systems only, a broadening of the occupation numbers at the Fermi
  | level can be extrapolated back to zero broadening by an electron-gas inspired
  | formula. For all systems that are not real metals, this value can be
  | meaningless and should be avoided.

------------------------------------------------------------------------------
  Methods described in the following list of references were used in this FHI-aims run.
  If you publish the results, please make sure to cite these reference if they apply.
  FHI-aims is an academic code, and for our developers (often, Ph.D. students
  and postdocs), scientific credit in the community is essential.
  Thank you for helping us!

  For any use of FHI-aims, please cite:

    Volker Blum, Ralf Gehrke, Felix Hanke, Paula Havu, Ville Havu,
    Xinguo Ren, Karsten Reuter, and Matthias Scheffler
    'Ab initio molecular simulations with numeric atom-centered orbitals'
    Computer Physics Communications 180, 2175-2196 (2009)
    http://dx.doi.org/10.1016/j.cpc.2009.06.022


  The ELSI infrastructure was used in your run to solve the Kohn-Sham electronic structure.
  Please check out http://elsi-interchange.org to learn more.
  If scalability is important for your project, please acknowledge ELSI by citing:

    V. W-z. Yu, F. Corsetti, A. Garcia, W. P. Huhn, M. Jacquelin, W. Jia,
    B. Lange, L. Lin, J. Lu, W. Mi, A. Seifitokaldani, A. Vazquez-Mayagoitia,
    C. Yang, H. Yang, and V. Blum
    'ELSI: A unified software interface for Kohn-Sham electronic structure solvers'
    Computer Physics Communications 222, 267-285 (2018).
    http://dx.doi.org/10.1016/j.cpc.2017.09.007


  For the real-space grid partitioning and parallelization used in this calculation, please cite:

    Ville Havu, Volker Blum, Paula Havu, and Matthias Scheffler,
    'Efficient O(N) integration for all-electron electronic structure calculation'
    'using numerically tabulated basis functions'
    Journal of Computational Physics 228, 8367-8379 (2009).
    http://dx.doi.org/10.1016/j.jcp.2009.08.008

  Of course, there are many other important community references, e.g., those cited in the
  above references. Our list is limited to references that describe implementations in the
  FHI-aims code. The reason is purely practical (length of this list) - please credit others as well.

------------------------------------------------------------
          Leaving FHI-aims.
          Date     :  20220517, Time     :  114322.174

          Computational steps:
          | Number of self-consistency cycles          :           14
          | Number of SCF (re)initializations          :            1

          Detailed time accounting                     :  max(cpu_time)    wall_clock(cpu1)
          | Total time                                  :        1.943 s           2.007 s
          | Preparation time                            :        0.184 s           0.183 s
          | Boundary condition initalization            :        0.000 s           0.000 s
          | Grid partitioning                           :        0.035 s           0.035 s
          | Preloading free-atom quantities on grid     :        0.016 s           0.017 s
          | Free-atom superposition energy              :        0.005 s           0.004 s
          | Total time for integrations                 :        0.467 s           0.469 s
          | Total time for solution of K.-S. equations  :        0.067 s           0.065 s
          | Total time for density & force components   :        0.653 s           0.651 s
          | Total time for mixing                       :        0.060 s           0.026 s
          | Total time for Hartree multipole update     :        0.018 s           0.019 s
          | Total time for Hartree multipole sum        :        0.320 s           0.320 s
          | Total time for total energy evaluation      :        0.002 s           0.002 s
          | Total time NSC force correction             :        0.063 s           0.064 s
          | Total time for scaled ZORA corrections      :        0.000 s           0.000 s

          Partial memory accounting:
          | Residual value for overall tracked memory usage across tasks:     0.000000 MB (should be 0.000000 MB)
          | Peak values for overall tracked memory usage:
          |   Minimum:        2.970 MB (on task 13 after allocating hessian_basis_wave)
          |   Maximum:        3.125 MB (on task  3 after allocating hessian_basis_wave)
          |   Average:        3.058 MB
          | Largest tracked array allocation:
          |   Minimum:        1.445 MB (hessian_basis_wave on task 13)
          |   Maximum:        1.543 MB (hessian_basis_wave on task  3)
          |   Average:        1.500 MB
          Note:  These values currently only include a subset of arrays which are explicitly tracked.
          The "true" memory usage will be greater.

          Have a nice day.
------------------------------------------------------------
