********************************************************************************
*                       GENERAL UTILITY LATTICE PROGRAM                        *
*                                 Julian Gale                                  *
*                       Curtin Institute for Computation                       *
*                           Department of Chemistry                            *
*                    Curtin University, Western Australia                      *
********************************************************************************
* Version = 5.1.1 * Last modified =  11th January 2019                         *
********************************************************************************
*  optimise     - perform optimisation run                                     *
*  conp         - constant pressure calculation                                *
*  property     - calculate properties for final geometry                      *
*  phonon       - calculate phonons for final geometry                         *
*  eigenvectors - output phonon eigenvectors                                   *
*  conjugate    - use conjugate gradients minimiser                            *
********************************************************************************

  Job Started  at 10:31.29 17th May        2022                               

  Number of CPUs =     1

  Host name      = login04                                 


  Total number of configurations input =      1

********************************************************************************
*  Input for Configuration =   1                                               *
********************************************************************************

  Formula = Al3F9                                                       

  Number of irreducible atoms/shells =      21


  Total number atoms/shells =      21

  Dimensionality = 0               :  Cluster


  Charge on cluster =  -0.000000


  Initial cluster dipoles : x =      0.261319 e.Angs
                            y =      0.051860 e.Angs
                            z =     -0.242307 e.Angs

  Temperature of configuration =  0.000     K 

  Symmetry number =      1

  Cartesian coordinates of cluster :

--------------------------------------------------------------------------------
   No.  Atomic       x           y          z         Charge      Occupancy
        Label      (Angs)      (Angs)     (Angs)        (e)         (Frac)  
--------------------------------------------------------------------------------
      1 Al    c     -0.3640      1.0333     -1.8195     3.00000    1.000000    
      2 Al    c     -0.4488 *    1.0741 *    1.2816 *   3.00000    1.000000    
      3 Al    c     -3.0199 *    0.4585 *   -1.8596 *   3.00000    1.000000    
      4 F     c     -3.5312 *    0.3148 *   -3.6007 *   0.59000    1.000000    
      5 F     c     -1.3772 *   -0.5621 *   -1.8427 *   0.59000    1.000000    
      6 F     c     -1.9452 *    2.0662 *   -1.8928 *   0.59000    1.000000    
      7 F     c     -2.0349 *    0.7156 *    0.4552 *   0.59000    1.000000    
      8 F     c      0.5960 *    1.2699 *   -0.2945 *   0.59000    1.000000    
      9 F     c     -0.3030 *    2.7389 *    1.9910 *   0.59000    1.000000    
     10 F     c      0.3657 *   -0.3549 *    2.0500 *   0.59000    1.000000    
     11 F     c     -4.2771 *    0.2112 *   -0.5820 *   0.59000    1.000000    
     12 F     c      0.7474 *    1.2465 *   -3.2336 *   0.59000    1.000000    
     13 F     s     -3.5312 *    0.3148 *   -3.6007 *  -1.59000    1.000000    
     14 F     s     -1.3772 *   -0.5621 *   -1.8427 *  -1.59000    1.000000    
     15 F     s     -1.9452 *    2.0662 *   -1.8928 *  -1.59000    1.000000    
     16 F     s     -2.0349 *    0.7156 *    0.4552 *  -1.59000    1.000000    
     17 F     s      0.5960 *    1.2699 *   -0.2945 *  -1.59000    1.000000    
     18 F     s     -0.3030 *    2.7389 *    1.9910 *  -1.59000    1.000000    
     19 F     s      0.3657 *   -0.3549 *    2.0500 *  -1.59000    1.000000    
     20 F     s     -4.2771 *    0.2112 *   -0.5820 *  -1.59000    1.000000    
     21 F     s      0.7474 *    1.2465 *   -3.2336 *  -1.59000    1.000000    
--------------------------------------------------------------------------------


  Brillouin zone sampling points :

--------------------------------------------------------------------------------
  Point number          x          y          z            Weight
--------------------------------------------------------------------------------
        1           0.000000   0.000000   0.000000     1.00000000
--------------------------------------------------------------------------------


********************************************************************************
*  General input information                                                   *
********************************************************************************

  Species output for all configurations : 

--------------------------------------------------------------------------------
  Species    Type    Atomic    Atomic    Charge       Radii (Angs)     Library
                     Number     Mass       (e)     Cova   Ionic  VDW   Symbol
--------------------------------------------------------------------------------
    Al       Core       13      26.98   3.000000   1.350  0.000  2.050          
    F        Core        9      19.00   0.590000   0.710  0.000  1.300          
    F        Shell       9       0.00  -1.590000   0.710  0.000  1.300          
--------------------------------------------------------------------------------


  Accuracy factor for short range sums = 12.000

  Time limit = Infinity

  Maximum range for interatomic potentials =    100000.000000 Angstroms

  General interatomic potentials :

--------------------------------------------------------------------------------
Atom  Types   Potential      Parameter       Value         Units   Cutoffs(Ang)
  1     2                                                            Min /  Max 
--------------------------------------------------------------------------------
Al   c F    s Buckingham    Buckingham A     3760.0008    eV        0.000 10.000
                            Buckingham rho  0.22200000    Ang       
                            Buckingham C     0.0000000    eV*Ang^6  
--------------------------------------------------------------------------------
F    s F    s Buck 4 range  Buck4 A          1127.7000    eV        0.000 12.000
                            Buck4 rho       0.27530000    Ang       
                            Buck4 C          15.830000    eV*Ang^6  
                            Buck4 minimum    2.7900000    Ang       
--------------------------------------------------------------------------------
F    c F    s Spring (c-s)  Spring k 2       20.770000    eV*Ang^-2 0.000  0.800
                            Spring k 4       0.0000000    eV*Ang^-4 
--------------------------------------------------------------------------------

********************************************************************************
*  Output for configuration   1                                                *
********************************************************************************


  Components of energy : 

--------------------------------------------------------------------------------
  Interatomic potentials     =          10.51184057 eV    
  Monopole - monopole (real) =        -179.26784396 eV    
--------------------------------------------------------------------------------
  Total lattice energy       =        -168.75600338 eV    
--------------------------------------------------------------------------------
  Total lattice energy       =          -16282.3747 kJ/mol
--------------------------------------------------------------------------------


  Number of variables =       60

  Maximum number of calculations  =          2000
  Maximum Hessian update interval =            10
  Maximum step size               =   1.000000000
  Maximum parameter tolerance     =   0.000001000
  Maximum function  tolerance     =   0.000010000
  Maximum gradient  tolerance     =   0.000000010
  Maximum gradient  component     =   0.010000000

  Symmetry not applied to optimisation

  Cell parameters to be optimised using strains

  Conjugate gradient optimiser to be used

  Lower half triangular hessian to be used

  Minimiser to switch to RFO
  When gradient norm is less than     0.010000

  Start of cluster optimisation :

  Cycle:      0 Energy:      -168.756003  Gnorm:      0.739832  CPU:    0.008
  Cycle:      1 Energy:      -179.225773  Gnorm:      0.468750  CPU:    0.008
  Cycle:      2 Energy:      -181.558468  Gnorm:      0.382384  CPU:    0.008
  Cycle:      3 Energy:      -183.571617  Gnorm:      0.281785  CPU:    0.009
  Cycle:      4 Energy:      -184.553548  Gnorm:      0.217665  CPU:    0.009
  Cycle:      5 Energy:      -185.175009  Gnorm:      0.166058  CPU:    0.009
  Cycle:      6 Energy:      -185.534211  Gnorm:      0.130435  CPU:    0.009
  Cycle:      7 Energy:      -185.763847  Gnorm:      0.104636  CPU:    0.009
  Cycle:      8 Energy:      -185.915752  Gnorm:      0.086696  CPU:    0.010
  Cycle:      9 Energy:      -186.023950  Gnorm:      0.074018  CPU:    0.010
  Cycle:     10 Energy:      -186.115233  Gnorm:      0.063658  CPU:    0.010
  Cycle:     11 Energy:      -186.175740  Gnorm:      0.057451  CPU:    0.010
  Cycle:     12 Energy:      -186.227802  Gnorm:      0.052244  CPU:    0.011
  Cycle:     13 Energy:      -186.271165  Gnorm:      0.048009  CPU:    0.011
  Cycle:     14 Energy:      -186.308184  Gnorm:      0.044378  CPU:    0.011
  Cycle:     15 Energy:      -186.340005  Gnorm:      0.041183  CPU:    0.011
  Cycle:     16 Energy:      -186.367524  Gnorm:      0.038316  CPU:    0.012
  Cycle:     17 Energy:      -186.391407  Gnorm:      0.035708  CPU:    0.012
  Cycle:     18 Energy:      -186.412187  Gnorm:      0.033316  CPU:    0.012
  Cycle:     19 Energy:      -186.430300  Gnorm:      0.031110  CPU:    0.012
  Cycle:     20 Energy:      -186.447110  Gnorm:      0.028933  CPU:    0.012
  Cycle:     21 Energy:      -186.460675  Gnorm:      0.027065  CPU:    0.013
  Cycle:     22 Energy:      -186.472669  Gnorm:      0.025309  CPU:    0.013
  Cycle:     23 Energy:      -186.483149  Gnorm:      0.023679  CPU:    0.013
  Cycle:     24 Energy:      -186.492328  Gnorm:      0.022160  CPU:    0.013
  Cycle:     25 Energy:      -186.500371  Gnorm:      0.020746  CPU:    0.014
  Cycle:     26 Energy:      -186.507423  Gnorm:      0.019429  CPU:    0.014
  Cycle:     27 Energy:      -186.513611  Gnorm:      0.018201  CPU:    0.014
  Cycle:     28 Energy:      -186.519043  Gnorm:      0.017056  CPU:    0.014
  Cycle:     29 Energy:      -186.523816  Gnorm:      0.015989  CPU:    0.015
  Cycle:     30 Energy:      -186.528265  Gnorm:      0.014931  CPU:    0.015
  Cycle:     31 Energy:      -186.531898  Gnorm:      0.014014  CPU:    0.015
  Cycle:     32 Energy:      -186.535128  Gnorm:      0.013151  CPU:    0.015
  Cycle:     33 Energy:      -186.537971  Gnorm:      0.012347  CPU:    0.015
  Cycle:     34 Energy:      -186.540478  Gnorm:      0.011596  CPU:    0.016
  Cycle:     35 Energy:      -186.542691  Gnorm:      0.010896  CPU:    0.016
  Cycle:     36 Energy:      -186.544646  Gnorm:      0.010242  CPU:    0.016
  Cycle:     37 Energy:      -186.546375  Gnorm:      0.009633  CPU:    0.016
  ** Hessian has required structure
  Cycle:     38 Energy:      -186.548508  Gnorm:      0.008966  CPU:    0.021
  ** Hessian has required structure
  Cycle:     39 Energy:      -186.551084  Gnorm:      0.008086  CPU:    0.021
  ** Hessian has required structure
  Cycle:     40 Energy:      -186.554938  Gnorm:      0.006543  CPU:    0.022
  ** Hessian has required structure
  Cycle:     41 Energy:      -186.558740  Gnorm:      0.004514  CPU:    0.023
  ** Hessian has required structure
  Cycle:     42 Energy:      -186.561740  Gnorm:      0.001580  CPU:    0.023
  ** Hessian has required structure
  Cycle:     43 Energy:      -186.562153  Gnorm:      0.000019  CPU:    0.024
  ** Hessian has required structure
  Cycle:     44 Energy:      -186.562153  Gnorm:      0.000001  CPU:    0.024
  ** Hessian has required structure
  Cycle:     45 Energy:      -186.562153  Gnorm:      0.000000  CPU:    0.025
  ** Hessian has required structure
  Cycle:     46 Energy:      -186.562153  Gnorm:      0.000000  CPU:    0.026
  ** Hessian has required structure
  Cycle:     47 Energy:      -186.562153  Gnorm:      0.000000  CPU:    0.026
  ** Hessian has required structure
  Cycle:     48 Energy:      -186.562153  Gnorm:      0.000000  CPU:    0.027
  ** Hessian calculated **

  XYZ File written as 003/003_eig.xyz



  **** Optimisation achieved ****


  Final energy =    -186.56215295 eV
  Final Gnorm  =       0.00000001

  Components of energy : 

--------------------------------------------------------------------------------
  Interatomic potentials     =          38.46386366 eV    
  Monopole - monopole (real) =        -225.02601660 eV    
--------------------------------------------------------------------------------
  Total lattice energy       =        -186.56215295 eV    
--------------------------------------------------------------------------------
  Total lattice energy       =          -18000.3959 kJ/mol
--------------------------------------------------------------------------------

  Final cartesian coordinates of atoms :

--------------------------------------------------------------------------------
   No.  Atomic        x           y          z          Radius
        Label       (Angs)      (Angs)     (Angs)       (Angs) 
--------------------------------------------------------------------------------
     1  Al    c    -0.364025    1.033292   -1.819473    0.000000
     2  Al    c    -0.447877    1.074316    1.281665    0.000000
     3  Al    c    -3.019922    0.458553   -1.858813    0.000000
     4  F     c    -3.531707    0.314743   -3.599728    0.000000
     5  F     c    -1.377200   -0.562137   -1.842284    0.000000
     6  F     c    -1.945233    2.066201   -1.892413    0.000000
     7  F     c    -2.034258    0.715718    0.455725    0.000000
     8  F     c     0.596416    1.269941   -0.294771    0.000000
     9  F     c    -0.301817    2.739126    1.990848    0.000000
    10  F     c     0.366811   -0.354683    2.049852    0.000000
    11  F     c    -4.276744    0.211306   -0.580802    0.000000
    12  F     c     0.747013    1.246432   -3.233906    0.000000
    13  F     s    -3.449326    0.337486   -3.340788    0.000000
    14  F     s    -1.416262   -0.278227   -1.836338    0.000000
    15  F     s    -1.863657    1.791909   -1.875821    0.000000
    16  F     s    -1.806669    0.765663    0.495544    0.000000
    17  F     s     0.346992    1.214868   -0.356028    0.000000
    18  F     s    -0.323443    2.493401    1.881810    0.000000
    19  F     s     0.246537   -0.143951    1.932109    0.000000
    20  F     s    -4.082821    0.249396   -0.781114    0.000000
    21  F     s     0.572441    1.213015   -3.007849    0.000000
--------------------------------------------------------------------------------


  Final Cartesian derivatives :

--------------------------------------------------------------------------------
   No.  Atomic          x             y             z           Radius
        Label       (eV/Angs)     (eV/Angs)    (eV/Angs)      (eV/Angs)
--------------------------------------------------------------------------------
      1 Al    c       0.000000      0.000000      0.000000      0.000000
      2 Al    c      -0.000000      0.000000     -0.000000      0.000000
      3 Al    c       0.000000      0.000000     -0.000001      0.000000
      4 F     c      -0.000000     -0.000000      0.000000      0.000000
      5 F     c       0.000000      0.000000      0.000000      0.000000
      6 F     c      -0.000000      0.000000      0.000000      0.000000
      7 F     c      -0.000000      0.000000     -0.000000      0.000000
      8 F     c      -0.000000      0.000000      0.000000      0.000000
      9 F     c       0.000000     -0.000000     -0.000000      0.000000
     10 F     c       0.000000      0.000000     -0.000000      0.000000
     11 F     c       0.000000      0.000000      0.000000      0.000000
     12 F     c       0.000000     -0.000000      0.000000      0.000000
     13 F     s      -0.000000     -0.000000      0.000000      0.000000
     14 F     s      -0.000000      0.000000     -0.000000      0.000000
     15 F     s      -0.000000     -0.000000     -0.000000      0.000000
     16 F     s       0.000000      0.000000      0.000000      0.000000
     17 F     s      -0.000000      0.000000      0.000000      0.000000
     18 F     s       0.000000     -0.000000     -0.000000      0.000000
     19 F     s       0.000000     -0.000000     -0.000000      0.000000
     20 F     s       0.000000      0.000000      0.000000      0.000000
     21 F     s       0.000000      0.000000     -0.000000      0.000000
--------------------------------------------------------------------------------
  Maximum abs         0.000000      0.000000      0.000001      0.000000
--------------------------------------------------------------------------------


  Born effective charge tensors : 

-------------------------------------------------------------------------------
  Atom             x           y             z
-------------------------------------------------------------------------------
    1 Al    x       1.0225     -0.0243      0.1946
            y      -0.0259      1.1474      0.0386
            z       0.1133      0.0210      0.9694
-------------------------------------------------------------------------------
    2 Al    x       0.9156      0.1096     -0.3560
            y       0.1086      0.3994     -0.0581
            z      -0.4085     -0.0695      1.3642
-------------------------------------------------------------------------------
    3 Al    x       1.3140     -0.0123      0.2828
            y      -0.0104      1.3944      0.0477
            z       0.3832      0.0694      0.6941
-------------------------------------------------------------------------------
    4 F     x      -0.5344      0.0023      0.1434
            y       0.0011     -0.5315      0.0410
            z       0.0782      0.0269     -0.0064
-------------------------------------------------------------------------------
    5 F     x      -0.3617      0.0407     -0.0106
            y       0.0760     -0.2219     -0.0100
            z      -0.0115     -0.0111     -0.3418
-------------------------------------------------------------------------------
    6 F     x      -0.2938     -0.0739     -0.0108
            y      -0.1092     -0.2893      0.0019
            z      -0.0107      0.0028     -0.3423
-------------------------------------------------------------------------------
    7 F     x      -0.2050      0.0394      0.1615
            y       0.0405     -0.3639      0.0299
            z       0.2171      0.0419     -0.6381
-------------------------------------------------------------------------------
    8 F     x      -0.3160     -0.0096      0.0992
            y      -0.0084     -0.2643      0.0210
            z       0.1628      0.0347     -0.2867
-------------------------------------------------------------------------------
    9 F     x      -0.5258      0.0409      0.0194
            y       0.0357     -0.0472      0.1683
            z      -0.0007      0.2127     -0.5022
-------------------------------------------------------------------------------
   10 F     x      -0.4168     -0.2030      0.0953
            y      -0.1981     -0.1705     -0.1589
            z       0.0952     -0.2077     -0.4879
-------------------------------------------------------------------------------
   11 F     x      -0.2762      0.0512     -0.3172
            y       0.0515     -0.5312     -0.0627
            z      -0.3010     -0.0592     -0.2334
-------------------------------------------------------------------------------
   12 F     x      -0.3224      0.0388     -0.3017
            y       0.0385     -0.5213     -0.0587
            z      -0.3172     -0.0621     -0.1889
-------------------------------------------------------------------------------




  Moment of inertia tensor (10^-46 x kgm^2): 

-------------------------------------------------------------------------------
                x           y           z           Principal axis system
-------------------------------------------------------------------------------
       x        166.98      -17.27      -40.13          105.050625
       y        -17.27      239.43      -10.74          192.764289
       z        -40.13      -10.74      134.77          243.372411
-------------------------------------------------------------------------------
  Centre of mass (Ang) =    -1.296977     0.851478    -0.780594
-------------------------------------------------------------------------------


  Vibrational Frequency Calculation : 

--------------------------------------------------------------------------------

  Frequencies (cm-1) and Eigenvectors : 

  Frequency      -0.0145   -0.0000   -0.0000    0.0000    0.0045    0.0071
  IR Intensity    0.0003    0.0000    0.0000    0.0000    0.0001    0.0000
     in X         0.0000    0.0000    0.0000    0.0000    0.0001    0.0000
     in Y         0.0003    0.0000    0.0000    0.0000    0.0000    0.0000
     in Z         0.0000    0.0000    0.0000    0.0000    0.0001    0.0000
  Raman Intsty    0.0000    0.0000    0.0000    0.0000    0.0000    0.0000

     1 x       0.052683  0.281290 -0.103462 -0.131378 -0.140575 -0.003151
     1 y      -0.279623 -0.056438 -0.300745  0.116001 -0.013492 -0.042839
     1 z      -0.001625  0.157413  0.077054  0.276356 -0.128603 -0.010327
     2 x      -0.006985  0.281292 -0.103462 -0.131377  0.279813 -0.046353
     2 y       0.103491 -0.056439 -0.300745  0.116002  0.023250  0.328462
     2 z      -0.008307  0.157413  0.077054  0.276356 -0.117722 -0.016407
     3 x      -0.042561  0.281290 -0.103462 -0.131378 -0.146659  0.049146
     3 y       0.159724 -0.056438 -0.300745  0.116001 -0.010483 -0.286996
     3 z       0.009804  0.157415  0.077054  0.276356  0.238172  0.026054
     4 x      -0.024552  0.236053 -0.086823 -0.110250 -0.321250  0.070729
     4 y       0.031960 -0.047362 -0.252379  0.097346 -0.025492 -0.458026
     4 z       0.013378  0.132100  0.064662  0.231913  0.259507  0.031137
     5 x      -0.179217  0.236054 -0.086823 -0.110250 -0.122313  0.118258
     5 y      -0.094785 -0.047362 -0.252379  0.097346 -0.010436 -0.114912
     5 z       0.139746  0.132099  0.064662  0.231913  0.023137  0.144067
     6 x       0.190441  0.236054 -0.086823 -0.110250 -0.125130 -0.079981
     6 y      -0.020097 -0.047362 -0.252379  0.097346 -0.010309 -0.163010
     6 z      -0.132995  0.132099  0.064662  0.231913  0.061693 -0.131464
     7 x      -0.041304  0.236055 -0.086823 -0.110249  0.140475 -0.002949
     7 y       0.226922 -0.047362 -0.252379  0.097346  0.013065  0.070989
     7 z       0.000287  0.132099  0.064662  0.231913  0.085206  0.006036
     8 x       0.049964  0.236054 -0.086823 -0.110249  0.055718 -0.036841
     8 y      -0.217119 -0.047362 -0.252379  0.097346  0.002738  0.193000
     8 z      -0.007710  0.132098  0.064662  0.231913 -0.219512 -0.022660
     9 x       0.214943  0.236055 -0.086823 -0.110249  0.317307 -0.172386
     9 y       0.137188 -0.047362 -0.252379  0.097346  0.026380  0.359391
     9 z      -0.170621  0.132098  0.064662  0.231913 -0.131906 -0.182884
    10 x      -0.220179  0.236055 -0.086823 -0.110249  0.320622  0.060962
    10 y       0.049273 -0.047362 -0.252379  0.097346  0.026231  0.416007
    10 z       0.150422  0.132098  0.064662  0.231913 -0.177291  0.141442
    11 x      -0.093413  0.236054 -0.086823 -0.110249  0.022022  0.046279
    11 y       0.438015 -0.047362 -0.252379  0.097346  0.005251 -0.204870
    11 z       0.010296  0.132100  0.064662  0.231913  0.345276  0.033776
    12 x       0.099578  0.236053 -0.086823 -0.110250 -0.278617 -0.003643
    12 y      -0.531805 -0.047362 -0.252379  0.097346 -0.026562 -0.096933
    12 z      -0.002651  0.132098  0.064662  0.231912 -0.236408 -0.018640


  Frequency      24.9860   46.7571   53.2082   71.5979  105.8987  154.4212
  IR Intensity    0.0017    0.0076    0.0013    0.0023    0.0023    0.0219
     in X         0.0001    0.0072    0.0001    0.0001    0.0018    0.0138
     in Y         0.0016    0.0003    0.0013    0.0022    0.0001    0.0007
     in Z         0.0000    0.0000    0.0000    0.0000    0.0004    0.0074
  Raman Intsty    0.0000    0.1560    0.0000    0.0000    0.0035    0.0098

     1 x      -0.022891  0.190051 -0.004463  0.020915 -0.042386  0.055126
     1 y       0.105921  0.035626  0.020654 -0.096775 -0.009835  0.013361
     1 z      -0.002020 -0.285627 -0.000395  0.001846 -0.035382  0.075886
     2 x      -0.006539 -0.209709 -0.018617 -0.022221 -0.023570  0.044341
     2 y       0.030256 -0.049040  0.086137  0.102822 -0.004145  0.009775
     2 z      -0.000577 -0.194906 -0.001644 -0.001961  0.049748  0.010076
     3 x       0.019014  0.150610  0.004367 -0.014205 -0.006231  0.129645
     3 y      -0.087978  0.041335 -0.020205  0.065725 -0.002546  0.028909
     3 z       0.001678  0.460597  0.000388 -0.001254 -0.062873  0.046667
     4 x       0.083858  0.159377 -0.060871 -0.079362  0.489988  0.156294
     4 y      -0.388018  0.041409  0.281659  0.367213  0.101828  0.034358
     4 z       0.007401  0.365218 -0.005370 -0.007004 -0.213274  0.030411
     5 x       0.075672  0.164566 -0.002012 -0.082214 -0.029209  0.087651
     5 y       0.023870  0.030670  0.011941 -0.022263 -0.016539 -0.016156
     5 z       0.205989  0.074388  0.002215  0.027873  0.287299  0.039078
     6 x      -0.077153  0.161960 -0.003077  0.084289 -0.035693  0.072854
     6 y      -0.017018  0.042731  0.011617  0.012661  0.013461  0.052310
     6 z      -0.206120  0.074159 -0.002664 -0.027690  0.286727  0.037772
     7 x      -0.091938 -0.249185 -0.072661 -0.004032 -0.190919  0.195612
     7 y       0.425407 -0.053392  0.336206  0.018657 -0.034505  0.037320
     7 z      -0.008113  0.024308 -0.006412 -0.000356  0.354256 -0.259868
     8 x      -0.050010 -0.083417  0.049143 -0.083687 -0.099447  0.189798
     8 y       0.231400 -0.019580 -0.227389  0.387226 -0.021692  0.041287
     8 z      -0.004413 -0.081461  0.004336 -0.007385 -0.010454  0.014136
     9 x       0.293337 -0.186737  0.328748 -0.188921  0.218208 -0.273210
     9 y      -0.154491 -0.035015  0.102774 -0.023718  0.029656 -0.040211
     9 z       0.355150 -0.175988 -0.139064  0.286440 -0.079424  0.178959
    10 x      -0.200597 -0.183142 -0.342942  0.184113  0.211607 -0.266841
    10 y      -0.274629 -0.051630 -0.037110  0.045967  0.060194 -0.069667
    10 z      -0.346966 -0.175673  0.137810 -0.286864 -0.080006  0.179520
    11 x      -0.016377 -0.151722  0.142246  0.070090 -0.202284  0.136429
    11 y       0.075777 -0.030708 -0.658186 -0.324310 -0.048766  0.030680
    11 z      -0.001445  0.109003  0.012554  0.006185 -0.264735  0.062687
    12 x      -0.004380  0.212252 -0.016274  0.118208 -0.276231 -0.571605
    12 y       0.020267  0.042243  0.075309 -0.546960 -0.063944 -0.131940
    12 z      -0.000387 -0.190198 -0.001437  0.010432 -0.222588 -0.440741


  Frequency     169.7907  181.9555  187.0220  198.6071  205.7503  226.8431
  IR Intensity    0.0041    0.0197    0.0305    0.0035    0.0008    0.0537
     in X         0.0002    0.0007    0.0014    0.0000    0.0000    0.0273
     in Y         0.0040    0.0000    0.0292    0.0000    0.0008    0.0015
     in Z         0.0000    0.0190    0.0000    0.0035    0.0000    0.0248
  Raman Intsty    0.0000    0.2821    0.0000    0.0199    0.0000    0.0095

     1 x       0.044317 -0.152837  0.100591 -0.056145  0.004988  0.216050
     1 y      -0.205059 -0.028515 -0.465446 -0.015280 -0.023080  0.050112
     1 z       0.003911  0.236699  0.008878 -0.164970  0.000440  0.179319
     2 x      -0.007619  0.193129 -0.043511  0.124326  0.038095 -0.047347
     2 y       0.035254  0.039171  0.201334  0.024673 -0.176270 -0.007682
     2 z      -0.000673 -0.134576 -0.003840 -0.115132  0.003362  0.133761
     3 x      -0.017525 -0.100071  0.023491 -0.083798 -0.023289  0.139884
     3 y       0.081089 -0.018963 -0.108694 -0.014456  0.107762  0.029848
     3 z      -0.001546  0.139708  0.002073  0.191615 -0.002055 -0.020124
     4 x      -0.009994  0.244813 -0.048492  0.106530 -0.031708 -0.509939
     4 y       0.046245  0.053273  0.224379  0.025132  0.146717 -0.106649
     4 z      -0.000882  0.019118 -0.004279  0.110542 -0.002798  0.186585
     5 x      -0.110086 -0.094136 -0.050614 -0.042666 -0.084106  0.153314
     5 y      -0.099045 -0.052267 -0.345790 -0.015878  0.011348  0.076020
     5 z       0.216717  0.153061 -0.100806 -0.089819  0.569126  0.017208
     6 x       0.142856 -0.108520  0.188048 -0.044707  0.076398  0.170882
     6 y      -0.052591  0.014286 -0.290134 -0.006435  0.024314 -0.005269
     6 z      -0.213825  0.151792  0.112936 -0.089999 -0.569806  0.018758
     7 x      -0.077248  0.257619  0.023092  0.165654  0.057195 -0.007915
     7 y       0.357435  0.050249 -0.106846  0.032081 -0.264647 -0.001089
     7 z      -0.006817 -0.284538  0.002037 -0.195047  0.005047  0.032592
     8 x       0.104275  0.293813 -0.061072 -0.001538 -0.056262  0.161673
     8 y      -0.482492  0.062920  0.282589 -0.003364  0.260329  0.038929
     8 z       0.009202 -0.030302 -0.005390 -0.158966 -0.004965  0.209120
     9 x      -0.364714 -0.157420  0.166034  0.153247  0.039108  0.056353
     9 y      -0.024667  0.133883  0.108512 -0.196995 -0.081396  0.084906
     9 z       0.198889 -0.284499  0.123800  0.394995 -0.190827 -0.103882
    10 x       0.343926 -0.085868 -0.195042  0.055144 -0.003521  0.087193
    10 y       0.120861 -0.197194  0.025704  0.256933 -0.083270 -0.057794
    10 z      -0.200724 -0.278184 -0.126361  0.386338  0.193967 -0.101161
    11 x       0.008681 -0.291478 -0.029055 -0.490283  0.016270 -0.335773
    11 y      -0.040171 -0.064438  0.134437 -0.110474 -0.075280 -0.081966
    11 z       0.000766 -0.075727 -0.002564 -0.236695  0.001436 -0.492791
    12 x      -0.060542  0.012413 -0.088911  0.117227 -0.036962 -0.143512
    12 y       0.280140  0.009187  0.411398  0.025032  0.171026 -0.033219
    12 z      -0.005342  0.341105 -0.007846 -0.015905 -0.003262 -0.115527


  Frequency     229.4954  259.8452  262.5510  279.3247  316.6371  372.1957
  IR Intensity    0.0228    0.0824    0.0240    0.0160    0.0088    0.0072
     in X         0.0010    0.0140    0.0011    0.0136    0.0005    0.0058
     in Y         0.0217    0.0004    0.0229    0.0007    0.0000    0.0002
     in Z         0.0000    0.0680    0.0000    0.0018    0.0082    0.0012
  Raman Intsty    0.0000    0.0233    0.0000    0.0726    0.1212    0.4908

     1 x       0.050626  0.036006  0.026183  0.008383 -0.003843 -0.270496
     1 y      -0.234253  0.003623 -0.121149  0.002621 -0.004779 -0.057716
     1 z       0.004468 -0.218041  0.002310  0.042430 -0.207044  0.038997
     2 x      -0.004187  0.276222  0.074354 -0.332167  0.042506  0.108534
     2 y       0.019372  0.056271 -0.344041 -0.075151  0.015927  0.020663
     2 z      -0.000370 -0.179641  0.006561 -0.176374  0.353423 -0.146477
     3 x      -0.113191 -0.033878 -0.000628  0.042921  0.044608  0.331865
     3 y       0.523746 -0.011073  0.002906  0.007603  0.009505  0.072204
     3 z      -0.009989 -0.196690 -0.000056 -0.087720 -0.007125  0.025282
     4 x       0.104867 -0.294196 -0.001935 -0.136619 -0.032953 -0.058095
     4 y      -0.485225 -0.065777  0.008948 -0.030041 -0.006809 -0.008747
     4 z       0.009254 -0.115101 -0.000171 -0.027019  0.016375  0.199700
     5 x      -0.351345 -0.031781 -0.016203  0.017179  0.001352  0.152282
     5 y       0.088003  0.034842 -0.104286 -0.027414 -0.030767 -0.451873
     5 z      -0.124044  0.377192 -0.144194  0.364756  0.156399 -0.017158
     6 x       0.282694 -0.017532  0.056672  0.001458 -0.012701 -0.047704
     6 y       0.229647 -0.031087 -0.082967  0.045329  0.034257  0.473483
     6 z       0.117985  0.378449  0.147767  0.363369  0.155158 -0.034806
     7 x       0.024710  0.038255 -0.120188 -0.108789  0.416515 -0.051102
     7 y      -0.114334  0.013305  0.556121 -0.034071  0.085149 -0.008943
     7 z       0.002180  0.264199 -0.010606 -0.553640 -0.255188  0.110149
     8 x      -0.021945  0.166885 -0.084063  0.021684 -0.610463 -0.186581
     8 y       0.101541  0.030906  0.388967  0.005795 -0.131439 -0.043393
     8 z      -0.001937 -0.270540 -0.007419  0.058138  0.025885 -0.160914
     9 x       0.032791 -0.247875 -0.153976  0.232140 -0.037929 -0.013641
     9 y       0.010266 -0.029676 -0.191935 -0.210546  0.216738 -0.048160
     9 z       0.009936  0.126223 -0.308296 -0.009721 -0.033479  0.009292
    10 x      -0.034025 -0.239006  0.217043  0.124592  0.055189 -0.032378
    10 y      -0.004555 -0.070718 -0.099885  0.287091 -0.214128  0.038538
    10 z      -0.010044  0.127005  0.313862 -0.019212 -0.025262  0.007639
    11 x       0.060023  0.063072 -0.005646  0.164661 -0.007608  0.185518
    11 y      -0.277730  0.011553  0.026128  0.036180 -0.003066  0.035046
    11 z       0.005297 -0.108967 -0.000499  0.031146 -0.074570 -0.264667
    12 x      -0.018226  0.230486 -0.010759  0.018383  0.129369 -0.150762
    12 y       0.084331  0.048474  0.049786  0.005047  0.025456 -0.027839
    12 z      -0.001608 -0.070183 -0.000950  0.056326 -0.131258  0.248714


  Frequency     467.6118  483.8921  489.4569  523.8890  576.3163  585.6192
  IR Intensity    0.0229    0.0368    0.0445    0.0211    0.0283    0.0603
     in X         0.0027    0.0347    0.0020    0.0098    0.0148    0.0027
     in Y         0.0001    0.0016    0.0425    0.0004    0.0006    0.0576
     in Z         0.0202    0.0005    0.0000    0.0109    0.0129    0.0000
  Raman Intsty    2.1423    3.5016    0.0000    0.0956    0.2034    0.0000

     1 x      -0.009650 -0.044708 -0.025634 -0.138075 -0.036685 -0.138321
     1 y      -0.004970 -0.010737  0.118611 -0.030226 -0.008486  0.640023
     1 z      -0.151229 -0.056336 -0.002262 -0.020215 -0.029229 -0.012207
     2 x      -0.272565 -0.093778  0.000003 -0.134160 -0.302594  0.001302
     2 y      -0.051495 -0.017355 -0.000015 -0.025268 -0.059254 -0.006026
     2 z       0.388574  0.152675  0.000000  0.195368  0.322046  0.000115
     3 x       0.106098 -0.260407  0.136241  0.030022 -0.004581 -0.038229
     3 y       0.023453 -0.057281 -0.630399  0.006573 -0.000961  0.176888
     3 z       0.027465 -0.052600  0.012023  0.004462  0.001535 -0.003374
     4 x       0.044211 -0.098775 -0.003028  0.021314  0.000906  0.007071
     4 y       0.011785 -0.027749  0.014011  0.006353  0.000242 -0.032717
     4 z       0.116935 -0.335660 -0.000268  0.091562  0.002432  0.000624
     5 x      -0.281048  0.412435 -0.511625  0.152866  0.038675 -0.174745
     5 y      -0.261280 -0.270419  0.142446  0.315254  0.026096 -0.486474
     5 z      -0.014014  0.019045 -0.021373  0.009806 -0.009220 -0.010404
     6 x      -0.363722  0.263859  0.407010  0.269289  0.046070  0.359892
     6 y       0.121259  0.417055  0.341620 -0.223449 -0.008120 -0.370221
     6 z      -0.021310  0.005934  0.012141  0.020080 -0.008568  0.026743
     7 x      -0.089854 -0.038542 -0.003201 -0.170153  0.472263  0.004655
     7 y      -0.020732 -0.008850  0.014811 -0.039014  0.106984 -0.021540
     7 z      -0.068841 -0.027297 -0.000283 -0.117507  0.257962  0.000411
     8 x       0.444180  0.137406 -0.004898  0.017485  0.093999  0.004648
     8 y       0.093261  0.028140  0.022662 -0.008045  0.015792 -0.021508
     8 z      -0.143391 -0.081607 -0.000432 -0.619933 -0.237129  0.000410
     9 x       0.035085  0.015945 -0.001229  0.024812 -0.025609  0.003525
     9 y       0.187291  0.100325 -0.001940  0.196138 -0.416618  0.009076
     9 z       0.055789  0.029630 -0.002881  0.086546 -0.193472  0.005458
    10 x       0.108830  0.055704  0.001898  0.102883 -0.193783 -0.006914
    10 y      -0.153936 -0.083644 -0.001154 -0.165108  0.361540  0.006606
    10 z       0.062296  0.033138  0.002941  0.093436 -0.208313 -0.005757
    11 x       0.098014 -0.313170 -0.008700  0.073400  0.002869  0.004151
    11 y       0.019107 -0.061031  0.040257  0.014358  0.000314 -0.019210
    11 z      -0.108835  0.348707 -0.000767 -0.078933 -0.016025  0.000366
    12 x       0.214171  0.040474 -0.008033 -0.203266 -0.025633  0.006547
    12 y       0.042583  0.007908  0.037171 -0.038191 -0.004365 -0.030293
    12 z      -0.194186 -0.044011 -0.000709  0.300908  0.061572  0.000578


  Frequency     692.6786  733.1878  775.2664  795.6519  799.3043  838.2066
  IR Intensity    0.0891    0.0092    0.0081    0.0124    0.0033    0.0001
     in X         0.0657    0.0003    0.0002    0.0053    0.0001    0.0000
     in Y         0.0034    0.0000    0.0000    0.0002    0.0032    0.0000
     in Z         0.0200    0.0089    0.0079    0.0069    0.0000    0.0001
  Raman Intsty    0.0014    0.0100    0.0207    0.1312    0.0000    0.7167

     1 x      -0.365086  0.147766  0.334065  0.266597  0.002315  0.534079
     1 y      -0.083319  0.041526  0.075392  0.049114 -0.010713  0.112889
     1 z      -0.231579  0.502876  0.167464 -0.445793  0.000206 -0.132911
     2 x      -0.055111  0.251301 -0.421195  0.187069  0.156791  0.071036
     2 y      -0.012534  0.058064 -0.099133  0.044146 -0.725495  0.016594
     2 z      -0.032675  0.196778 -0.424997  0.195066  0.013835  0.065097
     3 x      -0.473982 -0.229093 -0.081847  0.134549  0.000526 -0.509089
     3 y      -0.106329 -0.054910 -0.023234  0.020591 -0.002439 -0.103835
     3 z      -0.204113 -0.283034 -0.290747 -0.444988  0.000048  0.324475
     4 x       0.141119  0.105809  0.067771  0.073177 -0.000188 -0.009413
     4 y       0.038862  0.029059  0.019066  0.021109  0.000868 -0.004070
     4 z       0.438514  0.324620  0.231702  0.277563 -0.000018 -0.106752
     5 x       0.196434  0.014844 -0.047076 -0.061588  0.000066 -0.014275
     5 y       0.059411 -0.073853 -0.085567 -0.044850  0.005980 -0.137297
     5 z       0.013181 -0.002584  0.003193  0.018416  0.002511 -0.005551
     6 x       0.203331 -0.016947 -0.078224 -0.074753 -0.002508 -0.069634
     6 y       0.027500  0.073246  0.058557  0.016064  0.005323  0.118858
     6 z       0.013790 -0.005389  0.000444  0.017254 -0.002727 -0.010436
     7 x       0.072548 -0.225339  0.328445 -0.129502 -0.005726 -0.046819
     7 y       0.016320 -0.050997  0.074783 -0.029517  0.026499 -0.010994
     7 z       0.033606 -0.120455  0.199280 -0.080198 -0.000505 -0.045913
     8 x       0.144815 -0.150821 -0.080178  0.047237 -0.004731 -0.038601
     8 y       0.037097 -0.038473 -0.020209  0.012453  0.021888 -0.009495
     8 z       0.304113 -0.308167 -0.151064  0.117672 -0.000418 -0.060427
     9 x       0.005642 -0.022919  0.032042 -0.021216  0.029902 -0.006970
     9 y       0.036052 -0.142020  0.209366 -0.084864  0.438669 -0.024232
     9 z       0.010712 -0.065653  0.104242 -0.040410  0.174335 -0.010351
    10 x       0.019937 -0.078984  0.114791 -0.054040 -0.206946 -0.016270
    10 y      -0.030091  0.117398 -0.173519  0.067007  0.380534  0.018799
    10 z       0.011973 -0.070601  0.111544 -0.043308 -0.189958 -0.011172
    11 x       0.220988 -0.025980 -0.081998 -0.228096 -0.000080  0.274533
    11 y       0.043783 -0.005128 -0.015800 -0.044824  0.000375  0.054082
    11 z      -0.208504  0.025536  0.100734  0.234442 -0.000008 -0.275263
    12 x       0.060723  0.197790 -0.054213 -0.252158 -0.000013 -0.186979
    12 y       0.011993  0.037525 -0.010700 -0.048248  0.000064 -0.036213
    12 z      -0.059261 -0.273767  0.053276  0.327608 -0.000002  0.220019




--------------------------------------------------------------------------------
  Vibrational properties (for cluster):  Temperature  =       0.000 K
--------------------------------------------------------------------------------
  Zero point energy            =        0.688611 eV
--------------------------------------------------------------------------------

  Phonon density of states : 

--------------------------------------------------------------------------------
 Frequency (cm-1) Density of States                                             
--------------------------------------------------------------------------------
    0.00000 |************************************************************  0.091
   13.09698 |********************                                          0.030
   26.19396 |                                                              0.000
   39.29094 |********************                                          0.030
   52.38792 |********************                                          0.030
   65.48490 |********************                                          0.030
   78.58188 |                                                              0.000
   91.67886 |                                                              0.000
  104.77583 |********************                                          0.030
  117.87281 |                                                              0.000
  130.96979 |                                                              0.000
  144.06677 |********************                                          0.030
  157.16375 |********************                                          0.030
  170.26073 |********************                                          0.030
  183.35771 |********************                                          0.030
  196.45469 |****************************************                      0.061
  209.55167 |                                                              0.000
  222.64865 |****************************************                      0.061
  235.74563 |                                                              0.000
  248.84261 |********************                                          0.030
  261.93959 |********************                                          0.030
  275.03657 |********************                                          0.030
  288.13354 |                                                              0.000
  301.23052 |                                                              0.000
  314.32750 |********************                                          0.030
  327.42448 |                                                              0.000
  340.52146 |                                                              0.000
  353.61844 |                                                              0.000
  366.71542 |********************                                          0.030
  379.81240 |                                                              0.000
  392.90938 |                                                              0.000
  406.00636 |                                                              0.000
  419.10334 |                                                              0.000
  432.20032 |                                                              0.000
  445.29730 |                                                              0.000
  458.39428 |********************                                          0.030
  471.49125 |********************                                          0.030
  484.58823 |********************                                          0.030
  497.68521 |                                                              0.000
  510.78219 |                                                              0.000
  523.87917 |********************                                          0.030
  536.97615 |                                                              0.000
  550.07313 |                                                              0.000
  563.17011 |                                                              0.000
  576.26709 |****************************************                      0.061
  589.36407 |                                                              0.000
  602.46105 |                                                              0.000
  615.55803 |                                                              0.000
  628.65501 |                                                              0.000
  641.75199 |                                                              0.000
  654.84896 |                                                              0.000
  667.94594 |                                                              0.000
  681.04292 |********************                                          0.030
  694.13990 |                                                              0.000
  707.23688 |                                                              0.000
  720.33386 |********************                                          0.030
  733.43084 |                                                              0.000
  746.52782 |                                                              0.000
  759.62480 |                                                              0.000
  772.72178 |********************                                          0.030
  785.81876 |********************                                          0.030
  798.91574 |********************                                          0.030
  812.01272 |                                                              0.000
  825.10970 |********************                                          0.030
--------------------------------------------------------------------------------



  Time to end of optimisation =       0.0312 seconds


  Peak dynamic memory used =       0.66 MB 


  Timing analysis for GULP :

--------------------------------------------------------------------------------
  Task / Subroutine                                          Time (Seconds)
--------------------------------------------------------------------------------
  Calculation of real space energy and derivatives                0.0107
  Calculation of phonons                                          0.0016
  Calculation and manipulation of Hessian matrix                  0.0079
  Calculation of matrix inversion                                 0.0001
--------------------------------------------------------------------------------
  Total CPU time                                                  0.0312
--------------------------------------------------------------------------------


  Job Finished at 10:31.29 17th May        2022                               

