********************************************************************************
*                       GENERAL UTILITY LATTICE PROGRAM                        *
*                                 Julian Gale                                  *
*                       Curtin Institute for Computation                       *
*                           Department of Chemistry                            *
*                    Curtin University, Western Australia                      *
********************************************************************************
* Version = 5.1.1 * Last modified =  24th November 2018                        *
********************************************************************************
*  optimise     - perform optimisation run                                     *
*  conp         - constant pressure calculation                                *
*  shell        - only shells and radii to be optimised                        *
*  phonon       - calculate phonons for final geometry                         *
*  eigenvectors - output phonon eigenvectors                                   *
********************************************************************************

  Job Started  at 14:39.17 25th May        2022                               

  Number of CPUs =     1

  Host name      = login03                                 


  Total number of configurations input =      1

********************************************************************************
*  Input for Configuration =   1                                               *
********************************************************************************

  Formula = Al3F9                                                       

  Number of irreducible atoms/shells =      21


  Total number atoms/shells =      21

  Dimensionality = 0               :  Cluster


  Charge on cluster =  -0.000000


  Initial cluster dipoles : x =      0.660206 e.Angs
                            y =      0.111014 e.Angs
                            z =     -0.957440 e.Angs

  Temperature of configuration =  0.000     K 

  Symmetry number =      1

  Cartesian coordinates of cluster :

--------------------------------------------------------------------------------
   No.  Atomic       x           y          z         Charge      Occupancy
        Label      (Angs)      (Angs)     (Angs)        (e)         (Frac)  
--------------------------------------------------------------------------------
      1 Al    c     -0.0771      1.6179      2.1543     3.00000    1.000000    
      2 Al    c      2.5034      2.5604      1.7379     3.00000    1.000000    
      3 Al    c      1.3518      2.6928     -0.6765     3.00000    1.000000    
      4 F     c      1.0332      2.9741      2.9347     0.59000    1.000000    
      5 F     c     -1.5784      2.6699      1.8537     0.59000    1.000000    
      6 F     c     -0.4269      0.1418      3.3166     0.59000    1.000000    
      7 F     c      1.7484      0.8279      1.7187     0.59000    1.000000    
      8 F     c      3.0282      1.9781     -0.1449     0.59000    1.000000    
      9 F     c      1.1418      3.1911     -2.4017     0.59000    1.000000    
     10 F     c      1.6216      3.9793      0.7155     0.59000    1.000000    
     11 F     c      4.0890      3.0253      2.4888     0.59000    1.000000    
     12 F     c      0.0169      1.7146      0.1230     0.59000    1.000000    
     13 F     s      1.0332 *    2.9741 *    2.9347 *  -1.59000    1.000000    
     14 F     s     -1.5784 *    2.6699 *    1.8537 *  -1.59000    1.000000    
     15 F     s     -0.4269 *    0.1418 *    3.3166 *  -1.59000    1.000000    
     16 F     s      1.7484 *    0.8279 *    1.7187 *  -1.59000    1.000000    
     17 F     s      3.0282 *    1.9781 *   -0.1449 *  -1.59000    1.000000    
     18 F     s      1.1418 *    3.1911 *   -2.4017 *  -1.59000    1.000000    
     19 F     s      1.6216 *    3.9793 *    0.7155 *  -1.59000    1.000000    
     20 F     s      4.0890 *    3.0253 *    2.4888 *  -1.59000    1.000000    
     21 F     s      0.0169 *    1.7146 *    0.1230 *  -1.59000    1.000000    
--------------------------------------------------------------------------------


  Brillouin zone sampling points :

--------------------------------------------------------------------------------
  Point number          x          y          z            Weight
--------------------------------------------------------------------------------
        1           0.000000   0.000000   0.000000     1.00000000
--------------------------------------------------------------------------------


********************************************************************************
*  General input information                                                   *
********************************************************************************

  Species output for all configurations : 

--------------------------------------------------------------------------------
  Species    Type    Atomic    Atomic    Charge       Radii (Angs)     Library
                     Number     Mass       (e)     Cova   Ionic  VDW   Symbol
--------------------------------------------------------------------------------
    Al       Core       13      26.98   3.000000   1.350  0.000  2.050          
    F        Core        9      19.00   0.590000   0.710  0.000  1.300          
    F        Shell       9       0.00  -1.590000   0.710  0.000  1.300          
--------------------------------------------------------------------------------


  Accuracy factor for short range sums = 12.000

  Time limit = Infinity

  Maximum range for interatomic potentials =    100000.000000 Angstroms

  General interatomic potentials :

--------------------------------------------------------------------------------
Atom  Types   Potential      Parameter       Value         Units   Cutoffs(Ang)
  1     2                                                            Min /  Max 
--------------------------------------------------------------------------------
Al   c F    s Buckingham    Buckingham A     3760.0008    eV        0.000 10.000
                            Buckingham rho  0.22200000    Ang       
                            Buckingham C     0.0000000    eV*Ang^6  
--------------------------------------------------------------------------------
F    s F    s Buck 4 range  Buck4 A          1127.7000    eV        0.000 12.000
                            Buck4 rho       0.27530000    Ang       
                            Buck4 C          15.830000    eV*Ang^6  
                            Buck4 minimum    2.7900000    Ang       
--------------------------------------------------------------------------------
F    c F    s Spring (c-s)  Spring k 2       20.770000    eV*Ang^-2 0.000  0.800
                            Spring k 4       0.0000000    eV*Ang^-4 
--------------------------------------------------------------------------------

********************************************************************************
*  Output for configuration   1                                                *
********************************************************************************


  Components of energy : 

--------------------------------------------------------------------------------
  Interatomic potentials     =           9.66904045 eV    
  Monopole - monopole (real) =        -176.68559226 eV    
--------------------------------------------------------------------------------
  Total lattice energy       =        -167.01655182 eV    
--------------------------------------------------------------------------------
  Total lattice energy       =          -16114.5442 kJ/mol
--------------------------------------------------------------------------------


  Number of variables =       27

  Maximum number of calculations  =          2000
  Maximum Hessian update interval =            10
  Maximum step size               =   1.000000000
  Maximum parameter tolerance     =   0.000001000
  Maximum function  tolerance     =   0.000010000
  Maximum gradient  tolerance     =   0.000000010
  Maximum gradient  component     =   0.010000000

  Symmetry not applied to optimisation

  Newton-Raphson optimiser to be used

  BFGS hessian update to be used

  Lower half triangular hessian to be used

  Minimiser to switch to RFO
  When gradient norm is less than     0.010000

  Shell only optimisation

  Start of cluster optimisation :

  Cycle:      0 Energy:      -167.016552  Gnorm:      1.497872  CPU:    0.005
  ** Hessian calculated **
  Cycle:      1 Energy:      -184.596373  Gnorm:      0.613258  CPU:    0.006
  ** Hessian calculated **
  Cycle:      2 Energy:      -186.220005  Gnorm:      0.032960  CPU:    0.009
  Cycle:      3 Energy:      -186.226366  Gnorm:      0.004948  CPU:    0.011
  ** Hessian has required structure
  Cycle:      4 Energy:      -186.226531  Gnorm:      0.001230  CPU:    0.013
  ** Hessian has required structure
  Cycle:      5 Energy:      -186.226542  Gnorm:      0.000525  CPU:    0.015
  ** Hessian has required structure
  Cycle:      6 Energy:      -186.226544  Gnorm:      0.000263  CPU:    0.017
  ** Hessian has required structure
  Cycle:      7 Energy:      -186.226545  Gnorm:      0.000184  CPU:    0.018
  ** Hessian has required structure
  Cycle:      8 Energy:      -186.226545  Gnorm:      0.000100  CPU:    0.020
  ** Hessian has required structure
  Cycle:      9 Energy:      -186.226545  Gnorm:      0.000064  CPU:    0.022
  ** Hessian has required structure
  Cycle:     10 Energy:      -186.226545  Gnorm:      0.000035  CPU:    0.024
  ** Hessian has required structure
  Cycle:     11 Energy:      -186.226545  Gnorm:      0.000027  CPU:    0.025
  ** Hessian has required structure
  Cycle:     12 Energy:      -186.226545  Gnorm:      0.000000  CPU:    0.027
  ** Hessian has required structure

  XYZ File written as 004/1/sp_mod_-80/sp_mod_-80_eig.xyz



  **** Optimisation achieved ****


  Final energy =    -186.22654489 eV
  Final Gnorm  =       0.00000000

  Components of energy : 

--------------------------------------------------------------------------------
  Interatomic potentials     =          37.45804425 eV    
  Monopole - monopole (real) =        -223.68458915 eV    
--------------------------------------------------------------------------------
  Total lattice energy       =        -186.22654489 eV    
--------------------------------------------------------------------------------
  Total lattice energy       =          -17968.0148 kJ/mol
--------------------------------------------------------------------------------

  Final cartesian coordinates of atoms :

--------------------------------------------------------------------------------
   No.  Atomic        x           y          z          Radius
        Label       (Angs)      (Angs)     (Angs)       (Angs) 
--------------------------------------------------------------------------------
     1  Al    c    -0.077088    1.617853    2.154293    0.000000
     2  Al    c     2.503361    2.560423    1.737862    0.000000
     3  Al    c     1.351769    2.692772   -0.676502    0.000000
     4  F     c     1.033215    2.974135    2.934658    0.000000
     5  F     c    -1.578366    2.669935    1.853726    0.000000
     6  F     c    -0.426908    0.141840    3.316617    0.000000
     7  F     c     1.748427    0.827869    1.718658    0.000000
     8  F     c     3.028212    1.978061   -0.144934    0.000000
     9  F     c     1.141816    3.191105   -2.401675    0.000000
    10  F     c     1.621649    3.979251    0.715548    0.000000
    11  F     c     4.089006    3.025337    2.488829    0.000000
    12  F     c     0.016868    1.714599    0.122975    0.000000
    13  F     s     1.079268    2.795434    2.728009    0.000000
    14  F     s    -1.350092    2.509869    1.900414    0.000000
    15  F     s    -0.366990    0.387434    3.108600    0.000000
    16  F     s     1.695538    1.096785    1.745484    0.000000
    17  F     s     2.788762    2.102560   -0.066657    0.000000
    18  F     s     1.176439    3.110728   -2.126062    0.000000
    19  F     s     1.674799    3.701043    0.646488    0.000000
    20  F     s     3.837438    2.950798    2.367502    0.000000
    21  F     s     0.215885    1.836102    0.143897    0.000000
--------------------------------------------------------------------------------


  Final Cartesian derivatives :

--------------------------------------------------------------------------------
   No.  Atomic          x             y             z           Radius
        Label       (eV/Angs)     (eV/Angs)    (eV/Angs)      (eV/Angs)
--------------------------------------------------------------------------------
      1 Al    c       0.000000      0.000000      0.000000      0.000000
      2 Al    c       0.000000      0.000000      0.000000      0.000000
      3 Al    c       0.000000      0.000000      0.000000      0.000000
      4 F     c       0.000000      0.000000      0.000000      0.000000
      5 F     c       0.000000      0.000000      0.000000      0.000000
      6 F     c       0.000000      0.000000      0.000000      0.000000
      7 F     c       0.000000      0.000000      0.000000      0.000000
      8 F     c       0.000000      0.000000      0.000000      0.000000
      9 F     c       0.000000      0.000000      0.000000      0.000000
     10 F     c       0.000000      0.000000      0.000000      0.000000
     11 F     c       0.000000      0.000000      0.000000      0.000000
     12 F     c       0.000000      0.000000      0.000000      0.000000
     13 F     s       0.000000      0.000000      0.000000      0.000000
     14 F     s      -0.000000      0.000000     -0.000000      0.000000
     15 F     s      -0.000000     -0.000000      0.000000      0.000000
     16 F     s       0.000000     -0.000000     -0.000000      0.000000
     17 F     s       0.000000      0.000000      0.000000      0.000000
     18 F     s      -0.000000      0.000000     -0.000000      0.000000
     19 F     s      -0.000000      0.000000     -0.000000      0.000000
     20 F     s       0.000000      0.000000      0.000000      0.000000
     21 F     s      -0.000000     -0.000000     -0.000000      0.000000
--------------------------------------------------------------------------------
  Maximum abs         0.000000      0.000000      0.000000      0.000000
--------------------------------------------------------------------------------


  Born effective charge tensors : 

-------------------------------------------------------------------------------
  Atom             x           y             z
-------------------------------------------------------------------------------
    1 Al    x       1.3251      0.2193     -0.1643
            y       0.2045      0.8438      0.2026
            z      -0.2871      0.1382      1.5815
-------------------------------------------------------------------------------
    2 Al    x       0.8268     -0.2142     -0.2323
            y      -0.2127      1.0249     -0.0312
            z      -0.1424      0.0269      1.5811
-------------------------------------------------------------------------------
    3 Al    x       1.0397     -0.0265     -0.0340
            y      -0.0119      1.1559      0.1166
            z       0.0071      0.1361      0.5785
-------------------------------------------------------------------------------
    4 F     x      -0.3696      0.0159      0.0533
            y      -0.0777     -0.3194      0.0073
            z       0.0280      0.0128     -0.3538
-------------------------------------------------------------------------------
    5 F     x      -0.2552     -0.2543      0.0938
            y      -0.2194     -0.3582     -0.0465
            z       0.1048     -0.0289     -0.5483
-------------------------------------------------------------------------------
    6 F     x      -0.5302      0.0342     -0.0311
            y       0.0342     -0.2479     -0.2137
            z       0.0002     -0.1965     -0.3645
-------------------------------------------------------------------------------
    7 F     x      -0.5851      0.1054      0.0159
            y       0.1587     -0.2303      0.0253
            z       0.0090      0.0210     -0.4440
-------------------------------------------------------------------------------
    8 F     x      -0.2206     -0.0524      0.1545
            y      -0.0427     -0.2979     -0.1038
            z       0.0407     -0.0316     -0.5937
-------------------------------------------------------------------------------
    9 F     x      -0.5265     -0.0224      0.0673
            y      -0.0293     -0.4958     -0.1664
            z       0.0813     -0.1495      0.0337
-------------------------------------------------------------------------------
   10 F     x      -0.3458      0.0103     -0.0087
            y       0.0262     -0.3090      0.1284
            z       0.0099      0.0347     -0.3230
-------------------------------------------------------------------------------
   11 F     x      -0.0741      0.1356      0.2306
            y       0.1339     -0.4949      0.0683
            z       0.2293      0.0698     -0.4589
-------------------------------------------------------------------------------
   12 F     x      -0.2844      0.0491     -0.1450
            y       0.0362     -0.2714      0.0132
            z      -0.0808     -0.0329     -0.6885
-------------------------------------------------------------------------------




  Moment of inertia tensor (10^-46 x kgm^2): 

-------------------------------------------------------------------------------
                x           y           z           Principal axis system
-------------------------------------------------------------------------------
       x        144.06      -19.64       12.16          112.250108
       y        -19.64      193.75       24.39          151.267076
       z         12.16       24.39      131.56          205.852474
-------------------------------------------------------------------------------
  Centre of mass (Ang) =     1.209558     2.281977     1.144090
-------------------------------------------------------------------------------


  Vibrational Frequency Calculation : 

--------------------------------------------------------------------------------

  Frequencies (cm-1) and Eigenvectors : 

  Frequency     -18.7617   -0.0000   -0.0000    0.0000   23.8718   33.0668
  IR Intensity    0.0002    0.0000    0.0000    0.0000    0.0004    0.0005
     in X         0.0001    0.0000    0.0000    0.0000    0.0004    0.0000
     in Y         0.0001    0.0000    0.0000    0.0000    0.0001    0.0000
     in Z         0.0000    0.0000    0.0000    0.0000    0.0000    0.0005
  Raman Intsty    0.0116    0.0000    0.0000    0.0000    0.0066    0.0104

     1 x       0.043072 -0.237663  0.030267  0.222911 -0.146426  0.161725
     1 y       0.179263  0.089869 -0.284494  0.134446  0.002227 -0.269531
     1 z      -0.011336 -0.206226 -0.158858 -0.198303 -0.227312  0.026688
     2 x       0.069237 -0.237663  0.030267  0.222911 -0.087604 -0.062865
     2 y       0.151279  0.089869 -0.284494  0.134446  0.083101  0.220221
     2 z      -0.001794 -0.206226 -0.158858 -0.198303  0.206986  0.002968
     3 x      -0.086588 -0.237663  0.030267  0.222911  0.265549 -0.105597
     3 y      -0.335991  0.089869 -0.284494  0.134446 -0.074565  0.049194
     3 z       0.020821 -0.206226 -0.158858 -0.198303  0.032028 -0.007644
     4 x       0.054680 -0.199442  0.025400  0.187063 -0.274309 -0.029154
     4 y       0.142442  0.075416 -0.238742  0.112824  0.051088 -0.126070
     4 z      -0.009993 -0.173061 -0.133311 -0.166412 -0.068948  0.133304
     5 x       0.079848 -0.199442  0.025400  0.187063 -0.140882  0.078387
     5 y       0.237485  0.075416 -0.238742  0.112824 -0.057385 -0.328789
     5 z       0.044321 -0.173061 -0.133311 -0.166412 -0.325316 -0.028436
     6 x       0.015426 -0.199442  0.025400  0.187063 -0.171147  0.237231
     6 y       0.138008  0.075416 -0.238742  0.112824 -0.012727 -0.262142
     6 z      -0.037183 -0.173061 -0.133311 -0.166412 -0.224813  0.006358
     7 x       0.149256 -0.199442  0.025400  0.187063  0.020246  0.153410
     7 y       0.102395  0.075416 -0.238742  0.112824  0.038525  0.078651
     7 z       0.161167 -0.173061 -0.133311 -0.166412  0.127603 -0.111442
     8 x       0.024024 -0.199442  0.025400  0.187063  0.184589  0.047041
     8 y      -0.040362  0.075416 -0.238742  0.112824  0.022163  0.347331
     8 z      -0.005227 -0.173061 -0.133311 -0.166412  0.237697 -0.004226
     9 x      -0.273146 -0.199442  0.025400  0.187063  0.352424 -0.054889
     9 y      -0.528079  0.075416 -0.238742  0.112824 -0.181928  0.153199
     9 z      -0.029375 -0.173061 -0.133311 -0.166412 -0.023158  0.021582
    10 x      -0.142419 -0.199442  0.025400  0.187063  0.022609 -0.385467
    10 y      -0.098707  0.075416 -0.238742  0.112824  0.007646  0.017581
    10 z      -0.142799 -0.173061 -0.133311 -0.166412 -0.001784  0.079367
    11 x       0.061509 -0.199442  0.025400  0.187063 -0.192054 -0.095321
    11 y       0.338805  0.075416 -0.238742  0.112824  0.189699  0.361397
    11 z      -0.141216 -0.173061 -0.133311 -0.166412  0.349658 -0.016093
    12 x       0.000172 -0.199442  0.025400  0.187063  0.160966  0.056790
    12 y      -0.285495  0.075416 -0.238742  0.112824 -0.069906 -0.241020
    12 z       0.151140 -0.173061 -0.133311 -0.166412 -0.084883 -0.106646


  Frequency      49.2141   56.5922  102.6728  123.5855  143.5239  153.8583
  IR Intensity    0.0059    0.0015    0.0056    0.0121    0.0185    0.0025
     in X         0.0006    0.0001    0.0000    0.0012    0.0056    0.0003
     in Y         0.0016    0.0008    0.0055    0.0094    0.0117    0.0017
     in Z         0.0037    0.0007    0.0000    0.0015    0.0012    0.0005
  Raman Intsty    0.1031    0.0071    0.0203    0.0000    0.0331    0.0000

     1 x       0.047953  0.028322 -0.005842 -0.059725 -0.032978 -0.062692
     1 y       0.038382 -0.117225  0.024669 -0.039769 -0.050810  0.005115
     1 z       0.277734  0.189301  0.054163  0.029360  0.013652 -0.020544
     2 x      -0.105861 -0.065706 -0.007274 -0.013173 -0.041282  0.048346
     2 y       0.087705  0.082540 -0.053872 -0.097165 -0.052897 -0.305463
     2 z      -0.065470 -0.123868 -0.014150  0.013722 -0.011347 -0.048668
     3 x      -0.004999  0.015968  0.011566  0.011023 -0.084058  0.046601
     3 y      -0.174038  0.060255 -0.092435 -0.052494  0.325269  0.213983
     3 z      -0.148289 -0.100017 -0.049190  0.025287  0.079487  0.014872
     4 x       0.092295 -0.142826 -0.052515  0.022160 -0.045261  0.142401
     4 y       0.078246  0.253544  0.125037 -0.108677  0.005259 -0.318310
     4 z       0.167793 -0.277189 -0.098983  0.065041 -0.034898  0.089330
     5 x       0.134621 -0.209645  0.054833 -0.004558  0.007142 -0.015281
     5 y       0.062654 -0.451560 -0.015021  0.085269 -0.024024 -0.006806
     5 z      -0.047505  0.097742 -0.380408  0.204467 -0.127852 -0.261489
     6 x      -0.009959  0.205858 -0.117854 -0.151176 -0.216546 -0.041117
     6 y       0.173363 -0.035305  0.204618 -0.180101 -0.025609  0.295802
     6 z       0.403664  0.306948  0.242057 -0.189238 -0.021389  0.349865
     7 x      -0.268522  0.062320  0.040838 -0.024236  0.059366 -0.041203
     7 y       0.112806  0.008116 -0.061270 -0.087938 -0.100418 -0.237087
     7 z      -0.120375  0.226525  0.311912  0.096091  0.309068 -0.162407
     8 x       0.004289 -0.081677 -0.030236 -0.117677 -0.064337  0.042928
     8 y      -0.024723 -0.137169 -0.167261 -0.300650  0.273205  0.073469
     8 z       0.073081  0.000647 -0.006836  0.039169  0.088096 -0.083684
     9 x       0.527486  0.011000 -0.155200  0.359487  0.206489 -0.142360
     9 y      -0.096409 -0.163293  0.526772  0.221425 -0.265403 -0.217059
     9 z      -0.175674 -0.146056  0.153409  0.057972 -0.123116 -0.083124
    10 x      -0.231231  0.229072  0.007695  0.085091 -0.191254  0.100204
    10 y      -0.096602  0.171637 -0.093626 -0.065914  0.157420 -0.016440
    10 z      -0.101527 -0.240365 -0.049272  0.010826  0.193858  0.183326
    11 x      -0.052788 -0.103820  0.021494  0.001097  0.236309 -0.185355
    11 y      -0.073916  0.144484  0.017886  0.560645 -0.228753  0.401623
    11 z      -0.039025 -0.048599 -0.111624 -0.413572 -0.472182  0.022533
    12 x      -0.121228  0.055239  0.232793 -0.096454  0.196749  0.101346
    12 y      -0.078278  0.179076 -0.392187  0.101671 -0.055700  0.127724
    12 z      -0.236669  0.121557 -0.049318  0.047772  0.090947  0.010404


  Frequency     161.7529  184.1524  211.9914  233.5779  244.5148  256.2698
  IR Intensity    0.0084    0.0168    0.0062    0.0079    0.0073    0.0401
     in X         0.0005    0.0058    0.0003    0.0001    0.0012    0.0278
     in Y         0.0000    0.0001    0.0026    0.0061    0.0000    0.0121
     in Z         0.0078    0.0109    0.0034    0.0017    0.0062    0.0002
  Raman Intsty    0.0071    0.0105    0.0489    0.0611    0.0175    0.0001

     1 x      -0.116754 -0.071764  0.157664  0.036504 -0.044956 -0.144529
     1 y       0.091312  0.187510 -0.074043  0.193926  0.000184  0.122172
     1 z      -0.153168 -0.166171 -0.121561  0.122398 -0.164445 -0.051102
     2 x       0.007549  0.183663  0.085504  0.033163 -0.185468 -0.163452
     2 y       0.093385 -0.195038  0.087787  0.065640 -0.089297  0.107105
     2 z       0.215444 -0.125548  0.073844 -0.075720  0.106972  0.038129
     3 x       0.168030 -0.239130 -0.262760 -0.013576  0.200837 -0.106849
     3 y      -0.199206 -0.019634  0.120211 -0.104865  0.095603  0.089847
     3 z       0.110663  0.131014  0.190598 -0.191539 -0.164164 -0.013935
     4 x      -0.135403  0.026177  0.026040  0.200180 -0.185838 -0.039118
     4 y      -0.032412  0.049256  0.033881 -0.124254  0.007025 -0.240576
     4 z       0.117814 -0.335114  0.005824  0.363152  0.011879  0.389786
     5 x      -0.348760 -0.277885  0.241655 -0.153073  0.109777 -0.193155
     5 y      -0.272891 -0.024204 -0.031996 -0.191653  0.287899  0.087401
     5 z      -0.144091  0.149021 -0.475223 -0.273859  0.092393  0.024784
     6 x       0.199836  0.272244  0.201542 -0.046218  0.558163  0.296120
     6 y       0.193506  0.228257 -0.016042 -0.013169  0.005986  0.031102
     6 z       0.101160  0.007744 -0.031587 -0.176409  0.026209 -0.056133
     7 x      -0.062073  0.176385  0.060915  0.202684  0.013401 -0.022605
     7 y       0.150858 -0.131847  0.069185  0.044198 -0.149861  0.119086
     7 z      -0.216898 -0.000170 -0.002983  0.357158  0.248990 -0.109575
     8 x       0.175705 -0.073423 -0.414556 -0.009746 -0.037746 -0.220163
     8 y      -0.009181  0.100099 -0.299254 -0.041286 -0.186502 -0.113492
     8 z       0.076963 -0.159106  0.141122 -0.269231  0.134344 -0.137002
     9 x      -0.067419  0.387349  0.067246  0.032957 -0.114843  0.140798
     9 y       0.006732  0.085585 -0.122594  0.067372  0.021167 -0.017162
     9 z       0.181592  0.080198  0.076932 -0.148985 -0.152914 -0.076401
    10 x      -0.002867 -0.221811  0.082112 -0.196064 -0.289535  0.264163
    10 y      -0.112918 -0.111345  0.136387 -0.190106 -0.140152  0.201654
    10 z       0.096299  0.145370  0.090943 -0.016560  0.129604 -0.138724
    11 x       0.325787 -0.019960  0.095601 -0.024737 -0.113947 -0.075894
    11 y      -0.041369  0.014182  0.021383 -0.070659 -0.054795 -0.094609
    11 z      -0.401203  0.164830  0.085258  0.127739 -0.076792 -0.041089
    12 x      -0.154904 -0.117462 -0.337208 -0.072823  0.095825  0.344181
    12 y       0.134963 -0.177613  0.049426  0.335209  0.201499 -0.353683
    12 z      -0.017715  0.138728 -0.060548  0.209616 -0.149602  0.176418


  Frequency     264.3297  272.3269  293.5281  301.0572  363.7537  383.8185
  IR Intensity    0.0382    0.0464    0.0180    0.0162    0.0211    0.0124
     in X         0.0171    0.0179    0.0038    0.0003    0.0034    0.0044
     in Y         0.0103    0.0070    0.0001    0.0032    0.0037    0.0002
     in Z         0.0108    0.0215    0.0141    0.0126    0.0139    0.0078
  Raman Intsty    0.0807    0.0350    0.9599    0.1233    1.0174    0.5915

     1 x       0.040326 -0.137929 -0.100527  0.025081 -0.337592 -0.090036
     1 y       0.264298  0.055673 -0.043852 -0.103494  0.024639  0.103180
     1 z       0.219980  0.292231  0.016146  0.065841  0.310586  0.226251
     2 x       0.157049 -0.086043  0.038551 -0.025828  0.162853  0.082668
     2 y      -0.168969 -0.154436 -0.005711  0.103196  0.110649 -0.089329
     2 z      -0.019680 -0.067540  0.152341  0.170144 -0.191613  0.206181
     3 x       0.048327 -0.061071 -0.080126  0.035501  0.116536 -0.114899
     3 y       0.201064 -0.145483  0.027062  0.071812  0.051708 -0.000914
     3 z      -0.013108  0.105570 -0.023732 -0.021139  0.055409 -0.217171
     4 x       0.228778 -0.069880 -0.169096 -0.326935  0.027098 -0.112103
     4 y       0.306588  0.160776 -0.061657  0.227514 -0.319608  0.076241
     4 z       0.041903 -0.091528  0.094243 -0.063419 -0.223579  0.006291
     5 x      -0.212141  0.102237 -0.022335  0.140693 -0.215068 -0.111660
     5 y      -0.199307  0.215780  0.081899  0.033683  0.246506  0.087729
     5 z      -0.003764 -0.380402  0.077669 -0.001846 -0.102318 -0.064782
     6 x       0.092239  0.312151  0.059581 -0.152910  0.000359 -0.025102
     6 y      -0.142188 -0.339619 -0.046127 -0.054539 -0.278359 -0.102407
     6 z      -0.266978 -0.064484  0.078674  0.098418  0.158455  0.018830
     7 x      -0.386579 -0.233323  0.049212  0.097574  0.258779  0.332905
     7 y       0.085247 -0.065589  0.041906  0.155063  0.223374 -0.142048
     7 z      -0.000459 -0.046482  0.375021 -0.273096 -0.027504 -0.264804
     8 x      -0.062272  0.208072  0.044687 -0.085706  0.074220 -0.262205
     8 y      -0.140736  0.270006  0.266570 -0.225785 -0.237239  0.217016
     8 z       0.044159 -0.117159 -0.368194 -0.515906  0.009726  0.389969
     9 x      -0.128529  0.058521  0.020105  0.060675 -0.037141 -0.041066
     9 y      -0.087701  0.002069 -0.057685 -0.061806 -0.041999  0.103002
     9 z      -0.081350  0.147385 -0.069375 -0.069592  0.068638 -0.324615
    10 x      -0.025302  0.135862  0.401537 -0.052998 -0.181194  0.144962
    10 y      -0.094233 -0.032256 -0.114768 -0.237744  0.188813 -0.302145
    10 z       0.273415 -0.026328  0.083273  0.361350  0.050945 -0.102275
    11 x       0.051618 -0.127038  0.096168  0.068758  0.124465  0.205604
    11 y       0.108136  0.010202  0.049228  0.024681 -0.010042  0.048038
    11 z       0.050019 -0.114871  0.024482  0.037184  0.064419  0.053446
    12 x       0.149402 -0.046935 -0.310524  0.209434  0.017838  0.014364
    12 y      -0.189001  0.069685 -0.132553  0.053714  0.005723 -0.000841
    12 z      -0.280010  0.300317 -0.468289  0.170890 -0.206581  0.031426


  Frequency     391.6708  453.3662  493.4434  518.3182  539.1007  572.1615
  IR Intensity    0.0165    0.0405    0.0257    0.0128    0.0327    0.1075
     in X         0.0024    0.0012    0.0218    0.0030    0.0000    0.0084
     in Y         0.0046    0.0011    0.0015    0.0010    0.0014    0.0180
     in Z         0.0095    0.0383    0.0024    0.0088    0.0313    0.0811
  Raman Intsty    0.0800    2.3682    0.0371    2.5369    0.1242    0.1328

     1 x       0.076781  0.045076 -0.169824 -0.061419  0.063586 -0.011277
     1 y       0.177487  0.003041 -0.192343 -0.110302  0.171914  0.096048
     1 z       0.188964 -0.023322 -0.227142 -0.154022  0.261581  0.204623
     2 x      -0.229028 -0.080231 -0.207409 -0.046066 -0.177722 -0.178029
     2 y      -0.031179  0.128603  0.128393  0.074017  0.247932 -0.060813
     2 z      -0.083487 -0.306348  0.255964  0.095645  0.232595  0.439351
     3 x       0.089723 -0.059173  0.071798 -0.020729  0.158757 -0.042045
     3 y       0.003938 -0.066451 -0.019903 -0.075130 -0.332057  0.383487
     3 z       0.096710 -0.060242  0.029385 -0.120022 -0.115738  0.121643
     4 x      -0.021546  0.042968  0.639001  0.181215  0.085385  0.139255
     4 y       0.279656 -0.164274  0.218320  0.139886 -0.287487 -0.194239
     4 z       0.207907 -0.152503 -0.110276  0.029480 -0.354112 -0.266747
     5 x      -0.042240  0.053196 -0.179840 -0.101860  0.094693  0.138747
     5 y      -0.036820 -0.028469  0.110244  0.078958 -0.096713 -0.119007
     5 z      -0.003756  0.027672 -0.039980 -0.032384  0.005132 -0.003409
     6 x      -0.047236  0.004251 -0.024637 -0.010811  0.039209  0.031188
     6 y       0.056404  0.077002 -0.183964 -0.106660  0.150660  0.136693
     6 z      -0.100172 -0.040658  0.173784  0.105873 -0.174974 -0.147016
     7 x       0.504114  0.075702  0.096768 -0.033203 -0.114066  0.059748
     7 y      -0.290244  0.404257  0.033895 -0.135529 -0.264561  0.169649
     7 z      -0.187323  0.054713  0.000342 -0.008448 -0.002350 -0.019193
     8 x       0.110142  0.028110 -0.211166  0.325725 -0.283062  0.281432
     8 y      -0.103870  0.045081  0.105698 -0.153627  0.118158 -0.152523
     8 z      -0.025311  0.289748 -0.084156  0.019703 -0.108674 -0.055892
     9 x       0.004424 -0.014254  0.030384 -0.046137 -0.009086 -0.006367
     9 y      -0.064853  0.025336 -0.041829  0.154281  0.010350  0.017256
     9 z       0.151770 -0.100829  0.140616 -0.494899 -0.016907 -0.137861
    10 x       0.048740  0.296572  0.041443  0.027392  0.037168 -0.063274
    10 y       0.173209 -0.288241 -0.169701  0.336754  0.238598 -0.173313
    10 z       0.120684  0.445934 -0.021214  0.297569  0.241368 -0.279705
    11 x      -0.336239 -0.343340 -0.137185  0.103295  0.049918 -0.123331
    11 y      -0.118523 -0.107572 -0.041427  0.032634  0.005168 -0.045248
    11 z      -0.173560 -0.154788 -0.059690  0.049565  0.007304 -0.086223
    12 x      -0.145653 -0.030802  0.109199 -0.292831  0.046669 -0.181712
    12 y      -0.073998 -0.040806  0.068686 -0.213932  0.021215 -0.138233
    12 z      -0.231173  0.095345 -0.068788  0.246129 -0.047748  0.083708


  Frequency     603.7280  678.1389  705.0949  750.5941  810.7729  880.2494
  IR Intensity    0.0639    0.0971    0.0081    0.0202    0.0083    0.0001
     in X         0.0046    0.0751    0.0058    0.0053    0.0015    0.0001
     in Y         0.0580    0.0161    0.0000    0.0108    0.0000    0.0000
     in Z         0.0013    0.0059    0.0023    0.0041    0.0068    0.0000
  Raman Intsty    0.0017    0.2447    0.0004    0.0007    0.1283    1.1896

     1 x       0.074821  0.361489  0.528874  0.310690  0.175081 -0.150087
     1 y       0.009825  0.192333  0.223127 -0.592236  0.083451 -0.075650
     1 z       0.022825 -0.089273 -0.100107  0.290080 -0.034717  0.027810
     2 x      -0.115933  0.089115  0.069138  0.016565 -0.512267  0.479212
     2 y       0.571248  0.074227 -0.071104 -0.060734 -0.248889  0.151576
     2 z      -0.198540 -0.044663  0.272571  0.012053 -0.068658  0.248526
     3 x      -0.205110  0.533803 -0.384487  0.059552 -0.087219 -0.130159
     3 y       0.235162  0.212969 -0.161458  0.001685  0.110969  0.124537
     3 z       0.072960 -0.028379  0.045353 -0.002272 -0.483984 -0.598997
     4 x       0.002975 -0.107739 -0.076817 -0.004168  0.034534 -0.016944
     4 y      -0.065812 -0.098087 -0.125781  0.032768 -0.034922  0.018985
     4 z      -0.026151 -0.027462 -0.099407  0.002666 -0.051464  0.021868
     5 x      -0.131853 -0.176172 -0.259391 -0.410219 -0.045672  0.026403
     5 y       0.079464  0.105722  0.144243  0.302841  0.026419 -0.011722
     5 z      -0.024876 -0.037114 -0.040289 -0.086288 -0.002432  0.004297
     6 x       0.010655 -0.074790 -0.079957  0.058977 -0.014421  0.012545
     6 y      -0.013183 -0.232096 -0.236785  0.337424 -0.049818  0.033575
     6 z      -0.002344  0.176046  0.175197 -0.257877  0.033831 -0.022524
     7 x      -0.136870 -0.084488 -0.021622 -0.021662  0.070960 -0.045625
     7 y      -0.468676 -0.043214  0.047921  0.069583  0.148564 -0.090580
     7 z      -0.004180  0.005374  0.010723  0.004467  0.002753 -0.009293
     8 x       0.223956 -0.241947  0.152773 -0.026335  0.095235  0.081654
     8 y      -0.132782  0.090117 -0.060073  0.017882 -0.023627 -0.042234
     8 z       0.049731 -0.049323  0.001368 -0.020134  0.046356  0.043176
     9 x       0.018481 -0.013121  0.005472 -0.007265  0.046457  0.041505
     9 y      -0.047224 -0.018509  0.021287  0.000010 -0.104926 -0.096859
     9 z       0.089815  0.039607 -0.058405 -0.003490  0.365430  0.336084
    10 x       0.097366 -0.032872 -0.003583 -0.014250  0.036614 -0.007462
    10 y      -0.346214 -0.097799  0.102936  0.012428  0.048141  0.077581
    10 z      -0.010194 -0.076817  0.004772 -0.010810  0.081367  0.058240
    11 x       0.155977 -0.119502 -0.182935 -0.005706  0.349010 -0.270153
    11 y       0.015824 -0.037475 -0.047347  0.006171  0.106450 -0.079355
    11 z       0.074515 -0.049668 -0.096948 -0.001927  0.162070 -0.126510
    12 x       0.052719 -0.322427  0.211615 -0.030306 -0.066981 -0.059018
    12 y       0.005947 -0.240085  0.164842 -0.003012 -0.051375 -0.048271
    12 z      -0.023867  0.212778 -0.156569  0.016067  0.062008  0.079157




--------------------------------------------------------------------------------
  Vibrational properties (for cluster):  Temperature  =       0.000 K
--------------------------------------------------------------------------------
  Zero point energy            =        0.694140 eV
--------------------------------------------------------------------------------

  Phonon density of states : 

--------------------------------------------------------------------------------
 Frequency (cm-1) Density of States                                             
--------------------------------------------------------------------------------
    0.00000 |******************************                                0.030
   13.75390 |******************************                                0.030
   27.50780 |******************************                                0.030
   41.26169 |******************************                                0.030
   55.01559 |******************************                                0.030
   68.76949 |                                                              0.000
   82.52339 |                                                              0.000
   96.27728 |******************************                                0.030
  110.03118 |******************************                                0.030
  123.78508 |                                                              0.000
  137.53898 |******************************                                0.030
  151.29288 |************************************************************  0.061
  165.04677 |                                                              0.000
  178.80067 |******************************                                0.030
  192.55457 |                                                              0.000
  206.30847 |******************************                                0.030
  220.06236 |******************************                                0.030
  233.81626 |******************************                                0.030
  247.57016 |******************************                                0.030
  261.32406 |************************************************************  0.061
  275.07796 |                                                              0.000
  288.83185 |************************************************************  0.061
  302.58575 |                                                              0.000
  316.33965 |                                                              0.000
  330.09355 |                                                              0.000
  343.84744 |                                                              0.000
  357.60134 |******************************                                0.030
  371.35524 |******************************                                0.030
  385.10914 |******************************                                0.030
  398.86303 |                                                              0.000
  412.61693 |                                                              0.000
  426.37083 |                                                              0.000
  440.12473 |******************************                                0.030
  453.87863 |                                                              0.000
  467.63252 |                                                              0.000
  481.38642 |******************************                                0.030
  495.14032 |                                                              0.000
  508.89422 |******************************                                0.030
  522.64811 |                                                              0.000
  536.40201 |******************************                                0.030
  550.15591 |                                                              0.000
  563.90981 |******************************                                0.030
  577.66371 |                                                              0.000
  591.41760 |******************************                                0.030
  605.17150 |                                                              0.000
  618.92540 |                                                              0.000
  632.67930 |                                                              0.000
  646.43319 |                                                              0.000
  660.18709 |                                                              0.000
  673.94099 |******************************                                0.030
  687.69489 |                                                              0.000
  701.44879 |******************************                                0.030
  715.20268 |                                                              0.000
  728.95658 |                                                              0.000
  742.71048 |******************************                                0.030
  756.46438 |                                                              0.000
  770.21827 |                                                              0.000
  783.97217 |                                                              0.000
  797.72607 |******************************                                0.030
  811.47997 |                                                              0.000
  825.23387 |                                                              0.000
  838.98776 |                                                              0.000
  852.74166 |                                                              0.000
  866.49556 |******************************                                0.030
--------------------------------------------------------------------------------



  Time to end of optimisation =       0.0373 seconds


  Peak dynamic memory used =       0.65 MB 


  Timing analysis for GULP :

--------------------------------------------------------------------------------
  Task / Subroutine                                          Time (Seconds)
--------------------------------------------------------------------------------
  Calculation of real space energy and derivatives                0.0022
  Calculation of phonons                                          0.0016
  Calculation and manipulation of Hessian matrix                  0.0014
--------------------------------------------------------------------------------
  Total CPU time                                                  0.0373
--------------------------------------------------------------------------------


  Job Finished at 14:39.17 25th May        2022                               

