********************************************************************************
*                       GENERAL UTILITY LATTICE PROGRAM                        *
*                                 Julian Gale                                  *
*                       Curtin Institute for Computation                       *
*                           Department of Chemistry                            *
*                    Curtin University, Western Australia                      *
********************************************************************************
* Version = 5.1.1 * Last modified =  24th November 2018                        *
********************************************************************************
*  optimise     - perform optimisation run                                     *
*  conp         - constant pressure calculation                                *
*  shell        - only shells and radii to be optimised                        *
*  phonon       - calculate phonons for final geometry                         *
*  eigenvectors - output phonon eigenvectors                                   *
********************************************************************************

  Job Started  at 14:39.53 25th May        2022                               

  Number of CPUs =     1

  Host name      = login03                                 


  Total number of configurations input =      1

********************************************************************************
*  Input for Configuration =   1                                               *
********************************************************************************

  Formula = Al3F9                                                       

  Number of irreducible atoms/shells =      21


  Total number atoms/shells =      21

  Dimensionality = 0               :  Cluster


  Charge on cluster =  -0.000000


  Initial cluster dipoles : x =      0.765789 e.Angs
                            y =      0.133885 e.Angs
                            z =     -0.993649 e.Angs

  Temperature of configuration =  0.000     K 

  Symmetry number =      1

  Cartesian coordinates of cluster :

--------------------------------------------------------------------------------
   No.  Atomic       x           y          z         Charge      Occupancy
        Label      (Angs)      (Angs)     (Angs)        (e)         (Frac)  
--------------------------------------------------------------------------------
      1 Al    c     -0.0664      1.6225      2.0521     3.00000    1.000000    
      2 Al    c      2.5386      2.6032      1.7919     3.00000    1.000000    
      3 Al    c      1.3310      2.6509     -0.6369     3.00000    1.000000    
      4 F     c      1.0045      3.0679      2.8263     0.59000    1.000000    
      5 F     c     -1.5537      2.6673      2.1804     0.59000    1.000000    
      6 F     c     -0.4804      0.0025      2.7560     0.59000    1.000000    
      7 F     c      1.7280      0.8761      1.9575     0.59000    1.000000    
      8 F     c      2.9452      1.8763     -0.1003     0.59000    1.000000    
      9 F     c      1.1014      3.0389     -2.3819     0.59000    1.000000    
     10 F     c      1.7298      4.0071      0.5909     0.59000    1.000000    
     11 F     c      4.1377      3.1388      2.4749     0.59000    1.000000    
     12 F     c      0.0314      1.8207      0.3109     0.59000    1.000000    
     13 F     s      1.0045 *    3.0679 *    2.8263 *  -1.59000    1.000000    
     14 F     s     -1.5537 *    2.6673 *    2.1804 *  -1.59000    1.000000    
     15 F     s     -0.4804 *    0.0025 *    2.7560 *  -1.59000    1.000000    
     16 F     s      1.7280 *    0.8761 *    1.9575 *  -1.59000    1.000000    
     17 F     s      2.9452 *    1.8763 *   -0.1003 *  -1.59000    1.000000    
     18 F     s      1.1014 *    3.0389 *   -2.3819 *  -1.59000    1.000000    
     19 F     s      1.7298 *    4.0071 *    0.5909 *  -1.59000    1.000000    
     20 F     s      4.1377 *    3.1388 *    2.4749 *  -1.59000    1.000000    
     21 F     s      0.0314 *    1.8207 *    0.3109 *  -1.59000    1.000000    
--------------------------------------------------------------------------------


  Brillouin zone sampling points :

--------------------------------------------------------------------------------
  Point number          x          y          z            Weight
--------------------------------------------------------------------------------
        1           0.000000   0.000000   0.000000     1.00000000
--------------------------------------------------------------------------------


********************************************************************************
*  General input information                                                   *
********************************************************************************

  Species output for all configurations : 

--------------------------------------------------------------------------------
  Species    Type    Atomic    Atomic    Charge       Radii (Angs)     Library
                     Number     Mass       (e)     Cova   Ionic  VDW   Symbol
--------------------------------------------------------------------------------
    Al       Core       13      26.98   3.000000   1.350  0.000  2.050          
    F        Core        9      19.00   0.590000   0.710  0.000  1.300          
    F        Shell       9       0.00  -1.590000   0.710  0.000  1.300          
--------------------------------------------------------------------------------


  Accuracy factor for short range sums = 12.000

  Time limit = Infinity

  Maximum range for interatomic potentials =    100000.000000 Angstroms

  General interatomic potentials :

--------------------------------------------------------------------------------
Atom  Types   Potential      Parameter       Value         Units   Cutoffs(Ang)
  1     2                                                            Min /  Max 
--------------------------------------------------------------------------------
Al   c F    s Buckingham    Buckingham A     3760.0008    eV        0.000 10.000
                            Buckingham rho  0.22200000    Ang       
                            Buckingham C     0.0000000    eV*Ang^6  
--------------------------------------------------------------------------------
F    s F    s Buck 4 range  Buck4 A          1127.7000    eV        0.000 12.000
                            Buck4 rho       0.27530000    Ang       
                            Buck4 C          15.830000    eV*Ang^6  
                            Buck4 minimum    2.7900000    Ang       
--------------------------------------------------------------------------------
F    c F    s Spring (c-s)  Spring k 2       20.770000    eV*Ang^-2 0.000  0.800
                            Spring k 4       0.0000000    eV*Ang^-4 
--------------------------------------------------------------------------------

********************************************************************************
*  Output for configuration   1                                                *
********************************************************************************


  Components of energy : 

--------------------------------------------------------------------------------
  Interatomic potentials     =          11.55764490 eV    
  Monopole - monopole (real) =        -180.44436105 eV    
--------------------------------------------------------------------------------
  Total lattice energy       =        -168.88671615 eV    
--------------------------------------------------------------------------------
  Total lattice energy       =          -16294.9864 kJ/mol
--------------------------------------------------------------------------------


  Number of variables =       27

  Maximum number of calculations  =          2000
  Maximum Hessian update interval =            10
  Maximum step size               =   1.000000000
  Maximum parameter tolerance     =   0.000001000
  Maximum function  tolerance     =   0.000010000
  Maximum gradient  tolerance     =   0.000000010
  Maximum gradient  component     =   0.010000000

  Symmetry not applied to optimisation

  Newton-Raphson optimiser to be used

  BFGS hessian update to be used

  Lower half triangular hessian to be used

  Minimiser to switch to RFO
  When gradient norm is less than     0.010000

  Shell only optimisation

  Start of cluster optimisation :

  Cycle:      0 Energy:      -168.886716  Gnorm:      1.456891  CPU:    0.004
  ** Hessian calculated **
  Cycle:      1 Energy:      -184.769963  Gnorm:      0.573220  CPU:    0.006
  ** Hessian calculated **
  Cycle:      2 Energy:      -186.093795  Gnorm:      0.035656  CPU:    0.008
  Cycle:      3 Energy:      -186.101040  Gnorm:      0.004956  CPU:    0.009
  ** Hessian has required structure
  Cycle:      4 Energy:      -186.101203  Gnorm:      0.001579  CPU:    0.011
  ** Hessian has required structure
  Cycle:      5 Energy:      -186.101221  Gnorm:      0.000660  CPU:    0.013
  ** Hessian has required structure
  Cycle:      6 Energy:      -186.101224  Gnorm:      0.000242  CPU:    0.014
  ** Hessian has required structure
  Cycle:      7 Energy:      -186.101225  Gnorm:      0.000170  CPU:    0.016
  ** Hessian has required structure
  Cycle:      8 Energy:      -186.101225  Gnorm:      0.000116  CPU:    0.017
  ** Hessian has required structure
  Cycle:      9 Energy:      -186.101225  Gnorm:      0.000074  CPU:    0.018
  ** Hessian has required structure
  Cycle:     10 Energy:      -186.101225  Gnorm:      0.000052  CPU:    0.020
  ** Hessian has required structure
  Cycle:     11 Energy:      -186.101225  Gnorm:      0.000037  CPU:    0.021
  ** Hessian has required structure
  Cycle:     12 Energy:      -186.101225  Gnorm:      0.000000  CPU:    0.023
  ** Hessian has required structure

  XYZ File written as 004/4/sp_mod_-20/sp_mod_-20_eig.xyz



  **** Optimisation achieved ****


  Final energy =    -186.10122511 eV
  Final Gnorm  =       0.00000000

  Components of energy : 

--------------------------------------------------------------------------------
  Interatomic potentials     =          37.68293929 eV    
  Monopole - monopole (real) =        -223.78416439 eV    
--------------------------------------------------------------------------------
  Total lattice energy       =        -186.10122511 eV    
--------------------------------------------------------------------------------
  Total lattice energy       =          -17955.9234 kJ/mol
--------------------------------------------------------------------------------

  Final cartesian coordinates of atoms :

--------------------------------------------------------------------------------
   No.  Atomic        x           y          z          Radius
        Label       (Angs)      (Angs)     (Angs)       (Angs) 
--------------------------------------------------------------------------------
     1  Al    c    -0.066385    1.622458    2.052072    0.000000
     2  Al    c     2.538568    2.603182    1.791885    0.000000
     3  Al    c     1.331047    2.650865   -0.636941    0.000000
     4  F     c     1.004519    3.067913    2.826339    0.000000
     5  F     c    -1.553699    2.667258    2.180402    0.000000
     6  F     c    -0.480357    0.002491    2.756005    0.000000
     7  F     c     1.727997    0.876112    1.957498    0.000000
     8  F     c     2.945211    1.876280   -0.100290    0.000000
     9  F     c     1.101380    3.038950   -2.381855    0.000000
    10  F     c     1.729755    4.007120    0.590859    0.000000
    11  F     c     4.137714    3.138767    2.474871    0.000000
    12  F     c     0.031382    1.820740    0.310865    0.000000
    13  F     s     1.086632    2.898180    2.648366    0.000000
    14  F     s    -1.347117    2.530912    2.148044    0.000000
    15  F     s    -0.420079    0.226107    2.644025    0.000000
    16  F     s     1.720513    1.137476    1.915053    0.000000
    17  F     s     2.726882    2.009375   -0.024634    0.000000
    18  F     s     1.129901    2.971554   -2.103666    0.000000
    19  F     s     1.751551    3.734860    0.554492    0.000000
    20  F     s     3.881073    3.049069    2.362649    0.000000
    21  F     s     0.202109    1.899601    0.329105    0.000000
--------------------------------------------------------------------------------


  Final Cartesian derivatives :

--------------------------------------------------------------------------------
   No.  Atomic          x             y             z           Radius
        Label       (eV/Angs)     (eV/Angs)    (eV/Angs)      (eV/Angs)
--------------------------------------------------------------------------------
      1 Al    c       0.000000      0.000000      0.000000      0.000000
      2 Al    c       0.000000      0.000000      0.000000      0.000000
      3 Al    c       0.000000      0.000000      0.000000      0.000000
      4 F     c       0.000000      0.000000      0.000000      0.000000
      5 F     c       0.000000      0.000000      0.000000      0.000000
      6 F     c       0.000000      0.000000      0.000000      0.000000
      7 F     c       0.000000      0.000000      0.000000      0.000000
      8 F     c       0.000000      0.000000      0.000000      0.000000
      9 F     c       0.000000      0.000000      0.000000      0.000000
     10 F     c       0.000000      0.000000      0.000000      0.000000
     11 F     c       0.000000      0.000000      0.000000      0.000000
     12 F     c       0.000000      0.000000      0.000000      0.000000
     13 F     s      -0.000000      0.000000      0.000000      0.000000
     14 F     s       0.000000     -0.000000     -0.000000      0.000000
     15 F     s       0.000000      0.000000     -0.000000      0.000000
     16 F     s       0.000000     -0.000000     -0.000000      0.000000
     17 F     s      -0.000000     -0.000000     -0.000000      0.000000
     18 F     s       0.000000      0.000000     -0.000000      0.000000
     19 F     s      -0.000000     -0.000000      0.000000      0.000000
     20 F     s       0.000000      0.000000     -0.000000      0.000000
     21 F     s      -0.000000      0.000000     -0.000000      0.000000
--------------------------------------------------------------------------------
  Maximum abs         0.000000      0.000000      0.000000      0.000000
--------------------------------------------------------------------------------


  Born effective charge tensors : 

-------------------------------------------------------------------------------
  Atom             x           y             z
-------------------------------------------------------------------------------
    1 Al    x       1.2649      0.2504     -0.0116
            y       0.2473      0.7219      0.1893
            z      -0.0517      0.1772      1.1568
-------------------------------------------------------------------------------
    2 Al    x       0.7835     -0.2807     -0.1188
            y      -0.2862      1.1530     -0.0615
            z      -0.0265     -0.0288      1.7091
-------------------------------------------------------------------------------
    3 Al    x       1.0430      0.0234     -0.1004
            y       0.0376      1.1245      0.0463
            z      -0.1327      0.0383      0.6475
-------------------------------------------------------------------------------
    4 F     x      -0.3567     -0.0477     -0.0330
            y      -0.1645     -0.4088     -0.0101
            z      -0.0601     -0.0040     -0.3657
-------------------------------------------------------------------------------
    5 F     x      -0.2396     -0.2521      0.0044
            y      -0.2420     -0.3493      0.0051
            z      -0.0069      0.0237     -0.5374
-------------------------------------------------------------------------------
    6 F     x      -0.5319      0.0902     -0.0358
            y       0.0877     -0.0932     -0.1810
            z      -0.0078     -0.1781     -0.4566
-------------------------------------------------------------------------------
    7 F     x      -0.5211      0.0612     -0.0266
            y       0.1644     -0.2410      0.0139
            z       0.0189      0.0044     -0.4241
-------------------------------------------------------------------------------
    8 F     x      -0.2090     -0.0454      0.1744
            y      -0.0684     -0.3219     -0.1709
            z       0.0353     -0.0628     -0.6245
-------------------------------------------------------------------------------
    9 F     x      -0.5294     -0.0284      0.0840
            y      -0.0291     -0.5053     -0.1270
            z       0.0759     -0.1291      0.0617
-------------------------------------------------------------------------------
   10 F     x      -0.3639      0.0493     -0.0349
            y       0.0932     -0.3436      0.2374
            z       0.0109      0.1040     -0.3555
-------------------------------------------------------------------------------
   11 F     x      -0.0675      0.1630      0.2089
            y       0.1538     -0.4839      0.0730
            z       0.2071      0.0763     -0.4780
-------------------------------------------------------------------------------
   12 F     x      -0.2725      0.0168     -0.1105
            y       0.0065     -0.2526     -0.0145
            z      -0.0625     -0.0212     -0.3333
-------------------------------------------------------------------------------




  Moment of inertia tensor (10^-46 x kgm^2): 

-------------------------------------------------------------------------------
                x           y           z           Principal axis system
-------------------------------------------------------------------------------
       x        138.01      -21.85       10.82          113.405834
       y        -21.85      186.42       19.49          146.745497
       z         10.82       19.49      133.95          198.239708
-------------------------------------------------------------------------------
  Centre of mass (Ang) =     1.209992     2.282071     1.143941
-------------------------------------------------------------------------------


  Vibrational Frequency Calculation : 

--------------------------------------------------------------------------------

  Frequencies (cm-1) and Eigenvectors : 

  Frequency     -63.5006  -42.4161  -33.4745   -0.0000   -0.0000   -0.0000
  IR Intensity    0.0007    0.0016    0.0009    0.0000    0.0000    0.0000
     in X         0.0000    0.0001    0.0003    0.0000    0.0000    0.0000
     in Y         0.0007    0.0011    0.0005    0.0000    0.0000    0.0000
     in Z         0.0000    0.0004    0.0001    0.0000    0.0000    0.0000
  Raman Intsty    0.0088    0.0252    0.0082    0.0000    0.0000    0.0000

     1 x       0.061328 -0.071883  0.152124  0.269342 -0.094775 -0.159879
     1 y      -0.143958 -0.184615 -0.204586 -0.182195 -0.079015 -0.260097
     1 z       0.020778 -0.183347  0.051227 -0.036725 -0.303089  0.117801
     2 x       0.038277 -0.105812 -0.022128  0.269342 -0.094775 -0.159879
     2 y      -0.069517  0.063387  0.209398 -0.182195 -0.079015 -0.260097
     2 z      -0.053285  0.177045 -0.067024 -0.036725 -0.303089  0.117801
     3 x      -0.092217  0.191958 -0.159015  0.269342 -0.094775 -0.159879
     3 y       0.216395  0.175644  0.031364 -0.182195 -0.079015 -0.260097
     3 z       0.026704  0.037100 -0.001430 -0.036725 -0.303089  0.117801
     4 x       0.107665 -0.248361 -0.034103  0.226027 -0.079534 -0.134167
     4 y      -0.153945 -0.023241 -0.064898 -0.152894 -0.066308 -0.218269
     4 z       0.095232 -0.064439  0.037990 -0.030819 -0.254347  0.098856
     5 x       0.058539 -0.137095 -0.011866  0.226027 -0.079534 -0.134167
     5 y      -0.152450 -0.264852 -0.365079 -0.152894 -0.066308 -0.218269
     5 z       0.410018 -0.153370  0.017194 -0.030819 -0.254347  0.098856
     6 x       0.082058 -0.050939  0.394200  0.226027 -0.079534 -0.134167
     6 y      -0.249113 -0.278564 -0.171470 -0.152894 -0.066308 -0.218269
     6 z      -0.260585 -0.435523  0.199814 -0.030819 -0.254347  0.098856
     7 x       0.000457  0.018064  0.216451  0.226027 -0.079534 -0.134167
     7 y      -0.071613  0.000749  0.072675 -0.152894 -0.066308 -0.218269
     7 z      -0.237372  0.146643 -0.095322 -0.030819 -0.254347  0.098856
     8 x      -0.118962  0.093486  0.031473  0.226027 -0.079534 -0.134167
     8 y      -0.002361  0.120359  0.298536 -0.152894 -0.066308 -0.218269
     8 z      -0.144354  0.210020 -0.093195 -0.030819 -0.254347  0.098856
     9 x      -0.134218  0.302710 -0.235902  0.226027 -0.079534 -0.134167
     9 y       0.271667  0.119088  0.007365 -0.152894 -0.066308 -0.218269
     9 z       0.050141  0.005781  0.008490 -0.030819 -0.254347  0.098856
    10 x       0.136492  0.012460 -0.306670  0.226027 -0.079534 -0.134167
    10 y       0.063990  0.121633  0.066289 -0.152894 -0.066308 -0.218269
    10 z       0.092475  0.094090  0.012874 -0.030819 -0.254347  0.098856
    11 x       0.080653 -0.157551 -0.057479  0.226027 -0.079534 -0.134167
    11 y      -0.175063  0.106099  0.337280 -0.152894 -0.066308 -0.218269
    11 z      -0.067041  0.268939 -0.091631 -0.030819 -0.254347  0.098856
    12 x      -0.221489  0.150229  0.038476  0.226027 -0.079534 -0.134167
    12 y       0.465407  0.033884 -0.223806 -0.152894 -0.066308 -0.218269
    12 z       0.068401 -0.108841  0.024313 -0.030819 -0.254347  0.098856


  Frequency       6.5526   71.2800   76.8681   92.7510  117.6416  139.8667
  IR Intensity    0.0006    0.0020    0.0006    0.0065    0.0162    0.0066
     in X         0.0000    0.0001    0.0002    0.0017    0.0067    0.0033
     in Y         0.0005    0.0001    0.0003    0.0012    0.0090    0.0012
     in Z         0.0001    0.0018    0.0001    0.0036    0.0004    0.0021
  Raman Intsty    0.0689    0.1163    0.0232    0.0380    0.0035    0.0186

     1 x      -0.055000 -0.043671 -0.038494  0.044638  0.019900 -0.035492
     1 y      -0.024765 -0.058545  0.024447 -0.123964  0.036861 -0.093137
     1 z      -0.123742  0.007547 -0.035676  0.046407 -0.077743 -0.038364
     2 x      -0.015833 -0.053256 -0.053087  0.034653  0.060862  0.018339
     2 y      -0.144607  0.016434  0.087327 -0.203336  0.013713 -0.188064
     2 z       0.061025 -0.024521  0.024072 -0.164759  0.034640  0.068707
     3 x       0.058674  0.082756  0.075775 -0.193852  0.071774  0.126309
     3 y       0.124344  0.015210 -0.109361  0.429368  0.132607  0.192438
     3 z       0.022618 -0.068157 -0.010150  0.043712  0.010019  0.044707
     4 x       0.016188 -0.162876  0.015268  0.085307 -0.002054  0.050148
     4 y      -0.293991  0.144712 -0.118611  0.005808  0.044733 -0.242253
     4 z       0.201122 -0.225121  0.185205 -0.196241 -0.076190  0.135118
     5 x      -0.022931 -0.261375 -0.041424  0.075774  0.005037  0.021020
     5 y       0.046766 -0.350499 -0.006343 -0.041090  0.021170  0.024196
     5 z      -0.383107 -0.136963  0.082413 -0.012649 -0.113270 -0.240193
     6 x      -0.017605  0.255870  0.080668 -0.105229  0.040843 -0.205197
     6 y       0.155300  0.074241  0.055973  0.005697  0.023736  0.003036
     6 z       0.313967  0.481762  0.122147  0.221336 -0.076978  0.052852
     7 x      -0.068132 -0.016827 -0.097230 -0.022144  0.036129  0.000475
     7 y      -0.115662  0.026964  0.052160 -0.175087  0.024723 -0.179945
     7 z      -0.331642  0.088844 -0.391686  0.164612 -0.065340  0.055594
     8 x       0.103334 -0.084238  0.148399 -0.175912  0.128157 -0.010271
     8 y       0.146473 -0.251938  0.142506  0.272396  0.205222 -0.080771
     8 z      -0.114116 -0.019747  0.039329  0.165870 -0.029227  0.060686
     9 x       0.046683  0.036860  0.389280  0.269347 -0.612378 -0.275318
     9 y       0.441628  0.089264 -0.524619 -0.202082 -0.373471 -0.244774
     9 z       0.093681 -0.036758 -0.147760 -0.146809 -0.008772  0.000307
    10 x      -0.079327  0.357023 -0.145697 -0.147732  0.123832  0.226178
    10 y      -0.071051  0.041357 -0.024593  0.322125  0.116153  0.053655
    10 z       0.264843 -0.169104  0.013401  0.013196 -0.006395  0.121474
    11 x      -0.019427 -0.064316 -0.102506  0.074642 -0.010750 -0.051843
    11 y      -0.197934 -0.061327  0.083062 -0.289208 -0.330625  0.527799
    11 z       0.124951  0.081393  0.148497 -0.155516  0.448341 -0.321423
    12 x       0.055706 -0.043234 -0.227921  0.082462  0.109416  0.114734
    12 y      -0.057872  0.319283  0.337590 -0.020188  0.050074  0.244830
    12 z      -0.121916  0.037140 -0.025623  0.035145 -0.032744  0.046151


  Frequency     148.9583  193.6219  199.0657  209.0198  230.6771  234.7848
  IR Intensity    0.0229    0.0007    0.0137    0.0188    0.0140    0.0445
     in X         0.0005    0.0000    0.0002    0.0058    0.0058    0.0142
     in Y         0.0084    0.0001    0.0056    0.0122    0.0006    0.0169
     in Z         0.0141    0.0007    0.0078    0.0008    0.0076    0.0134
  Raman Intsty    0.0076    0.0500    0.1294    0.2389    0.0280    0.0033

     1 x       0.084798  0.237831 -0.011965  0.001762  0.075684 -0.066973
     1 y      -0.038943 -0.242653  0.292032  0.165055  0.051570 -0.035389
     1 z       0.030723  0.019081 -0.029300  0.249488  0.227841  0.046185
     2 x       0.089260 -0.040879  0.215018 -0.111473  0.212722 -0.098534
     2 y      -0.193821  0.272409 -0.206259  0.002957  0.018758  0.210789
     2 z      -0.186725  0.023308  0.020135 -0.118988 -0.149450  0.085858
     3 x      -0.144363 -0.149075 -0.202788 -0.059110 -0.144040 -0.147134
     3 y       0.064314 -0.079617  0.110196  0.054366 -0.144154  0.182884
     3 z      -0.056756 -0.000781  0.179652 -0.230551  0.169446  0.128310
     4 x       0.143492  0.043803  0.111496  0.111698  0.205285 -0.086612
     4 y      -0.075084  0.011390  0.009455 -0.093291  0.060182 -0.039013
     4 z      -0.169940  0.173869 -0.063971  0.387738 -0.088261  0.234522
     5 x       0.203719  0.396418 -0.220429 -0.177915 -0.260921 -0.011720
     5 y       0.138063  0.098187  0.011184 -0.058207 -0.361677  0.041169
     5 z       0.161992 -0.499418 -0.283077 -0.132610 -0.207295  0.004174
     6 x      -0.056216 -0.094090  0.470065  0.047435 -0.491411  0.028473
     6 y       0.019195 -0.149699  0.058816 -0.013930  0.054524 -0.086866
     6 z       0.070177  0.009566 -0.259679 -0.143346 -0.096509 -0.020849
     7 x       0.046399  0.146584  0.033609  0.068243  0.061612 -0.083389
     7 y      -0.177921  0.118164 -0.040850  0.020592  0.050893  0.185277
     7 z      -0.073044  0.117581  0.077552  0.258582 -0.154438 -0.366487
     8 x      -0.145276 -0.225586 -0.234619 -0.066543  0.146107 -0.274284
     8 y      -0.087871 -0.160343 -0.119203 -0.008910  0.203319 -0.143191
     8 z      -0.084139  0.107930 -0.014934 -0.373745 -0.082645 -0.079221
     9 x       0.079966  0.003881  0.075021  0.096075  0.072299  0.132516
     9 y       0.109913  0.014530 -0.133957 -0.027836  0.022687 -0.152631
     9 z      -0.067758 -0.000588  0.082579 -0.261772  0.178210  0.017502
    10 x       0.101313 -0.080050 -0.029307 -0.068386  0.146548  0.471945
    10 y       0.027060  0.028041 -0.052137 -0.088438  0.028230  0.211335
    10 z      -0.126459 -0.104455  0.268135 -0.002181 -0.097143 -0.057832
    11 x      -0.403092  0.035960  0.089594 -0.153861  0.106809  0.039417
    11 y       0.359697 -0.093725  0.092967 -0.115662  0.071242 -0.036259
    11 z       0.549294  0.122709  0.064994  0.081384  0.062526 -0.046235
    12 x      -0.005689 -0.283972 -0.295746  0.344426 -0.158360  0.156210
    12 y      -0.112321  0.192872 -0.059800  0.120689 -0.041425 -0.406767
    12 z      -0.006591  0.023225 -0.074757  0.305175  0.190224  0.004178


  Frequency     255.2100  265.8277  288.9203  334.7592  368.0361  378.1994
  IR Intensity    0.0169    0.0564    0.0089    0.0091    0.0041    0.0116
     in X         0.0004    0.0289    0.0039    0.0044    0.0000    0.0004
     in Y         0.0162    0.0057    0.0003    0.0042    0.0013    0.0064
     in Z         0.0002    0.0219    0.0046    0.0005    0.0028    0.0048
  Raman Intsty    0.1972    0.0049    0.0263    0.0273    0.1111    1.3597

     1 x       0.074041 -0.140257 -0.084619 -0.172599 -0.242115 -0.197429
     1 y      -0.083708 -0.124151  0.029564  0.069164 -0.159501 -0.106197
     1 z      -0.179887  0.175218 -0.170924  0.020156 -0.082812 -0.015098
     2 x       0.073442 -0.102705 -0.003425  0.064363  0.137816  0.261608
     2 y       0.128758 -0.074629  0.005270  0.099413  0.091005 -0.045660
     2 z       0.165376  0.011817  0.012952 -0.054703 -0.222727  0.312894
     3 x      -0.037754 -0.105385 -0.088793 -0.000803  0.111197 -0.139846
     3 y       0.154325 -0.086426 -0.068856 -0.059231  0.037653 -0.021647
     3 z      -0.027313  0.137029 -0.030694  0.070459  0.133349 -0.177809
     4 x      -0.174616 -0.261510  0.035704 -0.276934  0.298952  0.045899
     4 y       0.037987  0.094555 -0.383224 -0.445201 -0.199197 -0.080779
     4 z      -0.095255 -0.248623  0.269999 -0.217753 -0.087942 -0.108359
     5 x       0.063612  0.153966 -0.078039 -0.165667 -0.077867 -0.094318
     5 y      -0.129524  0.349667  0.024380  0.219968  0.095929  0.106832
     5 z       0.174964 -0.152361  0.109973  0.035086  0.003599 -0.021492
     6 x      -0.307402  0.151477  0.056463 -0.033400  0.001092 -0.004982
     6 y       0.144917 -0.272193  0.097157  0.065759 -0.228596 -0.193919
     6 z       0.118890  0.015798  0.035569 -0.016159  0.112783  0.079314
     7 x       0.238452 -0.031528  0.084621  0.590730 -0.304600 -0.190878
     7 y       0.109701 -0.066700 -0.003777 -0.009098  0.367792  0.120152
     7 z       0.170313  0.061389  0.426393 -0.113353  0.198772 -0.048475
     8 x      -0.097346  0.226847  0.095151 -0.072203  0.151210 -0.221968
     8 y      -0.062173  0.314269  0.324774 -0.149033 -0.256186  0.210105
     8 z      -0.483852 -0.371721 -0.014771  0.059311 -0.253398  0.096035
     9 x       0.077751  0.119097  0.021259  0.032286  0.016139 -0.021106
     9 y      -0.145734 -0.043995  0.039819 -0.007474 -0.045070  0.081311
     9 z      -0.113468  0.127049 -0.025797  0.101729  0.190076 -0.269686
    10 x       0.018041  0.236097  0.308844 -0.148742 -0.199980 -0.015018
    10 y      -0.199710 -0.096788  0.076166  0.157117  0.253682 -0.271272
    10 z       0.391995  0.076579 -0.325391 -0.110328  0.028445 -0.173480
    11 x       0.148180 -0.089978  0.014618  0.103831  0.060609  0.452743
    11 y       0.038848  0.001649 -0.028453 -0.056905  0.034012  0.169404
    11 z       0.080855 -0.103572 -0.002310  0.024748  0.085458  0.178457
    12 x      -0.097429 -0.089363 -0.327895  0.100032  0.046225  0.139796
    12 y      -0.031896  0.059398 -0.106300  0.094566  0.014387  0.064919
    12 z      -0.194604  0.209295 -0.248842  0.193924 -0.072604  0.124705


  Frequency     412.1491  455.0928  486.2314  541.0185  565.6967  582.2926
  IR Intensity    0.0544    0.0174    0.0292    0.0185    0.0422    0.0915
     in X         0.0013    0.0155    0.0194    0.0053    0.0031    0.0138
     in Y         0.0044    0.0010    0.0046    0.0129    0.0038    0.0158
     in Z         0.0487    0.0009    0.0051    0.0004    0.0353    0.0618
  Raman Intsty    1.3639    3.4543    2.5360    0.0775    0.0566    0.2052

     1 x      -0.035106  0.259434  0.123247  0.000875  0.029592 -0.171770
     1 y      -0.006689  0.093087  0.115637  0.006946  0.012493 -0.195310
     1 z       0.079026 -0.059027  0.419968 -0.004498  0.005603 -0.485686
     2 x      -0.013078  0.052799  0.112736 -0.213463  0.130594  0.086736
     2 y       0.137554  0.029715 -0.054753  0.506512  0.215314 -0.074892
     2 z      -0.393593 -0.077557 -0.054630  0.117362 -0.510632 -0.187049
     3 x      -0.039732 -0.104368  0.101427  0.040504 -0.028634 -0.287418
     3 y       0.000338 -0.075632  0.105584 -0.211401 -0.035039 -0.143271
     3 z      -0.094745  0.061711 -0.130947 -0.067069 -0.004923  0.023735
     4 x       0.082296 -0.339681 -0.341660  0.321259 -0.279588 -0.076825
     4 y      -0.191843 -0.377228 -0.112073 -0.161786  0.133174  0.216347
     4 z      -0.149763 -0.141993  0.031468 -0.268022  0.249745  0.214934
     5 x      -0.030003  0.303883  0.003532 -0.072603 -0.126230  0.025901
     5 y       0.050721 -0.216147  0.020702  0.024152  0.102286  0.001820
     5 z       0.016411 -0.001035 -0.032229 -0.005366  0.030842  0.027494
     6 x      -0.013603  0.078510 -0.036058  0.043264 -0.026862  0.046252
     6 y      -0.066992  0.351600 -0.125984  0.064046 -0.149143  0.149817
     6 z       0.029336 -0.145853  0.011291 -0.035139  0.068550 -0.022990
     7 x       0.056949 -0.447846 -0.132336 -0.157019 -0.097401  0.046099
     7 y       0.363792  0.122500 -0.027813 -0.481612 -0.377353 -0.028207
     7 z       0.025312  0.080297 -0.010936  0.046890  0.049686  0.012699
     8 x      -0.010331 -0.062924  0.307012 -0.064438 -0.114616  0.256383
     8 y       0.106893  0.038698 -0.201086  0.021617  0.053445 -0.109267
     8 z       0.395589 -0.031451  0.030327 -0.036992  0.038632  0.091389
     9 x      -0.044090  0.021427 -0.079055 -0.012608  0.022069 -0.012092
     9 y       0.020123 -0.029612  0.086122  0.027704 -0.056437  0.063278
     9 z      -0.165763  0.144393 -0.423781 -0.142718  0.242116 -0.222186
    10 x       0.258607 -0.006233 -0.021498  0.090952  0.021153  0.071310
    10 y      -0.340211 -0.029382  0.259646  0.190489 -0.123571  0.194416
    10 z       0.412488 -0.030991  0.099094  0.254582  0.040035  0.188406
    11 x      -0.188206  0.055519  0.194448  0.091174  0.278169  0.108228
    11 y      -0.074679  0.019872  0.062983  0.006744  0.084180  0.045628
    11 z      -0.063244  0.016400  0.071357  0.030788  0.142461  0.061124
    12 x      -0.006856  0.149645 -0.296455 -0.034919  0.166545 -0.021430
    12 y      -0.024151  0.063491 -0.160865 -0.051295  0.103709 -0.041123
    12 z      -0.012615  0.199453 -0.055900  0.101408 -0.254390  0.422503


  Frequency     599.7059  694.7235  726.0186  776.4607  819.6626  886.8772
  IR Intensity    0.0593    0.0485    0.0358    0.0124    0.0076    0.0000
     in X         0.0094    0.0250    0.0350    0.0000    0.0013    0.0000
     in Y         0.0488    0.0033    0.0000    0.0107    0.0000    0.0000
     in Z         0.0011    0.0201    0.0008    0.0017    0.0063    0.0000
  Raman Intsty    0.0163    0.0315    0.1885    0.0428    0.0491    2.4568

     1 x       0.001467 -0.013619 -0.654272 -0.106392  0.180307 -0.175392
     1 y       0.030127 -0.079794  0.023917  0.657721  0.107331 -0.110381
     1 z       0.027249 -0.136154  0.258386 -0.295351 -0.074917  0.103781
     2 x       0.105723  0.043641 -0.167467  0.103674 -0.527011  0.471594
     2 y      -0.267028  0.039663 -0.019432  0.086342 -0.232292  0.164242
     2 z      -0.021434 -0.176960 -0.137444  0.041754 -0.030585  0.177932
     3 x       0.223946  0.607619  0.078627 -0.036402 -0.108972 -0.136302
     3 y      -0.528226  0.223809  0.036312  0.010873  0.072114  0.085656
     3 z      -0.142699 -0.076697 -0.014494  0.007013 -0.481037 -0.616423
     4 x      -0.080817 -0.044787  0.066983 -0.022354  0.077855 -0.046804
     4 y       0.060638  0.029120  0.046118 -0.047085 -0.032348  0.017887
     4 z       0.057212  0.052003  0.015643 -0.007420 -0.059646  0.032923
     5 x       0.041509 -0.033754  0.458388  0.266472 -0.044581  0.031452
     5 y      -0.020027  0.032895 -0.300731 -0.207589  0.026703 -0.016054
     5 z       0.003083  0.000736 -0.047787 -0.012299  0.010256 -0.007766
     6 x      -0.028581  0.005494  0.071314 -0.118701 -0.023738  0.021690
     6 y      -0.063146  0.028096  0.201778 -0.483217 -0.093986  0.076807
     6 z       0.028838 -0.004702 -0.096377  0.211013  0.040365 -0.032964
     7 x       0.035008 -0.042687  0.111834  0.013217  0.054947 -0.039079
     7 y       0.166091 -0.031354 -0.036772 -0.079789  0.128867 -0.081398
     7 z      -0.005352  0.006820 -0.010978  0.006395 -0.010553 -0.003308
     8 x      -0.412345 -0.260057 -0.022213  0.016386  0.102865  0.087772
     8 y       0.239816  0.117767  0.013591 -0.015484 -0.029085 -0.044312
     8 z      -0.068847 -0.052807  0.007749  0.013615  0.050487  0.052991
     9 x      -0.013724 -0.009148  0.000829  0.003380  0.049640  0.046662
     9 y       0.029454 -0.020592 -0.004456 -0.001187 -0.078571 -0.075257
     9 z      -0.014256  0.068572  0.014171 -0.000509  0.357010  0.344456
    10 x       0.051005 -0.044845  0.003697  0.002027  0.046484  0.016342
    10 y       0.441256 -0.136970 -0.032008 -0.004344  0.068596  0.077525
    10 z       0.265154 -0.081390  0.000429 -0.003438  0.081472  0.081499
    11 x      -0.033974  0.016770  0.212775 -0.099393  0.339311 -0.250968
    11 y       0.009161  0.004542  0.065703 -0.040401  0.115230 -0.084166
    11 z      -0.009420  0.020510  0.092193 -0.043568  0.140374 -0.104454
    12 x       0.047324 -0.346823 -0.018086 -0.014418 -0.059782 -0.057609
    12 y       0.048512 -0.242382 -0.001838 -0.020514 -0.042432 -0.037287
    12 z      -0.093295  0.454773 -0.101889  0.130049  0.089177  0.035476




--------------------------------------------------------------------------------
  Vibrational properties (for cluster):  Temperature  =       0.000 K
--------------------------------------------------------------------------------
  Zero point energy            =        0.691711 eV
--------------------------------------------------------------------------------

  Phonon density of states : 

--------------------------------------------------------------------------------
 Frequency (cm-1) Density of States                                             
--------------------------------------------------------------------------------
    0.00000 |******************************                                0.033
   13.85746 |                                                              0.000
   27.71492 |                                                              0.000
   41.57237 |                                                              0.000
   55.42983 |                                                              0.000
   69.28729 |************************************************************  0.067
   83.14475 |******************************                                0.033
   97.00220 |                                                              0.000
  110.85966 |******************************                                0.033
  124.71712 |                                                              0.000
  138.57458 |************************************************************  0.067
  152.43204 |                                                              0.000
  166.28949 |                                                              0.000
  180.14695 |******************************                                0.033
  194.00441 |******************************                                0.033
  207.86187 |******************************                                0.033
  221.71932 |************************************************************  0.067
  235.57678 |                                                              0.000
  249.43424 |******************************                                0.033
  263.29170 |******************************                                0.033
  277.14916 |******************************                                0.033
  291.00661 |                                                              0.000
  304.86407 |                                                              0.000
  318.72153 |                                                              0.000
  332.57899 |******************************                                0.033
  346.43644 |                                                              0.000
  360.29390 |******************************                                0.033
  374.15136 |******************************                                0.033
  388.00882 |                                                              0.000
  401.86628 |******************************                                0.033
  415.72373 |                                                              0.000
  429.58119 |                                                              0.000
  443.43865 |******************************                                0.033
  457.29611 |                                                              0.000
  471.15356 |                                                              0.000
  485.01102 |******************************                                0.033
  498.86848 |                                                              0.000
  512.72594 |                                                              0.000
  526.58340 |                                                              0.000
  540.44085 |******************************                                0.033
  554.29831 |******************************                                0.033
  568.15577 |                                                              0.000
  582.01323 |******************************                                0.033
  595.87068 |******************************                                0.033
  609.72814 |                                                              0.000
  623.58560 |                                                              0.000
  637.44306 |                                                              0.000
  651.30052 |                                                              0.000
  665.15797 |                                                              0.000
  679.01543 |                                                              0.000
  692.87289 |******************************                                0.033
  706.73035 |                                                              0.000
  720.58780 |******************************                                0.033
  734.44526 |                                                              0.000
  748.30272 |                                                              0.000
  762.16018 |                                                              0.000
  776.01764 |******************************                                0.033
  789.87509 |                                                              0.000
  803.73255 |                                                              0.000
  817.59001 |******************************                                0.033
  831.44747 |                                                              0.000
  845.30492 |                                                              0.000
  859.16238 |                                                              0.000
  873.01984 |******************************                                0.033
--------------------------------------------------------------------------------



  Time to end of optimisation =       0.0327 seconds


  Peak dynamic memory used =       0.65 MB 


  Timing analysis for GULP :

--------------------------------------------------------------------------------
  Task / Subroutine                                          Time (Seconds)
--------------------------------------------------------------------------------
  Calculation of real space energy and derivatives                0.0021
  Calculation of phonons                                          0.0016
  Calculation and manipulation of Hessian matrix                  0.0013
--------------------------------------------------------------------------------
  Total CPU time                                                  0.0327
--------------------------------------------------------------------------------


  Job Finished at 14:39.53 25th May        2022                               

