********************************************************************************
*                       GENERAL UTILITY LATTICE PROGRAM                        *
*                                 Julian Gale                                  *
*                       Curtin Institute for Computation                       *
*                           Department of Chemistry                            *
*                    Curtin University, Western Australia                      *
********************************************************************************
* Version = 5.1.1 * Last modified =  11th January 2019                         *
********************************************************************************
*  single       - perform a single point run                                   *
*  phonon       - calculate phonons for final geometry                         *
*  eigenvectors - output phonon eigenvectors                                   *
********************************************************************************

  Job Started  at 10:32.01 17th May        2022                               

  Number of CPUs =     1

  Host name      = login04                                 


  Total number of configurations input =      1

********************************************************************************
*  Input for Configuration =   1                                               *
********************************************************************************

  Formula = Al3F9                                                       

  Number of irreducible atoms/shells =      21


  Total number atoms/shells =      21

  Dimensionality = 0               :  Cluster


  Charge on cluster =  -0.000000


  Initial cluster dipoles : x =      0.485086 e.Angs
                            y =     -0.983883 e.Angs
                            z =     -0.222633 e.Angs

  Temperature of configuration =  0.000     K 

  Symmetry number =      1

  Cartesian coordinates of cluster :

--------------------------------------------------------------------------------
   No.  Atomic       x           y          z         Charge      Occupancy
        Label      (Angs)      (Angs)     (Angs)        (e)         (Frac)  
--------------------------------------------------------------------------------
      1 Al    c     -0.4045      1.2207     -1.8230     3.00000    1.000000    
      2 Al    c     -0.4445      1.0588      1.2820     3.00000    1.000000    
      3 Al    c     -2.9294      0.0396     -1.8508     3.00000    1.000000    
      4 F     c     -3.6156      0.7029     -3.6071     0.59000    1.000000    
      5 F     c     -1.0961     -0.6325     -1.7430     0.59000    1.000000    
      6 F     c     -2.1714      1.8825     -1.9868     0.59000    1.000000    
      7 F     c     -2.0540      0.8072      0.4540     0.59000    1.000000    
      8 F     c      0.6140      1.1887     -0.2932     0.59000    1.000000    
      9 F     c     -0.3280      2.7309      1.9829     0.59000    1.000000    
     10 F     c      0.3940     -0.3510      2.0579     0.59000    1.000000    
     11 F     c     -4.3248      0.4335     -0.5850     0.59000    1.000000    
     12 F     c      0.7616      1.1790     -3.2326     0.59000    1.000000    
     13 F     s     -3.6156      0.7029     -3.6071    -1.59000    1.000000    
     14 F     s     -1.0961     -0.6325     -1.7430    -1.59000    1.000000    
     15 F     s     -2.1714      1.8825     -1.9868    -1.59000    1.000000    
     16 F     s     -2.0540      0.8072      0.4540    -1.59000    1.000000    
     17 F     s      0.6140      1.1887     -0.2932    -1.59000    1.000000    
     18 F     s     -0.3280      2.7309      1.9829    -1.59000    1.000000    
     19 F     s      0.3940     -0.3510      2.0579    -1.59000    1.000000    
     20 F     s     -4.3248      0.4335     -0.5850    -1.59000    1.000000    
     21 F     s      0.7616      1.1790     -3.2326    -1.59000    1.000000    
--------------------------------------------------------------------------------


  Brillouin zone sampling points :

--------------------------------------------------------------------------------
  Point number          x          y          z            Weight
--------------------------------------------------------------------------------
        1           0.000000   0.000000   0.000000     1.00000000
--------------------------------------------------------------------------------


********************************************************************************
*  General input information                                                   *
********************************************************************************

  Species output for all configurations : 

--------------------------------------------------------------------------------
  Species    Type    Atomic    Atomic    Charge       Radii (Angs)     Library
                     Number     Mass       (e)     Cova   Ionic  VDW   Symbol
--------------------------------------------------------------------------------
    Al       Core       13      26.98   3.000000   1.350  0.000  2.050          
    F        Core        9      19.00   0.590000   0.710  0.000  1.300          
    F        Shell       9       0.00  -1.590000   0.710  0.000  1.300          
--------------------------------------------------------------------------------


  Accuracy factor for short range sums = 12.000

  Time limit = Infinity

  Maximum range for interatomic potentials =    100000.000000 Angstroms

  General interatomic potentials :

--------------------------------------------------------------------------------
Atom  Types   Potential      Parameter       Value         Units   Cutoffs(Ang)
  1     2                                                            Min /  Max 
--------------------------------------------------------------------------------
Al   c F    s Buckingham    Buckingham A     3760.0008    eV        0.000 10.000
                            Buckingham rho  0.22200000    Ang       
                            Buckingham C     0.0000000    eV*Ang^6  
--------------------------------------------------------------------------------
F    s F    s Buck 4 range  Buck4 A          1127.7000    eV        0.000 12.000
                            Buck4 rho       0.27530000    Ang       
                            Buck4 C          15.830000    eV*Ang^6  
                            Buck4 minimum    2.7900000    Ang       
--------------------------------------------------------------------------------
F    c F    s Spring (c-s)  Spring k 2       20.770000    eV*Ang^-2 0.000  0.800
                            Spring k 4       0.0000000    eV*Ang^-4 
--------------------------------------------------------------------------------

********************************************************************************
*  Output for configuration   1                                                *
********************************************************************************


  Components of energy : 

--------------------------------------------------------------------------------
  Interatomic potentials     =           8.91590380 eV    
  Monopole - monopole (real) =        -174.00779976 eV    
--------------------------------------------------------------------------------
  Total lattice energy       =        -165.09189596 eV    
--------------------------------------------------------------------------------
  Total lattice energy       =          -15928.8443 kJ/mol
--------------------------------------------------------------------------------

  Born effective charge tensors : 

-------------------------------------------------------------------------------
  Atom             x           y             z
-------------------------------------------------------------------------------
    1 Al    x       2.5138      0.0350     -0.1982
            y       0.0749      1.8910     -0.0779
            z       0.0328     -0.0928      2.4152
-------------------------------------------------------------------------------
    2 Al    x       2.0324     -0.1028      0.1776
            y      -0.0663      2.0775      0.0663
            z       0.1390      0.0382      2.1696
-------------------------------------------------------------------------------
    3 Al    x       3.0081     -0.1224      0.2773
            y      -0.0899      2.0592     -0.0825
            z       0.1361     -0.0727      3.3535
-------------------------------------------------------------------------------
    4 F     x      -0.8669      0.2101     -0.5745
            y       0.0733     -0.6381      0.2201
            z      -0.4788      0.5163     -1.6102
-------------------------------------------------------------------------------
    5 F     x      -0.9089     -0.0619     -0.0656
            y      -0.0194     -0.9347     -0.0029
            z      -0.0609     -0.0433     -0.4063
-------------------------------------------------------------------------------
    6 F     x      -0.9323     -0.0877     -0.0782
            y       0.0162     -0.8686      0.0482
            z      -0.1700      0.0038     -0.4422
-------------------------------------------------------------------------------
    7 F     x      -0.8521     -0.1873     -0.3449
            y      -0.1083     -0.4172     -0.0936
            z      -0.1667     -0.1433     -1.0153
-------------------------------------------------------------------------------
    8 F     x      -0.5882     -0.0276     -0.0020
            y      -0.0402     -0.3052      0.0134
            z      -0.0026      0.0453     -1.0120
-------------------------------------------------------------------------------
    9 F     x      -0.5127     -0.0781     -0.0563
            y      -0.0510     -0.9939     -0.2400
            z      -0.0437     -0.3266     -0.7281
-------------------------------------------------------------------------------
   10 F     x      -0.6547      0.2225     -0.1612
            y       0.2136     -0.8300      0.1962
            z      -0.1906      0.2811     -0.7365
-------------------------------------------------------------------------------
   11 F     x      -1.3522      0.2099      0.6039
            y       0.0373     -0.5472     -0.0735
            z       0.4135     -0.1896     -1.0107
-------------------------------------------------------------------------------
   12 F     x      -0.8864     -0.0096      0.4221
            y      -0.0401     -0.4927      0.0263
            z       0.3920     -0.0165     -0.9771
-------------------------------------------------------------------------------




  Moment of inertia tensor (10^-46 x kgm^2): 

-------------------------------------------------------------------------------
                x           y           z           Principal axis system
-------------------------------------------------------------------------------
       x        167.03      -13.10      -40.72          106.917025
       y        -13.10      241.82       -9.16          194.792647
       z        -40.72       -9.16      136.96          244.099914
-------------------------------------------------------------------------------
  Centre of mass (Ang) =    -1.296057     0.847222    -0.780513
-------------------------------------------------------------------------------


  Vibrational Frequency Calculation : 

--------------------------------------------------------------------------------

  Frequencies (cm-1) and Eigenvectors : 

  Frequency    -375.5083 -353.4200 -233.1502 -180.8591 -102.4098   -0.0000
  IR Intensity    0.5603    0.0099    0.0802    0.1897    0.0036    0.0000
     in X         0.0693    0.0066    0.0799    0.1824    0.0023    0.0000
     in Y         0.0039    0.0001    0.0003    0.0003    0.0003    0.0000
     in Z         0.4871    0.0033    0.0000    0.0070    0.0010    0.0000
  Raman Intsty    0.2109    0.3682    0.0423    0.6350    0.4728    0.0000

     1 x      -0.007578  0.247934  0.023284 -0.295256 -0.289620  0.022209
     1 y      -0.027718 -0.621655  0.016937 -0.031778  0.006389  0.325525
     1 z       0.078620  0.029240  0.080768 -0.102341  0.286795  0.025085
     2 x      -0.075163 -0.016380 -0.175554  0.320440  0.386368  0.022209
     2 y       0.006180  0.006754  0.083971 -0.003871 -0.060030  0.325525
     2 z       0.019303  0.023514  0.171164 -0.153142  0.061139  0.025085
     3 x      -0.118331 -0.291690 -0.046606 -0.355805 -0.098478  0.022209
     3 y       0.073125  0.597058 -0.135317  0.067234  0.024963  0.325525
     3 z      -0.651645 -0.021213 -0.303863  0.330390 -0.320007  0.025085
     4 x       0.244954 -0.108376 -0.042532  0.027031 -0.171905  0.018637
     4 y      -0.400786  0.051844  0.080291 -0.137868  0.051834  0.273174
     4 z       0.517231 -0.102099 -0.203783  0.340348 -0.270556  0.021051
     5 x       0.012223  0.176043 -0.049741 -0.000359 -0.118584  0.018637
     5 y       0.037852  0.109119 -0.033977  0.116967 -0.015071  0.273174
     5 z      -0.027520  0.027852  0.002365  0.051164 -0.054610  0.021051
     6 x       0.058790 -0.071303 -0.010823 -0.050481 -0.228761  0.018637
     6 y       0.144037 -0.129955 -0.099321  0.271493 -0.072388  0.273174
     6 z       0.024914  0.023127  0.057870  0.009611 -0.135885  0.021051
     7 x      -0.004134 -0.019649 -0.069332  0.070126  0.291055  0.018637
     7 y       0.048614 -0.001473  0.215738  0.016077  0.082339  0.273174
     7 z       0.056385  0.040883  0.474690 -0.067043 -0.150766  0.021051
     8 x       0.011954  0.047983 -0.034553  0.000537  0.087928  0.018637
     8 y       0.001779 -0.003058  0.004951  0.004559 -0.039528  0.273174
     8 z       0.013479  0.043013  0.038295 -0.043603  0.115643  0.021051
     9 x       0.006001 -0.001363  0.010027  0.062610  0.178827  0.018637
     9 y       0.016148  0.000512  0.090801 -0.005889 -0.023517  0.273174
     9 z       0.012513  0.006721  0.075591 -0.014444  0.053843  0.021051
    10 x       0.001733 -0.003804 -0.015981  0.091775  0.212351  0.018637
    10 y       0.000881  0.001404  0.029339 -0.037237 -0.082693  0.273174
    10 z       0.004400  0.003831  0.031029  0.012485  0.105452  0.021051
    11 x      -0.089662 -0.006739  0.459264  0.253307 -0.021879  0.018637
    11 y       0.089662  0.042192 -0.243033 -0.277482  0.112592  0.273174
    11 z       0.070841 -0.038732 -0.424518 -0.368675  0.053876  0.021051
    12 x      -0.002253  0.058869 -0.009340 -0.060566 -0.226970  0.018637
    12 y       0.000340 -0.049323 -0.003785  0.011743  0.020607  0.273174
    12 z      -0.012408 -0.042180  0.010345 -0.009105  0.249725  0.021051


  Frequency       0.0000    0.0000   38.3810  109.8887  139.2354  143.2223
  IR Intensity    0.0000    0.0000    0.0038    0.0345    0.0009    0.0008
     in X         0.0000    0.0000    0.0017    0.0011    0.0004    0.0006
     in Y         0.0000    0.0000    0.0008    0.0000    0.0001    0.0001
     in Z         0.0000    0.0000    0.0014    0.0335    0.0003    0.0000
  Raman Intsty    0.0000    0.0000    0.0366    0.0907    0.0419    0.0321

     1 x       0.301230  0.125922  0.043839 -0.060161  0.039340 -0.089177
     1 y      -0.030127  0.014657  0.258002  0.033797  0.020958 -0.059376
     1 z       0.124265 -0.301692  0.077429 -0.210357 -0.028050 -0.015694
     2 x       0.301230  0.125922 -0.083221  0.154329 -0.004816  0.027939
     2 y      -0.030127  0.014657 -0.460650 -0.075512 -0.027550  0.035099
     2 z       0.124265 -0.301692  0.025660 -0.059627 -0.005019  0.023010
     3 x       0.301230  0.125922  0.018330 -0.067821  0.000013  0.012024
     3 y      -0.030127  0.014657  0.225209  0.018549 -0.018097 -0.013397
     3 z       0.124265 -0.301692 -0.077518  0.045402  0.009030 -0.022595
     4 x       0.252787  0.105671  0.096431 -0.041864 -0.188290  0.386694
     4 y      -0.025282  0.012300  0.221708  0.070614 -0.075233  0.009699
     4 z       0.104281 -0.253174 -0.043162  0.058716  0.050971 -0.189188
     5 x       0.252787  0.105671  0.050108 -0.116516  0.036795 -0.004197
     5 y      -0.025282  0.012300  0.176662 -0.014583  0.029122 -0.018109
     5 z       0.104281 -0.253174  0.011493 -0.004420  0.058601 -0.040188
     6 x       0.252787  0.105671  0.036793 -0.067575 -0.002420 -0.066369
     6 y      -0.025282  0.012300  0.192957 -0.099840 -0.046054  0.028191
     6 z       0.104281 -0.253174  0.088591  0.263275 -0.147989  0.235240
     7 x       0.252787  0.105671 -0.084936 -0.153459 -0.002542  0.024912
     7 y      -0.025282  0.012300 -0.158549  0.013512  0.230643 -0.397862
     7 z       0.104281 -0.253174  0.014594  0.496137 -0.011208  0.016640
     8 x       0.252787  0.105671  0.000809 -0.046637 -0.008274 -0.090291
     8 y      -0.025282  0.012300 -0.119751 -0.127202  0.490697  0.405558
     8 z       0.104281 -0.253174  0.067058 -0.179755 -0.008687  0.022411
     9 x       0.252787  0.105671 -0.076382  0.375637  0.090590 -0.248440
     9 y      -0.025282  0.012300 -0.374981 -0.036755 -0.216954 -0.049872
     9 z       0.104281 -0.253174  0.016848 -0.110497  0.473808  0.259116
    10 x       0.252787  0.105671 -0.073536  0.303843 -0.015312  0.301553
    10 y      -0.025282  0.012300 -0.383423 -0.061879 -0.279352  0.164672
    10 z       0.104281 -0.253174  0.002009 -0.164589 -0.480285 -0.017414
    11 x       0.252787  0.105671  0.035713 -0.094430  0.034773 -0.075214
    11 y      -0.025282  0.012300  0.167194  0.244109 -0.109321  0.137907
    11 z       0.104281 -0.253174 -0.245395  0.171311  0.151411 -0.204890
    12 x       0.252787  0.105671  0.040085 -0.190395  0.013524 -0.170003
    12 y      -0.025282  0.012300  0.251298  0.039630  0.005871 -0.235292
    12 z       0.104281 -0.253174  0.057495 -0.262558 -0.057977 -0.063520


  Frequency     152.0536  154.1780  159.8839  166.8679  168.8357  172.7717
  IR Intensity    0.0033    0.0012    0.0010    0.0014    0.0019    0.0011
     in X         0.0000    0.0000    0.0009    0.0009    0.0006    0.0009
     in Y         0.0000    0.0000    0.0001    0.0000    0.0000    0.0000
     in Z         0.0033    0.0011    0.0000    0.0005    0.0012    0.0002
  Raman Intsty    0.3377    0.0956    0.0157    0.0254    0.0089    0.0531

     1 x       0.031667  0.055976 -0.017370 -0.024489  0.052680  0.032309
     1 y      -0.007679  0.032788 -0.030596 -0.016635  0.043231 -0.008789
     1 z      -0.184481 -0.035289 -0.049407 -0.041704  0.023990  0.084938
     2 x      -0.008214  0.005710  0.007399  0.020293  0.006688 -0.004283
     2 y       0.027201 -0.050207  0.032524  0.046006 -0.099161 -0.013652
     2 z       0.092403  0.016864  0.015780  0.011392  0.020392  0.028270
     3 x       0.013276 -0.042973  0.025772 -0.068564  0.073337  0.052639
     3 y       0.019276 -0.046974  0.007996 -0.059744 -0.027310  0.039412
     3 z       0.002818 -0.021491  0.035565 -0.009236  0.005614 -0.100099
     4 x      -0.126353 -0.298134  0.406758 -0.126121 -0.260020 -0.119987
     4 y       0.097733 -0.168747 -0.259078 -0.015889 -0.124380  0.337655
     4 z       0.105083  0.069912 -0.311201  0.051582  0.116332  0.189450
     5 x      -0.032534  0.115747  0.146193 -0.021307  0.136621  0.060058
     5 y      -0.038414 -0.037839  0.104252 -0.071352 -0.072536  0.017556
     5 z      -0.306254 -0.150315  0.078769 -0.343712  0.368982 -0.421410
     6 x       0.124129 -0.040784 -0.184150 -0.017813  0.117754  0.011363
     6 y       0.061724 -0.173655 -0.040662 -0.057282 -0.140330  0.079339
     6 z      -0.169167 -0.058018  0.093525  0.072187 -0.224271  0.306747
     7 x       0.051980 -0.007690  0.006519 -0.024950  0.074814  0.178447
     7 y       0.055759 -0.216036  0.064424 -0.335268 -0.151770 -0.155228
     7 z      -0.075771  0.074341 -0.049297  0.066592  0.016399 -0.056834
     8 x      -0.069472 -0.014735 -0.009350 -0.100000  0.075120  0.103707
     8 y      -0.277977  0.051010  0.006459  0.360075  0.326181  0.119622
     8 z      -0.067817 -0.006035 -0.009145  0.023402  0.026051  0.035368
     9 x       0.076979 -0.293233  0.224729  0.508745 -0.000726 -0.110787
     9 y      -0.186587 -0.041160 -0.012866  0.045422  0.006011  0.069643
     9 z       0.586096  0.023123  0.101279 -0.033751 -0.221568 -0.151477
    10 x      -0.031175  0.411819 -0.281012 -0.310649 -0.133897 -0.119464
    10 y       0.169508  0.193073 -0.028611 -0.034074 -0.028315 -0.109825
    10 z       0.374440  0.050509  0.185814  0.177758  0.273316 -0.029232
    11 x       0.048067 -0.022963 -0.065899 -0.122661  0.191922  0.210376
    11 y       0.138616 -0.159165 -0.274270  0.066995  0.289739 -0.328244
    11 z      -0.046145  0.037802  0.130480 -0.169387 -0.114248  0.301277
    12 x      -0.085389  0.127674 -0.262616  0.301460 -0.359726 -0.309836
    12 y      -0.066596  0.629251  0.428526  0.077567 -0.005408 -0.050741
    12 z      -0.294100  0.006249 -0.222532  0.202458 -0.300570 -0.189510


  Frequency     185.0805  195.9423  216.5172  227.6369  232.3176  236.4882
  IR Intensity    0.0110    0.0025    0.0025    0.0750    0.0198    0.0929
     in X         0.0023    0.0007    0.0007    0.0378    0.0192    0.0108
     in Y         0.0000    0.0000    0.0002    0.0015    0.0001    0.0000
     in Z         0.0087    0.0018    0.0016    0.0357    0.0005    0.0821
  Raman Intsty    0.2697    0.0286    0.0013    0.0397    0.1984    0.2664

     1 x      -0.071642  0.043181 -0.030386  0.067680 -0.086170  0.069876
     1 y      -0.112170 -0.080234 -0.133024  0.109128 -0.113832 -0.030625
     1 z       0.021232  0.152452 -0.024665  0.146807  0.033518  0.178999
     2 x       0.054598 -0.077432  0.184828  0.088438 -0.053265 -0.367818
     2 y       0.196484  0.180878 -0.073597  0.059360 -0.015449 -0.124601
     2 z       0.007221  0.008549 -0.015383  0.160460  0.079550  0.074234
     3 x       0.007041  0.033639 -0.037879  0.125312 -0.078344  0.058339
     3 y      -0.041986 -0.050264 -0.039482 -0.009973  0.092769  0.051112
     3 z       0.141830 -0.099062  0.068358  0.165128  0.074046  0.170755
     4 x       0.057121 -0.039998  0.230889 -0.068045  0.365800 -0.001360
     4 y      -0.209141  0.313985  0.207505 -0.221735  0.212009 -0.203970
     4 z       0.002209  0.177689  0.150953 -0.019152  0.053610  0.011894
     5 x      -0.024374  0.015263 -0.009926  0.332250 -0.158593  0.032382
     5 y      -0.141402 -0.190621 -0.412418  0.253837 -0.085360 -0.162569
     5 z      -0.180063  0.296778 -0.174545 -0.358606 -0.088055 -0.209522
     6 x      -0.035010  0.176723  0.165528  0.059582  0.173337 -0.016787
     6 y      -0.086424 -0.036700 -0.238619  0.019620  0.014093  0.043065
     6 z       0.106526  0.049851  0.077081 -0.221623 -0.631759  0.154153
     7 x       0.174310  0.013123 -0.042911 -0.135908 -0.080925 -0.083790
     7 y      -0.120363 -0.227724  0.487293  0.028148 -0.191025  0.233927
     7 z       0.021824 -0.181629 -0.001936  0.212351  0.165914 -0.340137
     8 x       0.033902  0.069644  0.062415  0.072623 -0.266212 -0.249391
     8 y      -0.217968 -0.200779  0.201714 -0.101511  0.035662  0.032485
     8 z       0.005073  0.065638  0.018083  0.232599  0.116313  0.165126
     9 x      -0.197009  0.254610 -0.214587 -0.030515  0.069458  0.297864
     9 y       0.192841  0.095757 -0.038044  0.167088  0.070048 -0.144992
     9 z       0.133739  0.161390 -0.090445 -0.038022 -0.080823 -0.171693
    10 x      -0.270627  0.000708 -0.032454  0.042134  0.084589  0.268382
    10 y      -0.180003  0.104318 -0.147151 -0.134491 -0.060913  0.185041
    10 z      -0.328286 -0.313572  0.162151 -0.118271 -0.054858 -0.099559
    11 x       0.325223 -0.266477 -0.253292 -0.353994  0.169541  0.224246
    11 y       0.478292 -0.138026  0.065437 -0.037021 -0.061282  0.123466
    11 z      -0.028870 -0.303775 -0.188766 -0.235008  0.229353 -0.069762
    12 x      -0.051615 -0.222866 -0.044565 -0.253489 -0.097482 -0.186027
    12 y       0.233727  0.219755  0.167550 -0.162829  0.110278  0.017613
    12 z       0.064934 -0.026177  0.013689 -0.017191  0.067334  0.054260


  Frequency     268.7180  278.5928  317.8293  333.0750  339.9010  373.3522
  IR Intensity    0.0554    0.0234    0.0632    0.0803    0.3237    0.1637
     in X         0.0114    0.0064    0.0162    0.0285    0.0217    0.1278
     in Y         0.0007    0.0000    0.0076    0.0166    0.2999    0.0061
     in Z         0.0433    0.0170    0.0394    0.0352    0.0021    0.0298
  Raman Intsty    0.3790    1.0543    0.2458    4.4943    0.9393    1.2895

     1 x       0.200662 -0.115650  0.009121  0.031196 -0.093385  0.124535
     1 y      -0.020214  0.026267  0.007416  0.206553 -0.449998 -0.177674
     1 z       0.113121  0.070654 -0.088056  0.046944  0.057479  0.085354
     2 x      -0.053413 -0.065353  0.165348 -0.099987 -0.037002  0.115372
     2 y      -0.014585 -0.001021  0.033391 -0.031352  0.028436  0.060036
     2 z       0.050778 -0.305324 -0.144522  0.185009 -0.003152  0.091772
     3 x      -0.064210 -0.010849  0.008738 -0.178935 -0.100899  0.283608
     3 y       0.089889 -0.021642  0.139953  0.050531 -0.549477 -0.026384
     3 z       0.120178  0.017226 -0.093703  0.038139 -0.041857  0.043847
     4 x      -0.021829  0.098998 -0.187873  0.073445 -0.043360 -0.012315
     4 y      -0.222358  0.101571 -0.130582  0.082216  0.167543  0.025776
     4 z      -0.146467  0.103476 -0.255707  0.030883 -0.083841  0.113829
     5 x      -0.590510  0.289591  0.270692  0.280963  0.158430 -0.063152
     5 y      -0.122791  0.035797 -0.438301 -0.505808  0.189352 -0.000377
     5 z      -0.103674 -0.090537  0.058760  0.008876  0.005297  0.002539
     6 x       0.152310 -0.104927  0.318674 -0.536696  0.020907 -0.272004
     6 y       0.260545 -0.182776  0.466292  0.213420  0.424481  0.203095
     6 z      -0.050860 -0.110209  0.088311 -0.161315 -0.009629 -0.103279
     7 x      -0.043401 -0.262516 -0.115645  0.004874 -0.170314  0.413219
     7 y      -0.052340 -0.022579 -0.024573 -0.043008  0.066044  0.062921
     7 z       0.088451  0.109588  0.140507  0.030667 -0.011036  0.263402
     8 x       0.562196  0.387006 -0.219628  0.224229  0.135163 -0.261485
     8 y       0.082821 -0.002377 -0.012316 -0.023927  0.057922  0.008237
     8 z      -0.017639 -0.195379 -0.077312  0.013864  0.161550 -0.116909
     9 x       0.011246  0.030481 -0.049766  0.033777  0.012346 -0.069276
     9 y      -0.099028 -0.296026 -0.001642  0.095561 -0.066896 -0.416559
     9 z      -0.028400  0.052234  0.043225  0.005609 -0.056237 -0.181516
    10 x      -0.016434 -0.141041 -0.063006  0.038698  0.063654 -0.187867
    10 y       0.083023  0.344916 -0.003932 -0.028025 -0.033678  0.254863
    10 z      -0.016337 -0.039255  0.027707 -0.039677  0.035146 -0.138666
    11 x      -0.065065  0.137657 -0.009844 -0.017566  0.007569 -0.140840
    11 y      -0.056099  0.055564 -0.066705  0.019167  0.207070 -0.013903
    11 z      -0.024756  0.068910  0.122453  0.018778  0.075371 -0.115229
    12 x      -0.087464 -0.206630 -0.161919  0.193475  0.091213 -0.030120
    12 y       0.060579 -0.038385 -0.003640 -0.078588  0.145289  0.047569
    12 z      -0.038835  0.360286  0.240865 -0.229537 -0.131481  0.012508


  Frequency     375.6501  412.1540  457.4994  476.5148  510.8442  525.5345
  IR Intensity    0.1108    0.3934    0.2804    0.3574    0.0349    0.1647
     in X         0.0745    0.2680    0.0150    0.0168    0.0261    0.1212
     in Y         0.0138    0.0044    0.0032    0.3406    0.0000    0.0002
     in Z         0.0225    0.1210    0.2622    0.0000    0.0088    0.0433
  Raman Intsty    0.1637    0.1883    0.5080    0.0103    0.0142    1.1683

     1 x       0.163551  0.157580 -0.288005 -0.023078 -0.553813  0.300637
     1 y      -0.206526 -0.044237 -0.109005  0.094503 -0.130401  0.074533
     1 z      -0.226488 -0.127798  0.504566 -0.056128 -0.448600 -0.210092
     2 x      -0.181749  0.274886  0.193076 -0.103263 -0.106182  0.394963
     2 y      -0.015861  0.063718  0.058245  0.727800 -0.074884 -0.007450
     2 z       0.075355 -0.329932  0.127874  0.061786  0.385422  0.582892
     3 x       0.319165  0.346889  0.334972 -0.050970  0.315597 -0.208153
     3 y      -0.021335  0.080963  0.157108  0.058602  0.212665 -0.129314
     3 z       0.012658 -0.094857  0.003287 -0.010947 -0.047887 -0.081557
     4 x      -0.021499 -0.040756 -0.037250  0.003138 -0.051874  0.025868
     4 y       0.034206  0.006712 -0.042972 -0.010831 -0.030010  0.029356
     4 z       0.139664  0.105782  0.015471 -0.007881 -0.003191  0.016291
     5 x      -0.065412 -0.200392 -0.034489  0.027360  0.052089 -0.020627
     5 y       0.041126 -0.082513 -0.028017 -0.030720 -0.034695  0.054636
     5 z       0.021726  0.024940 -0.025863  0.016390  0.038037  0.024006
     6 x      -0.283596 -0.321547  0.018943  0.014224  0.090064 -0.031128
     6 y       0.153780  0.017566  0.004384 -0.058546  0.009449 -0.041819
     6 z      -0.065124 -0.002641  0.006156  0.012541  0.025104  0.025077
     7 x      -0.045115 -0.371112 -0.400083 -0.045890  0.026674 -0.326272
     7 y       0.010651 -0.028362 -0.039684 -0.066190  0.009923 -0.039512
     7 z      -0.060160 -0.029205 -0.085888 -0.052767  0.007174 -0.228679
     8 x       0.059647 -0.043863 -0.065095  0.038711  0.239500 -0.058992
     8 y       0.050995 -0.021541  0.018104 -0.034924  0.012037  0.000586
     8 z      -0.394616  0.548158 -0.405831  0.031298  0.210883 -0.104413
     9 x       0.027385 -0.032088 -0.019083 -0.008428  0.021492 -0.041272
     9 y       0.267236 -0.001219  0.012967 -0.459100 -0.059249 -0.090888
     9 z       0.085400  0.055155  0.006801 -0.166428 -0.076733 -0.094194
    10 x       0.195952 -0.039289 -0.013617  0.166382 -0.030505 -0.121221
    10 y      -0.318323  0.011734 -0.030800 -0.358956  0.111957  0.145339
    10 z       0.183268  0.033517  0.012993  0.147641 -0.103889 -0.135719
    11 x      -0.000006  0.122741  0.073854  0.020309 -0.002183  0.104206
    11 y      -0.005061 -0.030514 -0.037423 -0.011348 -0.043401  0.024565
    11 z      -0.090345 -0.030071 -0.024843  0.008914 -0.002072  0.024136
    12 x      -0.226000 -0.002404  0.190776 -0.004515  0.065141 -0.111422
    12 y       0.055816  0.008444  0.016712 -0.019105  0.015195 -0.008108
    12 z       0.345197 -0.047150 -0.256551  0.016596  0.037037  0.126440




--------------------------------------------------------------------------------
  Vibrational properties (for cluster):  Temperature  =       0.000 K
--------------------------------------------------------------------------------
  Zero point energy            =        0.456821 eV
--------------------------------------------------------------------------------

  Phonon density of states : 

--------------------------------------------------------------------------------
 Frequency (cm-1) Density of States                                             
--------------------------------------------------------------------------------
    0.00000 |************************************************************  0.067
    8.21148 |                                                              0.000
   16.42295 |                                                              0.000
   24.63443 |                                                              0.000
   32.84591 |******************************                                0.033
   41.05739 |                                                              0.000
   49.26886 |                                                              0.000
   57.48034 |                                                              0.000
   65.69182 |                                                              0.000
   73.90329 |                                                              0.000
   82.11477 |                                                              0.000
   90.32625 |                                                              0.000
   98.53773 |                                                              0.000
  106.74920 |******************************                                0.033
  114.96068 |                                                              0.000
  123.17216 |                                                              0.000
  131.38364 |******************************                                0.033
  139.59511 |******************************                                0.033
  147.80659 |************************************************************  0.067
  156.01807 |******************************                                0.033
  164.22954 |************************************************************  0.067
  172.44102 |******************************                                0.033
  180.65250 |******************************                                0.033
  188.86398 |******************************                                0.033
  197.07545 |                                                              0.000
  205.28693 |                                                              0.000
  213.49841 |******************************                                0.033
  221.70988 |******************************                                0.033
  229.92136 |************************************************************  0.067
  238.13284 |                                                              0.000
  246.34432 |                                                              0.000
  254.55579 |                                                              0.000
  262.76727 |******************************                                0.033
  270.97875 |******************************                                0.033
  279.19023 |                                                              0.000
  287.40170 |                                                              0.000
  295.61318 |                                                              0.000
  303.82466 |                                                              0.000
  312.03613 |******************************                                0.033
  320.24761 |                                                              0.000
  328.45909 |******************************                                0.033
  336.67057 |******************************                                0.033
  344.88204 |                                                              0.000
  353.09352 |                                                              0.000
  361.30500 |                                                              0.000
  369.51647 |************************************************************  0.067
  377.72795 |                                                              0.000
  385.93943 |                                                              0.000
  394.15091 |                                                              0.000
  402.36238 |                                                              0.000
  410.57386 |******************************                                0.033
  418.78534 |                                                              0.000
  426.99682 |                                                              0.000
  435.20829 |                                                              0.000
  443.41977 |                                                              0.000
  451.63125 |******************************                                0.033
  459.84272 |                                                              0.000
  468.05420 |                                                              0.000
  476.26568 |******************************                                0.033
  484.47716 |                                                              0.000
  492.68863 |                                                              0.000
  500.90011 |                                                              0.000
  509.11159 |******************************                                0.033
  517.32306 |******************************                                0.033
--------------------------------------------------------------------------------



  XYZ File written as 003/3/sp_mod_-80/sp_mod_-80_eig.xyz


  Time to end of properties =       0.0128 seconds


  Peak dynamic memory used =       0.64 MB 


  Timing analysis for GULP :

--------------------------------------------------------------------------------
  Task / Subroutine                                          Time (Seconds)
--------------------------------------------------------------------------------
  Calculation of phonons                                          0.0037
--------------------------------------------------------------------------------
  Total CPU time                                                  0.0128
--------------------------------------------------------------------------------


  Job Finished at 10:32.01 17th May        2022                               

