********************************************************************************
*                       GENERAL UTILITY LATTICE PROGRAM                        *
*                                 Julian Gale                                  *
*                       Curtin Institute for Computation                       *
*                           Department of Chemistry                            *
*                    Curtin University, Western Australia                      *
********************************************************************************
* Version = 5.1.1 * Last modified =  24th November 2018                        *
********************************************************************************
*  optimise     - perform optimisation run                                     *
*  conp         - constant pressure calculation                                *
*  shell        - only shells and radii to be optimised                        *
*  phonon       - calculate phonons for final geometry                         *
*  eigenvectors - output phonon eigenvectors                                   *
********************************************************************************

  Job Started  at 14:39.07 25th May        2022                               

  Number of CPUs =     1

  Host name      = login03                                 


  Total number of configurations input =      1

********************************************************************************
*  Input for Configuration =   1                                               *
********************************************************************************

  Formula = Al3F9                                                       

  Number of irreducible atoms/shells =      21


  Total number atoms/shells =      21

  Dimensionality = 0               :  Cluster


  Charge on cluster =  -0.000000


  Initial cluster dipoles : x =      0.485086 e.Angs
                            y =     -0.983883 e.Angs
                            z =     -0.222633 e.Angs

  Temperature of configuration =  0.000     K 

  Symmetry number =      1

  Cartesian coordinates of cluster :

--------------------------------------------------------------------------------
   No.  Atomic       x           y          z         Charge      Occupancy
        Label      (Angs)      (Angs)     (Angs)        (e)         (Frac)  
--------------------------------------------------------------------------------
      1 Al    c     -0.4045      1.2207     -1.8230     3.00000    1.000000    
      2 Al    c     -0.4445      1.0588      1.2820     3.00000    1.000000    
      3 Al    c     -2.9294      0.0396     -1.8508     3.00000    1.000000    
      4 F     c     -3.6156      0.7029     -3.6071     0.59000    1.000000    
      5 F     c     -1.0961     -0.6325     -1.7430     0.59000    1.000000    
      6 F     c     -2.1714      1.8825     -1.9868     0.59000    1.000000    
      7 F     c     -2.0540      0.8072      0.4540     0.59000    1.000000    
      8 F     c      0.6140      1.1887     -0.2932     0.59000    1.000000    
      9 F     c     -0.3280      2.7309      1.9829     0.59000    1.000000    
     10 F     c      0.3940     -0.3510      2.0579     0.59000    1.000000    
     11 F     c     -4.3248      0.4335     -0.5850     0.59000    1.000000    
     12 F     c      0.7616      1.1790     -3.2326     0.59000    1.000000    
     13 F     s     -3.6156 *    0.7029 *   -3.6071 *  -1.59000    1.000000    
     14 F     s     -1.0961 *   -0.6325 *   -1.7430 *  -1.59000    1.000000    
     15 F     s     -2.1714 *    1.8825 *   -1.9868 *  -1.59000    1.000000    
     16 F     s     -2.0540 *    0.8072 *    0.4540 *  -1.59000    1.000000    
     17 F     s      0.6140 *    1.1887 *   -0.2932 *  -1.59000    1.000000    
     18 F     s     -0.3280 *    2.7309 *    1.9829 *  -1.59000    1.000000    
     19 F     s      0.3940 *   -0.3510 *    2.0579 *  -1.59000    1.000000    
     20 F     s     -4.3248 *    0.4335 *   -0.5850 *  -1.59000    1.000000    
     21 F     s      0.7616 *    1.1790 *   -3.2326 *  -1.59000    1.000000    
--------------------------------------------------------------------------------


  Brillouin zone sampling points :

--------------------------------------------------------------------------------
  Point number          x          y          z            Weight
--------------------------------------------------------------------------------
        1           0.000000   0.000000   0.000000     1.00000000
--------------------------------------------------------------------------------


********************************************************************************
*  General input information                                                   *
********************************************************************************

  Species output for all configurations : 

--------------------------------------------------------------------------------
  Species    Type    Atomic    Atomic    Charge       Radii (Angs)     Library
                     Number     Mass       (e)     Cova   Ionic  VDW   Symbol
--------------------------------------------------------------------------------
    Al       Core       13      26.98   3.000000   1.350  0.000  2.050          
    F        Core        9      19.00   0.590000   0.710  0.000  1.300          
    F        Shell       9       0.00  -1.590000   0.710  0.000  1.300          
--------------------------------------------------------------------------------


  Accuracy factor for short range sums = 12.000

  Time limit = Infinity

  Maximum range for interatomic potentials =    100000.000000 Angstroms

  General interatomic potentials :

--------------------------------------------------------------------------------
Atom  Types   Potential      Parameter       Value         Units   Cutoffs(Ang)
  1     2                                                            Min /  Max 
--------------------------------------------------------------------------------
Al   c F    s Buckingham    Buckingham A     3760.0008    eV        0.000 10.000
                            Buckingham rho  0.22200000    Ang       
                            Buckingham C     0.0000000    eV*Ang^6  
--------------------------------------------------------------------------------
F    s F    s Buck 4 range  Buck4 A          1127.7000    eV        0.000 12.000
                            Buck4 rho       0.27530000    Ang       
                            Buck4 C          15.830000    eV*Ang^6  
                            Buck4 minimum    2.7900000    Ang       
--------------------------------------------------------------------------------
F    c F    s Spring (c-s)  Spring k 2       20.770000    eV*Ang^-2 0.000  0.800
                            Spring k 4       0.0000000    eV*Ang^-4 
--------------------------------------------------------------------------------

********************************************************************************
*  Output for configuration   1                                                *
********************************************************************************


  Components of energy : 

--------------------------------------------------------------------------------
  Interatomic potentials     =           8.91590385 eV    
  Monopole - monopole (real) =        -174.00779843 eV    
--------------------------------------------------------------------------------
  Total lattice energy       =        -165.09189458 eV    
--------------------------------------------------------------------------------
  Total lattice energy       =          -15928.8442 kJ/mol
--------------------------------------------------------------------------------


  Number of variables =       27

  Maximum number of calculations  =          2000
  Maximum Hessian update interval =            10
  Maximum step size               =   1.000000000
  Maximum parameter tolerance     =   0.000001000
  Maximum function  tolerance     =   0.000010000
  Maximum gradient  tolerance     =   0.000000010
  Maximum gradient  component     =   0.010000000

  Symmetry not applied to optimisation

  Newton-Raphson optimiser to be used

  BFGS hessian update to be used

  Lower half triangular hessian to be used

  Minimiser to switch to RFO
  When gradient norm is less than     0.010000

  Shell only optimisation

  Start of cluster optimisation :

  Cycle:      0 Energy:      -165.091895  Gnorm:      1.429943  CPU:    0.004
  ** Hessian calculated **
  Cycle:      1 Energy:      -183.430129  Gnorm:      0.443163  CPU:    0.005
  ** Hessian calculated **
  Cycle:      2 Energy:      -184.773922  Gnorm:      0.018266  CPU:    0.007
  Cycle:      3 Energy:      -184.776857  Gnorm:      0.003060  CPU:    0.009
  ** Hessian has required structure
  Cycle:      4 Energy:      -184.776876  Gnorm:      0.002431  CPU:    0.010
  ** Hessian has required structure
  Cycle:      5 Energy:      -184.776878  Gnorm:      0.002369  CPU:    0.012
  ** Hessian has required structure
  Cycle:      6 Energy:      -184.776879  Gnorm:      0.002351  CPU:    0.014
  ** Hessian has required structure
  Cycle:      7 Energy:      -184.776879  Gnorm:      0.002354  CPU:    0.015
  ** Hessian has required structure
  Cycle:      8 Energy:      -184.776879  Gnorm:      0.002347  CPU:    0.017
  ** Hessian has required structure
  Cycle:      9 Energy:      -184.776879  Gnorm:      0.002343  CPU:    0.018
  ** Hessian has required structure
  Cycle:     10 Energy:      -184.776880  Gnorm:      0.002336  CPU:    0.019
  ** Hessian has required structure
  Cycle:     11 Energy:      -184.776884  Gnorm:      0.002227  CPU:    0.021
  ** Hessian has required structure
  Cycle:     12 Energy:      -184.776927  Gnorm:      0.000001  CPU:    0.023
  ** Hessian has required structure

  XYZ File written as 003/3/sp_mod_-80/sp_mod_-80_eig.xyz



  **** Optimisation achieved ****


  Final energy =    -184.77692737 eV
  Final Gnorm  =       0.00000000

  Components of energy : 

--------------------------------------------------------------------------------
  Interatomic potentials     =          37.91424817 eV    
  Monopole - monopole (real) =        -222.69117553 eV    
--------------------------------------------------------------------------------
  Total lattice energy       =        -184.77692737 eV    
--------------------------------------------------------------------------------
  Total lattice energy       =          -17828.1489 kJ/mol
--------------------------------------------------------------------------------

  Final cartesian coordinates of atoms :

--------------------------------------------------------------------------------
   No.  Atomic        x           y          z          Radius
        Label       (Angs)      (Angs)     (Angs)       (Angs) 
--------------------------------------------------------------------------------
     1  Al    c    -0.404526    1.220695   -1.823048    0.000000
     2  Al    c    -0.444528    1.058818    1.281961    0.000000
     3  Al    c    -2.929369    0.039556   -1.850822    0.000000
     4  F     c    -3.615601    0.702923   -3.607131    0.000000
     5  F     c    -1.096124   -0.632540   -1.743048    0.000000
     6  F     c    -2.171388    1.882484   -1.986801    0.000000
     7  F     c    -2.054026    0.807185    0.453981    0.000000
     8  F     c     0.613972    1.188708   -0.293222    0.000000
     9  F     c    -0.328050    2.730913    1.982899    0.000000
    10  F     c     0.394031   -0.351039    2.057887    0.000000
    11  F     c    -4.324762    0.433490   -0.585039    0.000000
    12  F     c     0.761593    1.178967   -3.232620    0.000000
    13  F     s    -3.475511    0.497866   -3.313901    0.000000
    14  F     s    -1.275560   -0.380619   -1.775774    0.000000
    15  F     s    -1.943353    1.671581   -1.923471    0.000000
    16  F     s    -1.811921    0.803130    0.505739    0.000000
    17  F     s     0.351228    1.204273   -0.355909    0.000000
    18  F     s    -0.337268    2.485332    1.877117    0.000000
    19  F     s     0.265641   -0.146070    1.939009    0.000000
    20  F     s    -4.069435    0.299039   -0.799665    0.000000
    21  F     s     0.571562    1.202849   -3.002916    0.000000
--------------------------------------------------------------------------------


  Final Cartesian derivatives :

--------------------------------------------------------------------------------
   No.  Atomic          x             y             z           Radius
        Label       (eV/Angs)     (eV/Angs)    (eV/Angs)      (eV/Angs)
--------------------------------------------------------------------------------
      1 Al    c       0.000000      0.000000      0.000000      0.000000
      2 Al    c       0.000000      0.000000      0.000000      0.000000
      3 Al    c       0.000000      0.000000      0.000000      0.000000
      4 F     c       0.000000      0.000000      0.000000      0.000000
      5 F     c       0.000000      0.000000      0.000000      0.000000
      6 F     c       0.000000      0.000000      0.000000      0.000000
      7 F     c       0.000000      0.000000      0.000000      0.000000
      8 F     c       0.000000      0.000000      0.000000      0.000000
      9 F     c       0.000000      0.000000      0.000000      0.000000
     10 F     c       0.000000      0.000000      0.000000      0.000000
     11 F     c       0.000000      0.000000      0.000000      0.000000
     12 F     c       0.000000      0.000000      0.000000      0.000000
     13 F     s      -0.000000      0.000000     -0.000000      0.000000
     14 F     s       0.000000     -0.000000      0.000000      0.000000
     15 F     s      -0.000000      0.000000     -0.000000      0.000000
     16 F     s      -0.000000      0.000000      0.000000      0.000000
     17 F     s      -0.000000     -0.000000      0.000000      0.000000
     18 F     s       0.000000     -0.000000     -0.000000      0.000000
     19 F     s       0.000000     -0.000000      0.000000      0.000000
     20 F     s      -0.000000      0.000000      0.000000      0.000000
     21 F     s      -0.000000     -0.000000      0.000000      0.000000
--------------------------------------------------------------------------------
  Maximum abs         0.000000      0.000000      0.000000      0.000000
--------------------------------------------------------------------------------


  Born effective charge tensors : 

-------------------------------------------------------------------------------
  Atom             x           y             z
-------------------------------------------------------------------------------
    1 Al    x       0.9242      0.2663      0.1859
            y       0.2058      1.4431     -0.0101
            z       0.1122     -0.0259      1.0362
-------------------------------------------------------------------------------
    2 Al    x       0.8873      0.1040     -0.3682
            y       0.0928      0.3905     -0.0328
            z      -0.4173     -0.0730      1.3731
-------------------------------------------------------------------------------
    3 Al    x       1.2880      0.3533      0.2622
            y       0.3734      1.6062      0.0878
            z       0.3473      0.1314      1.0315
-------------------------------------------------------------------------------
    4 F     x      -0.5307     -0.0433      0.0553
            y      -0.0742     -0.4964     -0.0787
            z       0.0336     -0.1247     -0.2488
-------------------------------------------------------------------------------
    5 F     x      -0.3564     -0.1505      0.0013
            y      -0.1174     -0.4432     -0.0035
            z      -0.0402     -0.0355     -0.3504
-------------------------------------------------------------------------------
    6 F     x      -0.1721     -0.2238      0.0088
            y      -0.2156     -0.5512      0.0254
            z       0.0229      0.0054     -0.3835
-------------------------------------------------------------------------------
    7 F     x      -0.1839      0.0205      0.1823
            y       0.0331     -0.3899      0.0093
            z       0.2416      0.0164     -0.6268
-------------------------------------------------------------------------------
    8 F     x      -0.3155     -0.0287      0.0886
            y      -0.0326     -0.2810     -0.0062
            z       0.1563      0.0015     -0.3203
-------------------------------------------------------------------------------
    9 F     x      -0.5219      0.0383      0.0134
            y       0.0287     -0.0497      0.1554
            z      -0.0043      0.2103     -0.5127
-------------------------------------------------------------------------------
   10 F     x      -0.4105     -0.2035      0.1017
            y      -0.1993     -0.1760     -0.1632
            z       0.1047     -0.2051     -0.4828
-------------------------------------------------------------------------------
   11 F     x      -0.3027     -0.0957     -0.2394
            y      -0.0737     -0.5120      0.0260
            z      -0.2391      0.0735     -0.3048
-------------------------------------------------------------------------------
   12 F     x      -0.3058     -0.0370     -0.2919
            y      -0.0212     -0.5404     -0.0097
            z      -0.3178      0.0256     -0.2106
-------------------------------------------------------------------------------




  Moment of inertia tensor (10^-46 x kgm^2): 

-------------------------------------------------------------------------------
                x           y           z           Principal axis system
-------------------------------------------------------------------------------
       x        167.03      -13.10      -40.72          106.917033
       y        -13.10      241.82       -9.16          194.792639
       z        -40.72       -9.16      136.96          244.099913
-------------------------------------------------------------------------------
  Centre of mass (Ang) =    -1.296057     0.847222    -0.780513
-------------------------------------------------------------------------------


  Vibrational Frequency Calculation : 

--------------------------------------------------------------------------------

  Frequencies (cm-1) and Eigenvectors : 

  Frequency     -38.9240   -0.0000    0.0000    0.0000   14.7850   35.6149
  IR Intensity    0.0012    0.0000    0.0000    0.0000    0.0010    0.0001
     in X         0.0009    0.0000    0.0000    0.0000    0.0000    0.0001
     in Y         0.0001    0.0000    0.0000    0.0000    0.0010    0.0000
     in Z         0.0002    0.0000    0.0000    0.0000    0.0000    0.0000
  Raman Intsty    0.0514    0.0000    0.0000    0.0000    0.0017    0.0000

     1 x      -0.081024 -0.235409  0.114643 -0.196287 -0.004368  0.092394
     1 y      -0.049420  0.141662 -0.147003 -0.255756 -0.148119  0.079427
     1 z       0.168947  0.177773  0.268954 -0.056121 -0.013601  0.147400
     2 x       0.082440 -0.235409  0.114643 -0.196287 -0.007624 -0.247714
     2 y       0.155977  0.141662 -0.147003 -0.255756  0.301324 -0.010827
     2 z       0.092630  0.177773  0.268954 -0.056121 -0.001361  0.133214
     3 x      -0.044577 -0.235409  0.114643 -0.196287  0.010587  0.170249
     3 y      -0.111885  0.141662 -0.147003 -0.255756 -0.188059 -0.077329
     3 z      -0.222070  0.177773  0.268954 -0.056121  0.012041 -0.282753
     4 x      -0.107255 -0.197551  0.096206 -0.164720 -0.010479  0.235482
     4 y      -0.133870  0.118880 -0.123362 -0.214625 -0.181675 -0.046253
     4 z      -0.163226  0.149184  0.225701 -0.047095  0.011009 -0.264497
     5 x      -0.051251 -0.197551  0.096206 -0.164720  0.013127  0.167281
     5 y      -0.059731  0.118880 -0.123362 -0.214625 -0.129721  0.023302
     5 z       0.152672  0.149184  0.225701 -0.047095  0.065392 -0.069679
     6 x      -0.061278 -0.197551  0.096206 -0.164720 -0.010733  0.057569
     6 y      -0.109465  0.118880 -0.123362 -0.214625 -0.150986 -0.022118
     6 z      -0.268284  0.149184  0.225701 -0.047095 -0.041173 -0.060589
     7 x       0.066718 -0.197551  0.096206 -0.164720  0.026736 -0.086282
     7 y       0.566734  0.118880 -0.123362 -0.214625 -0.031259 -0.090472
     7 z      -0.097959  0.149184  0.225701 -0.047095  0.025562 -0.099653
     8 x       0.079482 -0.197551  0.096206 -0.164720  0.007447 -0.056222
     8 y      -0.042101  0.118880 -0.123362 -0.214625 -0.036351  0.073928
     8 z       0.055108  0.149184  0.225701 -0.047095 -0.019567  0.215063
     9 x       0.406470 -0.197551  0.096206 -0.164720 -0.135193 -0.410471
     9 y       0.067126  0.118880 -0.123362 -0.214625  0.423102 -0.017069
     9 z       0.167603  0.149184  0.225701 -0.047095 -0.379880  0.165700
    10 x      -0.283362 -0.197551  0.096206 -0.164720  0.094866 -0.209250
    10 y      -0.097573  0.118880 -0.123362 -0.214625  0.495490  0.030792
    10 z       0.040729  0.149184  0.225701 -0.047095  0.328858  0.184714
    11 x       0.079729 -0.197551  0.096206 -0.164720  0.033542  0.069732
    11 y      -0.094698  0.118880 -0.123362 -0.214625 -0.157793 -0.124127
    11 z      -0.062513  0.149184  0.225701 -0.047095  0.035323 -0.302125
    12 x      -0.077821 -0.197551  0.096206 -0.164720 -0.017639  0.214372
    12 y      -0.090072  0.118880 -0.123362 -0.214625 -0.189275  0.182416
    12 z       0.128793  0.149184  0.225701 -0.047095 -0.022043  0.233615


  Frequency      46.4623   74.0714   94.0736  124.0762  152.7186  159.7382
  IR Intensity    0.0006    0.0028    0.0031    0.0048    0.0058    0.0178
     in X         0.0006    0.0011    0.0027    0.0008    0.0000    0.0119
     in Y         0.0000    0.0016    0.0003    0.0005    0.0016    0.0009
     in Z         0.0000    0.0002    0.0001    0.0034    0.0042    0.0050
  Raman Intsty    0.0022    0.0420    0.0455    0.0188    0.0031    0.0139

     1 x      -0.179260 -0.136741  0.089734 -0.014628 -0.019726 -0.035781
     1 y       0.203684  0.088877  0.132536 -0.022495 -0.020050 -0.006375
     1 z       0.004318  0.148170 -0.155396  0.069648 -0.002190 -0.065229
     2 x       0.103870  0.153190 -0.154545  0.126807  0.006620 -0.057580
     2 y       0.071595 -0.154079  0.008212 -0.038982 -0.045110  0.004659
     2 z      -0.002552  0.082375 -0.138726 -0.075768  0.000798 -0.010918
     3 x       0.044037 -0.066903  0.149987 -0.061218  0.017412 -0.124936
     3 y      -0.289511  0.013697 -0.107175  0.019366 -0.025897 -0.044787
     3 z       0.002990 -0.198127  0.304659  0.119698  0.122968 -0.026197
     4 x       0.032473 -0.031902  0.146230 -0.395387  0.132942 -0.192679
     4 y      -0.318371  0.084975 -0.157340 -0.048972 -0.547677 -0.108379
     4 z      -0.014596 -0.150827  0.232889  0.213852 -0.096395 -0.017523
     5 x       0.132232 -0.053574  0.195541 -0.020067  0.024085 -0.083025
     5 y       0.045897  0.039121  0.060154 -0.016415 -0.031501  0.016948
     5 z       0.042975 -0.157473  0.015420 -0.167796  0.198316 -0.035085
     6 x      -0.253132 -0.143526  0.031508  0.008268 -0.025141 -0.050284
     6 y      -0.094218  0.029881  0.011930 -0.039133 -0.063148 -0.069172
     6 z       0.041138  0.171500  0.049015 -0.334884 -0.142374 -0.114730
     7 x       0.065302  0.122491 -0.185113  0.295885 -0.003738 -0.191415
     7 y      -0.017343 -0.146342  0.136195 -0.001531 -0.050986 -0.018026
     7 z       0.054882  0.065768 -0.034966 -0.414578  0.026101  0.235131
     8 x      -0.049071  0.076585 -0.029845  0.178524 -0.002894 -0.177272
     8 y       0.355040 -0.401810 -0.123966 -0.034147 -0.024193 -0.061369
     8 z      -0.065185  0.003849 -0.057739 -0.027037 -0.006123 -0.003029
     9 x      -0.036389  0.231462  0.123690 -0.335100 -0.043555  0.227808
     9 y      -0.019855 -0.000547  0.052956 -0.053949 -0.020166  0.042201
     9 z       0.207275 -0.247355 -0.269470  0.054825 -0.038391 -0.141364
    10 x       0.315719  0.074119 -0.489766 -0.012209 -0.019774  0.239656
    10 y       0.056709 -0.012223 -0.136377 -0.011757 -0.027557  0.053839
    10 z      -0.252098  0.340115  0.001539  0.100657  0.050442 -0.223501
    11 x       0.065581  0.007045  0.004100  0.092290  0.011949 -0.097657
    11 y      -0.317568 -0.020226 -0.220205  0.018087  0.736077  0.017669
    11 z       0.049511 -0.093547  0.162943  0.272320 -0.083580 -0.022474
    12 x      -0.235354 -0.222577  0.102159  0.127069 -0.079006  0.584998
    12 y       0.326669  0.488547  0.336646  0.237999  0.137659  0.181703
    12 z      -0.069570  0.029340 -0.112189  0.167299 -0.052871  0.444533


  Frequency     177.8492  186.3397  200.6482  205.9356  220.2358  258.6467
  IR Intensity    0.0050    0.0192    0.0150    0.0052    0.0025    0.0247
     in X         0.0013    0.0002    0.0029    0.0009    0.0002    0.0180
     in Y         0.0037    0.0007    0.0051    0.0042    0.0017    0.0014
     in Z         0.0000    0.0184    0.0071    0.0000    0.0006    0.0053
  Raman Intsty    0.0044    0.1844    0.0787    0.0816    0.0021    0.1069

     1 x       0.138760 -0.116210  0.121883 -0.035307  0.027129 -0.242822
     1 y      -0.186375  0.116723 -0.306050 -0.336573  0.088661 -0.079500
     1 z      -0.037854  0.262721  0.151218 -0.014854  0.076848 -0.076013
     2 x      -0.112789  0.095981 -0.033778  0.070112 -0.095052  0.037843
     2 y       0.042851 -0.044124  0.051850  0.252187  0.074939  0.086095
     2 z       0.041449 -0.077694  0.087224 -0.065249  0.152223 -0.046505
     3 x       0.036922 -0.014114  0.011147 -0.085719  0.099496 -0.047984
     3 y       0.051730 -0.005893  0.061060 -0.036647 -0.048276 -0.037773
     3 z       0.004594  0.045159 -0.102713  0.082859 -0.169077  0.007956
     4 x       0.019110  0.221305 -0.176511  0.161255 -0.253156  0.517552
     4 y       0.114537  0.000424  0.230566 -0.049530 -0.118063  0.314491
     4 z       0.025854 -0.038181  0.012549 -0.016079 -0.044902 -0.093590
     5 x      -0.015074 -0.032093 -0.023793 -0.085282  0.108539 -0.119115
     5 y      -0.117181  0.062575 -0.213311 -0.251117  0.036958 -0.132314
     5 z       0.178179  0.248963  0.240430 -0.377285 -0.385540  0.073408
     6 x       0.166366 -0.099694  0.149485 -0.010300 -0.014330 -0.210093
     6 y      -0.097257  0.110806 -0.235074 -0.114714  0.023511 -0.047558
     6 z      -0.107992  0.158576 -0.077003  0.517205  0.198129 -0.265054
     7 x      -0.186956  0.085523  0.012127  0.143847 -0.094912  0.052322
     7 y       0.342675  0.164215 -0.251337  0.092399  0.037516 -0.161392
     7 z       0.091904 -0.149212  0.094159 -0.154701  0.158495  0.014145
     8 x      -0.000047  0.246111  0.081977  0.067144 -0.077490 -0.193611
     8 y      -0.500764 -0.147010  0.368420  0.009746 -0.158238 -0.093562
     8 z       0.037056  0.033375  0.148820 -0.064332  0.108035 -0.140310
     9 x      -0.261563 -0.300414  0.049221  0.014131 -0.104193  0.000722
     9 y      -0.018668  0.127409  0.181296  0.112470  0.168369  0.034316
     9 z       0.196567 -0.395011 -0.249272  0.231102 -0.079378  0.079457
    10 x       0.296252  0.081427 -0.144330 -0.145495 -0.049182 -0.093764
    10 y       0.138166 -0.208403 -0.193558  0.057703 -0.128258  0.008671
    10 z      -0.203211 -0.369670 -0.233610 -0.155711 -0.258628 -0.047149
    11 x       0.003057 -0.115756  0.061434 -0.184220  0.538499  0.325301
    11 y      -0.045841 -0.044295  0.031084  0.126570  0.163476  0.069708
    11 z      -0.005814 -0.060472 -0.032439 -0.069278  0.252145  0.370240
    12 x      -0.096090 -0.045484 -0.127880  0.099591 -0.091398  0.022126
    12 y       0.293720 -0.145211  0.312068  0.160700 -0.162696  0.044792
    12 z      -0.222301  0.297333 -0.065375  0.085794 -0.019844  0.145367


  Frequency     262.7656  266.4544  282.0675  284.3447  319.3966  377.5637
  IR Intensity    0.0690    0.0457    0.0204    0.0103    0.0080    0.0118
     in X         0.0133    0.0000    0.0069    0.0090    0.0007    0.0009
     in Y         0.0058    0.0187    0.0003    0.0012    0.0001    0.0100
     in Z         0.0499    0.0270    0.0133    0.0001    0.0071    0.0010
  Raman Intsty    0.0479    0.0067    0.0354    0.0003    0.1750    0.1144

     1 x      -0.017159  0.028895  0.025515 -0.076474  0.014539 -0.202754
     1 y      -0.038376  0.113969 -0.070901  0.174455  0.013853 -0.221001
     1 z       0.193157  0.128798  0.003546 -0.025463 -0.214621  0.034155
     2 x      -0.322635 -0.097811  0.244364  0.125442  0.041463  0.096834
     2 y      -0.183976  0.283392 -0.032842  0.033366 -0.020340  0.009877
     2 z       0.125445  0.118304  0.213060  0.002150  0.352714 -0.110162
     3 x       0.066186  0.026578 -0.071683  0.152421  0.036800  0.206053
     3 y      -0.009776  0.015324  0.121898 -0.284740  0.011955  0.014872
     3 z       0.149386  0.109256  0.130533  0.050400 -0.011288  0.000986
     4 x       0.206608  0.023257  0.220025 -0.085445 -0.061317 -0.102887
     4 y       0.072364 -0.095434 -0.110460  0.374073 -0.003289 -0.055903
     4 z       0.137283  0.091746 -0.044840  0.343721  0.012059  0.187906
     5 x       0.068855  0.037028 -0.092449  0.319037 -0.000367  0.154935
     5 y      -0.133009  0.122722  0.019176 -0.066951 -0.001458 -0.398570
     5 z      -0.315265 -0.081376 -0.430757 -0.094117  0.209963  0.014059
     6 x       0.003769  0.072819  0.095787 -0.266567 -0.012879  0.075053
     6 y      -0.068367  0.136085  0.016742 -0.340942  0.039341  0.650699
     6 z      -0.126953 -0.282009 -0.335387 -0.095447  0.140331 -0.074112
     7 x      -0.108577  0.141451  0.077374  0.020914  0.407516 -0.044118
     7 y       0.169161 -0.464009  0.183472  0.067791  0.075281  0.022992
     7 z      -0.379979 -0.082091  0.427214  0.162590 -0.252219  0.107945
     8 x      -0.167582  0.016376 -0.044275 -0.010500 -0.604337 -0.166574
     8 y       0.151312 -0.333122  0.117223 -0.078232 -0.066759  0.028084
     8 z       0.261355  0.134879  0.031550 -0.079013  0.019241 -0.111933
     9 x       0.255421  0.209785 -0.202803 -0.083506 -0.042729 -0.014709
     9 y      -0.085573  0.226116  0.141165  0.042437  0.184987 -0.039116
     9 z      -0.211251  0.215018 -0.098121  0.028992 -0.067105 -0.007384
    10 x       0.298572 -0.093213  0.007121 -0.045265  0.074498 -0.013681
    10 y       0.105208  0.057267 -0.273837 -0.061714 -0.229763  0.017581
    10 z      -0.016157 -0.303153  0.071756  0.018597  0.014350  0.016502
    11 x      -0.043305 -0.219805 -0.245930 -0.081876 -0.020806  0.118091
    11 y       0.082381 -0.073557 -0.119514  0.243661 -0.019609 -0.039538
    11 z       0.026912 -0.120291  0.028957 -0.356681 -0.081855 -0.228862
    12 x      -0.187719 -0.137248 -0.051026 -0.006775  0.149835 -0.125432
    12 y      -0.016865 -0.067840  0.004399 -0.088464  0.014753  0.047633
    12 z       0.066383  0.002628 -0.064037  0.039080 -0.145870  0.185277


  Frequency     387.3977  453.6431  475.8816  489.7499  530.3887  575.7279
  IR Intensity    0.0650    0.1122    0.1052    0.0097    0.0204    0.0284
     in X         0.0064    0.0120    0.0538    0.0003    0.0005    0.0126
     in Y         0.0576    0.0915    0.0411    0.0066    0.0082    0.0004
     in Z         0.0010    0.0087    0.0102    0.0028    0.0116    0.0153
  Raman Intsty    1.0784    0.8364    4.1869    1.5702    0.0004    0.1756

     1 x       0.091641 -0.069210 -0.097556 -0.085179  0.039842 -0.022863
     1 y       0.192547 -0.388965 -0.213856 -0.367456 -0.187583  0.002373
     1 z      -0.007819  0.069499 -0.150033 -0.045007 -0.029931 -0.019556
     2 x      -0.016587  0.127109 -0.253749 -0.095053  0.095079 -0.300116
     2 y      -0.008600  0.020226 -0.050002 -0.019051  0.020246 -0.063153
     2 z       0.050231 -0.177944  0.377956  0.125873 -0.143261  0.323938
     3 x      -0.199603 -0.199784 -0.152196  0.153618 -0.040099 -0.004295
     3 y      -0.655697 -0.256967 -0.187449  0.138400 -0.077075 -0.001563
     3 z      -0.091499 -0.064180 -0.037400  0.006319 -0.018194  0.003747
     4 x       0.091994  0.006276 -0.011319  0.100596  0.017849 -0.000764
     4 y       0.096582  0.085887  0.086755 -0.104566  0.016681  0.000876
     4 z       0.201001 -0.042521 -0.106141  0.368301  0.031562 -0.004050
     5 x      -0.455814  0.377983  0.336508 -0.327161 -0.021763  0.024454
     5 y      -0.015322  0.550186  0.019944  0.475249  0.042521  0.002287
     5 z      -0.026119  0.006288  0.027831 -0.024247 -0.002713 -0.007312
     6 x       0.324264  0.285439 -0.202227 -0.169198 -0.458524  0.056188
     6 y       0.229248  0.019696  0.289299 -0.052805  0.220011 -0.006674
     6 z      -0.003494  0.012971 -0.038929 -0.009360 -0.047758 -0.008358
     7 x       0.007143  0.033303 -0.105150 -0.060166  0.160084  0.472983
     7 y       0.021542  0.032914 -0.009582 -0.002935  0.039503  0.089926
     7 z      -0.002636  0.010596 -0.080647 -0.043995  0.101490  0.250836
     8 x       0.065954 -0.253619  0.400931  0.113695  0.048782  0.092468
     8 y       0.057317 -0.005604  0.038425  0.029700 -0.011947  0.014130
     8 z       0.041080  0.042205 -0.176740 -0.147090  0.635719 -0.246086
     9 x      -0.012830 -0.016178  0.034121  0.011985 -0.016512 -0.018536
     9 y       0.021670 -0.085202  0.205109  0.061224 -0.175239 -0.402051
     9 z      -0.007840 -0.036493  0.056053  0.019301 -0.083252 -0.185321
    10 x       0.010831 -0.031806  0.127386  0.046267 -0.084473 -0.207640
    10 y      -0.029772  0.053639 -0.172688 -0.055953  0.141901  0.374878
    10 z       0.009401 -0.016828  0.071589  0.029874 -0.085777 -0.218366
    11 x       0.079576 -0.079654 -0.131960  0.314249  0.020789 -0.003072
    11 y       0.115929  0.075546  0.068022 -0.077569  0.010319 -0.001090
    11 z      -0.067855  0.100276  0.150143 -0.328910 -0.015603 -0.008927
    12 x       0.037299 -0.152669  0.151700  0.001448  0.220774 -0.026089
    12 y       0.064962  0.018553  0.012511  0.023309  0.007503  0.002008
    12 z      -0.085044  0.129212 -0.130195  0.032233 -0.305604  0.060407


  Frequency     663.2646  713.5969  750.3780  773.8761  802.4893  816.8785
  IR Intensity    0.0501    0.0502    0.0310    0.0037    0.0029    0.0009
     in X         0.0142    0.0332    0.0101    0.0019    0.0007    0.0008
     in Y         0.0077    0.0008    0.0007    0.0017    0.0022    0.0000
     in Z         0.0282    0.0161    0.0202    0.0001    0.0001    0.0001
  Raman Intsty    0.0316    0.0013    0.0051    0.0702    0.0006    0.5586

     1 x      -0.039894 -0.338127 -0.186515 -0.162826  0.185030  0.644969
     1 y       0.088908  0.095298  0.065151  0.015237  0.002010 -0.009329
     1 z       0.022050 -0.497608  0.363184 -0.337941  0.076307 -0.222431
     2 x       0.014505 -0.176272  0.192818  0.359250 -0.312390  0.156133
     2 y       0.000381 -0.053274  0.071980  0.356244  0.627627 -0.092788
     2 z       0.001495 -0.113521  0.170043  0.419209 -0.167849  0.118330
     3 x      -0.314481 -0.278106 -0.459816  0.166424 -0.124288 -0.394702
     3 y       0.235877  0.109445  0.091022 -0.005348  0.006641  0.012465
     3 z      -0.598668  0.169414  0.291598 -0.060623  0.031436  0.090145
     4 x       0.223463  0.011379  0.022516 -0.012294  0.010847  0.035945
     4 y      -0.192955 -0.005906  0.003149  0.003110 -0.004876 -0.012061
     4 z       0.552381 -0.020011 -0.058162  0.006636  0.000982  0.007404
     5 x       0.182912  0.116755  0.156033 -0.041869  0.025944  0.077327
     5 y      -0.111460 -0.059489 -0.055681  0.009497 -0.019265 -0.052558
     5 z       0.034412  0.017340 -0.011882  0.008669 -0.004448  0.007995
     6 x       0.048162  0.255938  0.097108  0.094362 -0.084214 -0.264469
     6 y      -0.055084 -0.102180 -0.031030 -0.033815  0.022887  0.086477
     6 z       0.024793  0.024052 -0.009128  0.015952 -0.006469 -0.016545
     7 x      -0.000304  0.175163 -0.171644 -0.319275  0.132459 -0.091361
     7 y      -0.013278  0.030202 -0.040998 -0.070255 -0.001567 -0.010516
     7 z       0.004210  0.079951 -0.101978 -0.188915  0.070940 -0.067285
     8 x       0.000063  0.193604 -0.049525  0.089706 -0.026323 -0.044176
     8 y      -0.006541 -0.010642 -0.002878 -0.012592 -0.017065  0.005782
     8 z       0.012508  0.362535 -0.115523  0.163241 -0.070128 -0.047260
     9 x      -0.005893  0.017658 -0.011620 -0.041890 -0.010050 -0.009768
     9 y      -0.007440  0.112126 -0.121879 -0.377166 -0.329817  0.022462
     9 z      -0.004143  0.045567 -0.057080 -0.169344 -0.120573  0.006198
    10 x      -0.009372  0.055629 -0.047285 -0.039125  0.232658 -0.066222
    10 y       0.006530 -0.078503  0.072239  0.025059 -0.397212  0.097702
    10 z      -0.006177  0.045176 -0.048800 -0.036321  0.211305 -0.054028
    11 x      -0.088342  0.230357  0.299129 -0.087036  0.051865  0.145278
    11 y       0.005422 -0.062677 -0.081731  0.018035 -0.012777 -0.040709
    11 z       0.127641 -0.196267 -0.273571  0.065155 -0.039947 -0.122540
    12 x       0.054313 -0.112103  0.245711 -0.074962 -0.033314 -0.266836
    12 y      -0.012674 -0.003427 -0.013066  0.001827  0.001478  0.010254
    12 z      -0.060286  0.168021 -0.306767  0.110326  0.029964  0.302692




--------------------------------------------------------------------------------
  Vibrational properties (for cluster):  Temperature  =       0.000 K
--------------------------------------------------------------------------------
  Zero point energy            =        0.689770 eV
--------------------------------------------------------------------------------

  Phonon density of states : 

--------------------------------------------------------------------------------
 Frequency (cm-1) Density of States                                             
--------------------------------------------------------------------------------
    0.00000 |****************************************                      0.059
   12.76373 |********************                                          0.029
   25.52746 |********************                                          0.029
   38.29118 |********************                                          0.029
   51.05491 |                                                              0.000
   63.81864 |********************                                          0.029
   76.58237 |                                                              0.000
   89.34610 |********************                                          0.029
  102.10982 |                                                              0.000
  114.87355 |********************                                          0.029
  127.63728 |                                                              0.000
  140.40101 |********************                                          0.029
  153.16474 |********************                                          0.029
  165.92846 |********************                                          0.029
  178.69219 |********************                                          0.029
  191.45592 |********************                                          0.029
  204.21965 |********************                                          0.029
  216.98337 |********************                                          0.029
  229.74710 |                                                              0.000
  242.51083 |                                                              0.000
  255.27456 |************************************************************  0.088
  268.03829 |                                                              0.000
  280.80201 |****************************************                      0.059
  293.56574 |                                                              0.000
  306.32947 |                                                              0.000
  319.09320 |********************                                          0.029
  331.85693 |                                                              0.000
  344.62065 |                                                              0.000
  357.38438 |                                                              0.000
  370.14811 |********************                                          0.029
  382.91184 |********************                                          0.029
  395.67557 |                                                              0.000
  408.43929 |                                                              0.000
  421.20302 |                                                              0.000
  433.96675 |                                                              0.000
  446.73048 |********************                                          0.029
  459.49421 |                                                              0.000
  472.25793 |********************                                          0.029
  485.02166 |********************                                          0.029
  497.78539 |                                                              0.000
  510.54912 |                                                              0.000
  523.31284 |********************                                          0.029
  536.07657 |                                                              0.000
  548.84030 |                                                              0.000
  561.60403 |                                                              0.000
  574.36776 |********************                                          0.029
  587.13148 |                                                              0.000
  599.89521 |                                                              0.000
  612.65894 |                                                              0.000
  625.42267 |                                                              0.000
  638.18640 |                                                              0.000
  650.95012 |********************                                          0.029
  663.71385 |                                                              0.000
  676.47758 |                                                              0.000
  689.24131 |                                                              0.000
  702.00504 |********************                                          0.029
  714.76876 |                                                              0.000
  727.53249 |                                                              0.000
  740.29622 |********************                                          0.029
  753.05995 |                                                              0.000
  765.82368 |********************                                          0.029
  778.58740 |                                                              0.000
  791.35113 |********************                                          0.029
  804.11486 |********************                                          0.029
--------------------------------------------------------------------------------



  Time to end of optimisation =       0.0322 seconds


  Peak dynamic memory used =       0.65 MB 


  Timing analysis for GULP :

--------------------------------------------------------------------------------
  Task / Subroutine                                          Time (Seconds)
--------------------------------------------------------------------------------
  Calculation of real space energy and derivatives                0.0020
  Calculation of phonons                                          0.0016
  Calculation and manipulation of Hessian matrix                  0.0014
--------------------------------------------------------------------------------
  Total CPU time                                                  0.0323
--------------------------------------------------------------------------------


  Job Finished at 14:39.07 25th May        2022                               

