------------------------------------------------------------
          Invoking FHI-aims ...

          When using FHI-aims, please cite the following reference:

            Volker Blum, Ralf Gehrke, Felix Hanke, Paula Havu,
            Ville Havu, Xinguo Ren, Karsten Reuter, and Matthias Scheffler,
            'Ab Initio Molecular Simulations with Numeric Atom-Centered Orbitals',
            Computer Physics Communications 180, 2175-2196 (2009)

          In addition, many other developments in FHI-aims are likely important for
          your particular application. A partial list of references is given at the end of
          this file. Thank you for giving credit to the authors of these developments.

          For any questions about FHI-aims, please visit our slack channel at

            https://fhi-aims.slack.com

          and our main development and support site at

            https://aims-git.rz-berlin.mpg.de .

          The latter site, in particular, has a wiki to collect information, as well
          as an issue tracker to log discussions, suggest improvements, and report issues
          or bugs. https://aims-git.rz-berlin.mpg.de is also the main development site
          of the project and all new and updated code versions can be obtained there.
          Please send an email to aims-coordinators@fhi-berlin.mpg.de and we will add
          you to these sites. They are for you and everyone is welcome there.

------------------------------------------------------------



  Date     :  20220517, Time     :  111653.345
  Time zero on CPU 1             :   0.427620000000000E-01  s.
  Internal wall clock time zero  :           422018213.345  s.

  FHI-aims created a unique identifier for this run for later identification
  aims_uuid : D1A7E79C-1579-412E-AC9A-BC800266133D

  Build configuration of the current instance of FHI-aims
  -------------------------------------------------------
  FHI-aims version      : 210914
  Commit number         : GITDIR-NOTFOUND
  CMake host system     : Linux-3.10.0-693.17.1.el7.x86_64
  CMake version         : 3.21.1
  Fortran compiler      : /shared/ucl/apps/intel/2018.Update3/impi/2018.3.222/intel64/bin/mpiifort (Intel) version 18.0.3.20180410
  Fortran compiler flags: -O3 -ip -fp-model precise
  C compiler            : /shared/ucl/apps/intel/2018.Update3/compilers_and_libraries_2018.3.222/linux/bin/intel64/icc (Intel) version 18.0.3.20180410
  C compiler flags      : -O3 -ip -fp-model precise -std=gnu99
  ELPA2 kernel          : AVX2
  Using MPI
  Using ScaLAPACK
  Using LibXC
  Using i-PI
  Using RLSY
  Linking against: /shared/ucl/apps/intel/2019.Update5/compilers_and_libraries_2019.5.281/linux/mkl/lib/intel64/libmkl_intel_lp64.so
                   /shared/ucl/apps/intel/2019.Update5/compilers_and_libraries_2019.5.281/linux/mkl/lib/intel64/libmkl_sequential.so
                   /shared/ucl/apps/intel/2019.Update5/compilers_and_libraries_2019.5.281/linux/mkl/lib/intel64/libmkl_core.so
                   /shared/ucl/apps/intel/2019.Update5/compilers_and_libraries_2019.5.281/linux/mkl/lib/intel64/libmkl_blacs_intelmpi_lp64.so
                   /shared/ucl/apps/intel/2019.Update5/compilers_and_libraries_2019.5.281/linux/mkl/lib/intel64/libmkl_scalapack_lp64.so

  Using       24 parallel tasks.
  Task        0 on host node-k98a-011 reporting.
  Task        1 on host node-k98a-011 reporting.
  Task        2 on host node-k98a-011 reporting.
  Task        3 on host node-k98a-011 reporting.
  Task        4 on host node-k98a-011 reporting.
  Task        5 on host node-k98a-011 reporting.
  Task        6 on host node-k98a-011 reporting.
  Task        7 on host node-k98a-011 reporting.
  Task        8 on host node-k98a-011 reporting.
  Task        9 on host node-k98a-011 reporting.
  Task       10 on host node-k98a-011 reporting.
  Task       11 on host node-k98a-011 reporting.
  Task       12 on host node-k98a-011 reporting.
  Task       13 on host node-k98a-011 reporting.
  Task       14 on host node-k98a-011 reporting.
  Task       15 on host node-k98a-011 reporting.
  Task       16 on host node-k98a-011 reporting.
  Task       17 on host node-k98a-011 reporting.
  Task       18 on host node-k98a-011 reporting.
  Task       19 on host node-k98a-011 reporting.
  Task       20 on host node-k98a-011 reporting.
  Task       21 on host node-k98a-011 reporting.
  Task       22 on host node-k98a-011 reporting.
  Task       23 on host node-k98a-011 reporting.

  Performing system and environment tests:
  | Environment variable OMP_NUM_THREADS correctly set to 1.
  | Checking for ScaLAPACK...
  | Testing pdtran()...
  | All pdtran() tests passed.

  Obtaining array dimensions for all initial allocations:
  
  -----------------------------------------------------------------------
  Parsing control.in (first pass over file, find array dimensions only).
  The contents of control.in will be repeated verbatim below
  unless switched off by setting 'verbatim_writeout .false.' .
  in the first line of control.in .
  -----------------------------------------------------------------------
  
  #########################################################################################  Physical model
  #########################################################################################
  xc                 pbesol
  spin               none
  relativistic       atomic_zora scalar
  charge             0.0
  #  SCF convergence
  occupation_type    gaussian 0.01
  mixer              pulay
  n_max_pulay        10
  charge_mix_param   0.5
  sc_accuracy_rho    1E-5
  sc_accuracy_eev    1E-3
  sc_accuracy_etot   1E-6
  sc_accuracy_forces 1E-4
  sc_iter_limit      1500
  #  Relaxation
  #relax_geometry   bfgs 1.e-3
  
  ################################################################################
  #
  #  FHI-aims code project
  #  VB, Fritz-Haber Institut, 2009
  #
  #  Suggested "light" defaults for Al atom (to be pasted into control.in file)
  #  Be sure to double-check any results obtained with these settings for post-processing,
  #  e.g., with the "tight" defaults and larger basis sets.
  #
  ################################################################################
    species        Al
  #     global species definitions
      nucleus             13
      mass                26.9815386
  #
      l_hartree           4
  #
      cut_pot             3.5          1.5  1.0
      basis_dep_cutoff    1e-4
  #
      radial_base         41 5.0
      radial_multiplier   1
      angular_grids       specified
        division   0.6594  110
        division   0.8170  194
        division   0.9059  302
  #      division   1.0363  434
  #      division   1.1443  590
  #      division   1.2621  770
  #      division   2.8177  974
  #      outer_grid   974
        outer_grid   302
  ################################################################################
  #
  #  Definition of "minimal" basis
  #
  ################################################################################
  #     valence basis states
      valence      3  s   2.
      valence      3  p   1.
  #     ion occupancy
      ion_occ      3  s   1.
      ion_occ      2  p   6.
  ################################################################################
  #
  #  Suggested additional basis functions. For production calculations,
  #  uncomment them one after another (the most important basis functions are
  #  listed first).
  #
  #  Constructed for dimers: 2.0 A, 2.5 A, 3.0 A, 3.75 A, 4.5 A
  #
  ################################################################################
  #  "First tier" - improvements: -199.47 meV to -10.63 meV
       ionic 3 d auto
       ionic 3 p auto
  #     hydro 4 f 4.7
       ionic 3 s auto
  #  "Second tier" - improvements: -5.35 meV to -1.57 meV
  #     hydro 5 g 7
  #     hydro 3 d 6
  #     hydro 2 s 11.6
  #     hydro 2 p 0.9
  #  "Third tier" - improvements: -0.63 meV to -0.20 meV
  #     hydro 5 f 7.6
  #     hydro 4 p 7.2
  #     hydro 4 s 3.7
  #     hydro 4 d 7.6
  #  "Fourth tier" - improvements: -0.17 meV to -0.08 meV
  #     hydro 4 d 13.6
  #     hydro 5 g 11.2
  #     hydro 4 d 0.9
  #     hydro 1 s 0.4
  #     hydro 4 p 0.1
  #     hydro 5 f 9.8
  #  Further basis functions that fell out of the optimization - noise level...
  #     hydro 4 p 5
  
  ################################################################################
  #
  #  FHI-aims code project
  #  VB, Fritz-Haber Institut, 2009
  #
  #  Suggested "light" defaults for F atom (to be pasted into control.in file)
  #  Be sure to double-check any results obtained with these settings for post-processing,
  #  e.g., with the "tight" defaults and larger basis sets.
  #
  ################################################################################
    species        F
  #     global species definitions
      nucleus             9
      mass                18.9984032
  #
      l_hartree           4
  #
      cut_pot             3.5  1.5  1.0
      basis_dep_cutoff    1e-4
  #
      radial_base         37 5.0
      radial_multiplier   1
      angular_grids specified
        division   0.4014  110
        division   0.5291  194
        division   0.6019  302
  #      division   0.6814  434
  #      division   0.7989  590
  #      division   0.8965  770
  #      division   1.3427  974
  #      outer_grid   974
        outer_grid   302
  ################################################################################
  #
  #  Definition of "minimal" basis
  #
  ################################################################################
  #     valence basis states
      valence      2  s   2.
      valence      2  p   5.
  #     ion occupancy
      ion_occ      2  s   1.
      ion_occ      2  p   4.
  ################################################################################
  #
  #  Suggested additional basis functions. For production calculations,
  #  uncomment them one after another (the most important basis functions are
  #  listed first).
  #
  #  Constructed for dimers: 1.2 A, 1.418 A, 1.75 A, 2.25 A, 3.25 A
  #
  ################################################################################
  #  "First tier" - improvements: -149.44 meV to -45.88 meV
       hydro 2 p 1.7
       hydro 3 d 7.4
       hydro 3 s 6.8
  #  "Second tier" - improvements: -12.96 meV to -1.56 meV
  #     hydro 4 f 11.2
  #     ionic 2 p auto
  #     hydro 1 s 0.75
  #     hydro 4 d 8.8
  #     hydro 5 g 16.8
  #  "Third tier" - improvements: -0.58 meV to -0.05 meV
  #     hydro 3 p 6.2
  #     hydro 3 s 3.2
  #     hydro 4 f 9.6
  #     hydro 3 s 19.6
  #     hydro 4 d 8.6
  #     hydro 5 g 14.4
  # Further basis functions: -0.05 meV and below
  #     hydro 3 p 4.2
  
  -----------------------------------------------------------------------
  Completed first pass over input file control.in .
  -----------------------------------------------------------------------
  
  
  -----------------------------------------------------------------------
  Parsing geometry.in (first pass over file, find array dimensions only).
  The contents of geometry.in will be repeated verbatim below
  unless switched off by setting 'verbatim_writeout .false.' .
  in the first line of geometry.in .
  -----------------------------------------------------------------------
  
  atom 1.434106862 0.169629716 2.444133237 Al
  atom 1.252281200 1.206467200 -0.129065800 Al
  atom -0.443708185 0.696218764 -2.272133473 Al
  atom -1.729265804 -0.529896544 -2.077324277 F
  atom 2.131586792 -0.281887754 0.736412313 F
  atom -0.152179016 1.665625054 -3.805285194 F
  atom -0.434573626 1.867364081 -0.762197095 F
  atom 2.514815153 2.472304709 -0.457463844 F
  atom 1.215423823 0.002163728 -1.624320777 F
  atom 0.481587671 1.583311023 1.598536302 F
  atom 2.702952530 0.780405219 3.551716809 F
  atom 0.206462359 -1.130061859 2.910587386 F
  
  -----------------------------------------------------------------------
  Completed first pass over input file geometry.in .
  -----------------------------------------------------------------------
  

  Basic array size parameters:
  | Number of species                 :        2
  | Number of atoms                   :       12
  | Max. basis fn. angular momentum   :        2
  | Max. atomic/ionic basis occupied n:        3
  | Max. number of basis fn. types    :        3
  | Max. radial fns per species/type  :        5
  | Max. logarithmic grid size        :     1340
  | Max. radial integration grid size :       41
  | Max. angular integration grid size:      302
  | Max. angular grid division number :        8
  | Radial grid for Hartree potential :     1340
  | Number of spin channels           :        1

------------------------------------------------------------
          Reading file control.in.
------------------------------------------------------------
  XC: Using PBEsol gradient-corrected functionals.
  Spin treatment: No spin polarisation.
  Scalar relativistic treatment of kinetic energy: on-site free-atom approximation to ZORA.
  Charge =   0.000000E+00: Neutral system requested explicitly.
  Occupation type: Gaussian broadening, width =   0.100000E-01 eV.
  Using pulay charge density mixing.
  Pulay mixing - number of memorized iterations:   10
  Charge density mixing - mixing parameter:     0.5000
  Convergence accuracy of self-consistent charge density:  0.1000E-04
  Convergence accuracy of sum of eigenvalues:  0.1000E-02
  Convergence accuracy of total energy:  0.1000E-05
  Convergence accuracy of forces:  0.1000E-03
  Maximum number of s.-c. iterations  :  1500
 
  Reading configuration options for species Al                  .
  | Found nuclear charge :  13.0000
  | Found atomic mass :    26.9815386000000      amu
  | Found l_max for Hartree potential  :   4
  | Found cutoff potl. onset [A], width [A], scale factor :    3.50000    1.50000    1.00000
  | Threshold for basis-dependent cutoff potential is   0.100000E-03
  | Found data for basic radial integration grid :    41 points, outermost radius =    5.000 A
  | Found multiplier for basic radial grid :   1
  | Found angular grid specification: user-specified.
  | Specified grid contains     4 separate shells.
  | Check grid settings after all constraints further below.
  | Found free-atom valence shell :  3 s   2.000
  | Found free-atom valence shell :  3 p   1.000
  | Found free-ion valence shell :  3 s   1.000
  | Found free-ion valence shell :  2 p   6.000
  | Found ionic basis function :  3 d , default cutoff radius.
  | Found ionic basis function :  3 p , default cutoff radius.
  | Found ionic basis function :  3 s , default cutoff radius.
  Species Al                  : Missing cutoff potential type.
  Defaulting to exp(1/x)/(1-x)^2 type cutoff potential.
  Species Al: No 'logarithmic' tag. Using default grid for free atom:
  | Default logarithmic grid data [bohr] : 0.1000E-03 0.1000E+03 0.1012E+01
  | Will include ionic basis functions of  2.0-fold positive Al                   ion.
  Species Al: On-site basis accuracy parameter (for Gram-Schmidt orthonormalisation) not specified.
  Using default value basis_acc =  0.1000000E-03.
  Species Al                  : Using default innermost maximum threshold i_radial=  2 for radial functions.
  Species Al                  : Default cutoff onset for free atom density etc. : 0.35000000E+01 AA.
  Species Al                  : Basic radial grid will be enhanced according to radial_multiplier =   1, to contain    41 grid points.
 
  Reading configuration options for species F                   .
  | Found nuclear charge :   9.0000
  | Found atomic mass :    18.9984032000000      amu
  | Found l_max for Hartree potential  :   4
  | Found cutoff potl. onset [A], width [A], scale factor :    3.50000    1.50000    1.00000
  | Threshold for basis-dependent cutoff potential is   0.100000E-03
  | Found data for basic radial integration grid :    37 points, outermost radius =    5.000 A
  | Found multiplier for basic radial grid :   1
  | Found angular grid specification: user-specified.
  | Specified grid contains     4 separate shells.
  | Check grid settings after all constraints further below.
  | Found free-atom valence shell :  2 s   2.000
  | Found free-atom valence shell :  2 p   5.000
  | Found free-ion valence shell :  2 s   1.000
  | Found free-ion valence shell :  2 p   4.000
  | Found hydrogenic basis function :  2 p   1.700
  | Found hydrogenic basis function :  3 d   7.400
  | Found hydrogenic basis function :  3 s   6.800
  Species F                   : Missing cutoff potential type.
  Defaulting to exp(1/x)/(1-x)^2 type cutoff potential.
  Species F : No 'logarithmic' tag. Using default grid for free atom:
  | Default logarithmic grid data [bohr] : 0.1000E-03 0.1000E+03 0.1012E+01
  Species F : On-site basis accuracy parameter (for Gram-Schmidt orthonormalisation) not specified.
  Using default value basis_acc =  0.1000000E-03.
  Species F                   : Using default innermost maximum threshold i_radial=  2 for radial functions.
  Species F                   : Default cutoff onset for free atom density etc. : 0.35000000E+01 AA.
  Species F                   : Basic radial grid will be enhanced according to radial_multiplier =   1, to contain    37 grid points.
 
  Finished reading input file 'control.in'.
 
------------------------------------------------------------


------------------------------------------------------------
          Reading geometry description geometry.in.
------------------------------------------------------------
  | The smallest distance between any two atoms is         1.78716753 AA.
  | The first atom of this pair is atom number                      3 .
  | The second atom of this pair is atom number                     4 .
  Input structure read successfully.
  The structure contains       12 atoms,  and a total of        120.000 electrons.

  Input geometry:
  | No unit cell requested.
  | Atomic structure:
  |       Atom                x [A]            y [A]            z [A]
  |    1: Species Al            1.43410686        0.16962972        2.44413324
  |    2: Species Al            1.25228120        1.20646720       -0.12906580
  |    3: Species Al           -0.44370818        0.69621876       -2.27213347
  |    4: Species F            -1.72926580       -0.52989654       -2.07732428
  |    5: Species F             2.13158679       -0.28188775        0.73641231
  |    6: Species F            -0.15217902        1.66562505       -3.80528519
  |    7: Species F            -0.43457363        1.86736408       -0.76219709
  |    8: Species F             2.51481515        2.47230471       -0.45746384
  |    9: Species F             1.21542382        0.00216373       -1.62432078
  |   10: Species F             0.48158767        1.58331102        1.59853630
  |   11: Species F             2.70295253        0.78040522        3.55171681
  |   12: Species F             0.20646236       -1.13006186        2.91058739

 
  Finished reading input file 'control.in'.
 

------------------------------------------------------------
          Reading geometry description geometry.in.
------------------------------------------------------------
 
  Consistency checks for stacksize environment parameter are next.
 
  | Maximum stacksize for task 0: unlimited
  | Maximum stacksize for task 1: unlimited
  | Maximum stacksize for task 2: unlimited
  | Maximum stacksize for task 3: unlimited
  | Maximum stacksize for task 4: unlimited
  | Maximum stacksize for task 5: unlimited
  | Maximum stacksize for task 6: unlimited
  | Maximum stacksize for task 7: unlimited
  | Maximum stacksize for task 8: unlimited
  | Maximum stacksize for task 9: unlimited
  | Maximum stacksize for task 10: unlimited
  | Maximum stacksize for task 11: unlimited
  | Maximum stacksize for task 12: unlimited
  | Maximum stacksize for task 13: unlimited
  | Maximum stacksize for task 14: unlimited
  | Maximum stacksize for task 15: unlimited
  | Maximum stacksize for task 16: unlimited
  | Maximum stacksize for task 17: unlimited
  | Maximum stacksize for task 18: unlimited
  | Maximum stacksize for task 19: unlimited
  | Maximum stacksize for task 20: unlimited
  | Maximum stacksize for task 21: unlimited
  | Maximum stacksize for task 22: unlimited
  | Maximum stacksize for task 23: unlimited
  | Current stacksize for task 0: unlimited
  | Current stacksize for task 1: unlimited
  | Current stacksize for task 2: unlimited
  | Current stacksize for task 3: unlimited
  | Current stacksize for task 4: unlimited
  | Current stacksize for task 5: unlimited
  | Current stacksize for task 6: unlimited
  | Current stacksize for task 7: unlimited
  | Current stacksize for task 8: unlimited
  | Current stacksize for task 9: unlimited
  | Current stacksize for task 10: unlimited
  | Current stacksize for task 11: unlimited
  | Current stacksize for task 12: unlimited
  | Current stacksize for task 13: unlimited
  | Current stacksize for task 14: unlimited
  | Current stacksize for task 15: unlimited
  | Current stacksize for task 16: unlimited
  | Current stacksize for task 17: unlimited
  | Current stacksize for task 18: unlimited
  | Current stacksize for task 19: unlimited
  | Current stacksize for task 20: unlimited
  | Current stacksize for task 21: unlimited
  | Current stacksize for task 22: unlimited
  | Current stacksize for task 23: unlimited
 
  Consistency checks for the contents of control.in are next.
 
  MPI_IN_PLACE appears to work with this MPI implementation.
  | Keeping use_mpi_in_place .true. (see manual).
  Target number of points in a grid batch is not set. Defaulting to  100
  Method for grid partitioning is not set. Defaulting to parallel hash+maxmin partitioning.
  Batch size limit is not set. Defaulting to    200
  By default, will store active basis functions for each batch.
  If in need of memory, prune_basis_once .false. can be used to disable this option.
  communication_type for Hartree potential was not specified.
  Defaulting to calc_hartree .
  Pulay mixer: Number of initial linear mixing iterations not set.
  Defaulting to    0 iterations.
  Work space size for distributed Hartree potential not set.
  Defaulting to   0.200000E+03 MB.
  Algorithm-dependent basis array size parameters:
  | n_max_pulay                         :       10
  Presetting      1001 iterations before the initial mixing cycle
  is restarted anyway using the sc_init_iter criterion / keyword.
  Presetting a factor      1.000 between actual scf density residual
  and density convergence criterion sc_accuracy_rho below which sc_init_iter
  takes no effect.
  Geometry relaxation not requested: no relaxation will be performed.
  Forces evaluation will include force correction term due to incomplete self-consistency (default).
  Handling of forces: Unphysical translation and rotation will be removed from forces.
  No accuracy limit for integral partition fn. given. Defaulting to  0.1000E-14.
  No threshold value for u(r) in integrations given. Defaulting to  0.1000E-05.
  No accuracy for occupation numbers given. Defaulting to  0.1000E-12.
  No threshold value for occupation numbers given. Defaulting to  0.0000E+00.
  No accuracy for fermi level given. Defaulting to  0.1000E-19.
  Maximum # of iterations to find E_F not set. Defaulting to  200.
  Preferred method for the eigenvalue solver ('KS_method') not specified in 'control.in'.
  Calling BLACS routine to test compilation state
  Since ScaLAPACK support is enabled, defaulting to ELPA (via ELSI).
  Will not use alltoall communication since running on < 1024 CPUs.
  Threshold for basis singularities not set.
  Default threshold for basis singularities:  0.1000E-04
  partition_type (choice of integration weights) for integrals was not specified.
  | Using a version of the partition function of Stratmann and coworkers ('stratmann_sparse').
  | At each grid point, the set of atoms used to build the partition table is smoothly restricted to
  | only those atoms whose free-atom density would be non-zero at that grid point.
  Partitioning for Hartree potential was not defined. Using partition_type for integrals.
  | Adjusted default value of keyword multip_moments_threshold to:       0.10000000E-11
  | This value may affect high angular momentum components of the Hartree potential in periodic systems.
  No q(lm)/r^(l+1) cutoff set for long-range Hartree potential.
  | Using default value of  0.100000E-09 .
  | Verify using the multipole_threshold keyword.
  Defaulting to new monopole extrapolation.
  Density update method: automatic selection selected.
  Charge integration errors on the 3D integration grid will be compensated
  by explicit normalization and distribution of residual charges.
  Use the "compensate_multipole_errors" flag to change this behaviour.
  Set 'collect_eigenvectors' to be '.true.' for use_density_matrix .false.
 
  Consistency checks for the contents of geometry.in are next.
 
  Number of empty states per atom not set in control.in - providing a guess from actual geometry.
  | Total number of empty states used during s.c.f. cycle:       36
  If you use a very high smearing, use empty_states (per atom!) in control.in to increase this value.

  Structure-dependent array size parameters: 
  | Maximum number of distinct radial functions  :       14
  | Maximum number of basis functions            :      180
  | Number of Kohn-Sham states (occupied + empty):       96
------------------------------------------------------------

------------------------------------------------------------
          Preparing all fixed parts of the calculation.
------------------------------------------------------------
  Determining machine precision:
    2.225073858507201E-308
  Setting up grids for atomic and cluster calculations.

  Creating wave function, potential, and density for free atoms.

  Species: Al

  List of occupied orbitals and eigenvalues:
    n    l              occ      energy [Ha]    energy [eV]
    1    0           2.0000       -55.621123     -1513.5278
    2    0           2.0000        -3.957030      -107.6763
    3    0           2.0000        -0.272233        -7.4078
    2    1           6.0000        -2.540949       -69.1427
    3    1           1.0000        -0.083300        -2.2667


  Species: F

  List of occupied orbitals and eigenvalues:
    n    l              occ      energy [Ha]    energy [eV]
    1    0           2.0000       -24.399611      -663.9472
    2    0           2.0000        -1.098702       -29.8972
    2    1           5.0000        -0.408210       -11.1080


  Adding cutoff potential to free-atom effective potential.
  Creating fixed part of basis set: Ionic, confined, hydrogenic.
 
  Al                   ion:

  List of free ionic orbitals and eigenvalues:
    n    l      energy [Ha]    energy [eV]
    1    0       -56.418846     -1535.2349
    2    0        -4.732717      -128.7838
    3    0        -0.872690       -23.7471
    2    1        -3.317230       -90.2664


  List of ionic basis orbitals and eigenvalues:
    n    l      energy [Ha]    energy [eV]    outer radius [A]
    3    2        -0.346815        -9.4373       4.594041
    3    1        -0.631870       -17.1940       4.538221
    3    0        -0.872657       -23.7462       4.538221

 
  F                    hydrogenic:
 
  List of hydrogenic basis orbitals: 
    n    l      effective z      eigenvalue [eV]  inner max. [A]     outer max. [A]     outer radius [A]   
    2    1         1.700000        -9.7616           1.243167           1.243167           4.598524
    3    2         7.400000       -82.7828           0.642437           0.642437           3.305741
    3    0         6.800000       -69.9026           0.057798           1.022307           3.781556
 
  Creating atomic-like basis functions for current effective potential.

  Species Al                  :

  List of atomic basis orbitals and eigenvalues:
    n    l      energy [Ha]    energy [eV]    outer radius [A]
    1    0       -55.621123     -1513.5278       0.850197
    2    0        -3.957030      -107.6763       3.144911
    3    0        -0.272233        -7.4078       4.594041
    2    1        -2.540949       -69.1427       3.731966
    3    1        -0.083300        -2.2667       4.594041


  Species F                   :

  List of atomic basis orbitals and eigenvalues:
    n    l      energy [Ha]    energy [eV]    outer radius [A]
    1    0       -24.399611      -663.9472       1.258458
    2    0        -1.098702       -29.8972       4.325857
    2    1        -0.408210       -11.1080       4.487453

  Assembling full basis from fixed parts.
  | Species Al :   atomic orbital   1 s accepted.
  | Species Al :   atomic orbital   2 s accepted.
  | Species Al :    ionic orbital   3 s accepted.
  | Species Al :   atomic orbital   3 s accepted.
  | Species Al :   atomic orbital   2 p accepted.
  | Species Al :    ionic orbital   3 p accepted.
  | Species Al :   atomic orbital   3 p accepted.
  | Species Al :    ionic orbital   3 d accepted.
  | Species F :   atomic orbital   1 s accepted.
  | Species F :    hydro orbital   3 s accepted.
  | Species F :   atomic orbital   2 s accepted.
  | Species F :   atomic orbital   2 p accepted.
  | Species F :    hydro orbital   2 p accepted.
  | Species F :    hydro orbital   3 d accepted.
 
  Basis size parameters after reduction:
  | Total number of radial functions:       14
  | Total number of basis functions :      180
 
  Per-task memory consumption for arrays in subroutine allocate_ext:
  |           4.807768MB.
  Testing on-site integration grid accuracy.
  |  Species  Function  <phi|h_atom|phi> (log., in eV)  <phi|h_atom|phi> (rad., in eV)
           1        1              -1513.5277717935              -1513.5271881332
           1        2               -107.6762691836               -107.6762662489
           1        3                 -6.9467474784                 -6.9471269649
           1        4                  5.5771951849                  5.4862107220 ***
           1        5                -69.1427313144                -69.1427312731
           1        6                 -1.5197375330                 -1.5230432022
           1        7                  6.8210948310                  6.5529872240 ***
           1        8                  4.3216540965                  4.2851170187 ***
           2        9               -663.9471986398               -663.9470363334
           2       10                 16.8514011578                 16.8512525338
           2       11                -28.4490593856                -28.4490661472
           2       12                -11.1080115307                -11.1080620173
           2       13                  7.1940182175                  7.1685154137
           2       14                 44.8544281765                 44.8543763625
 * Note: Onsite integrals marked "***" above are less accurate than
 * onsite_accuracy_threshold =    0.03000 eV. Usually, this is harmless.
 * When in doubt, tighten the "radial" and/or "radial_multiplier" flags to check.

  Preparing densities etc. for the partition functions (integrals / Hartree potential).

  Preparations completed.
  max(cpu_time)          :      0.184 s.
  Wall clock time (cpu1) :      0.183 s.
------------------------------------------------------------

------------------------------------------------------------
          Begin self-consistency loop: Initialization.

          Date     :  20220517, Time     :  111653.574
------------------------------------------------------------

  Initializing index lists of integration centers etc. from given atomic structure:
  | Number of centers in hartree potential         :        12
  | Number of centers in hartree multipole         :        12
  | Number of centers in electron density summation:        12
  | Number of centers in basis integrals           :        12
  | Number of centers in integrals                 :        12
  | Number of centers in hamiltonian               :        12
  * Using 24 tasks for Scalapack Eigenvalue solver.
  Detailed listing of tasks and assigned k-points:
  (for non-periodic systems, the "k-point" denotes an internal label only)
   Task     0 k-point     1 on node-k98a-011
   Task     1 k-point     1 on node-k98a-011
   Task     2 k-point     1 on node-k98a-011
   Task     3 k-point     1 on node-k98a-011
   Task     4 k-point     1 on node-k98a-011
   Task     5 k-point     1 on node-k98a-011
   Task     6 k-point     1 on node-k98a-011
   Task     7 k-point     1 on node-k98a-011
   Task     8 k-point     1 on node-k98a-011
   Task     9 k-point     1 on node-k98a-011
   Task    10 k-point     1 on node-k98a-011
   Task    11 k-point     1 on node-k98a-011
   Task    12 k-point     1 on node-k98a-011
   Task    13 k-point     1 on node-k98a-011
   Task    14 k-point     1 on node-k98a-011
   Task    15 k-point     1 on node-k98a-011
   Task    16 k-point     1 on node-k98a-011
   Task    17 k-point     1 on node-k98a-011
   Task    18 k-point     1 on node-k98a-011
   Task    19 k-point     1 on node-k98a-011
   Task    20 k-point     1 on node-k98a-011
   Task    21 k-point     1 on node-k98a-011
   Task    22 k-point     1 on node-k98a-011
   Task    23 k-point     1 on node-k98a-011
  Tasks:    24 split into      6 X      4 BLACS grid
  Calculating block size based on n_basis =          180  max_nprow =            6  max_npcol =            4
  ScaLAPACK block size set to:           16
  Allocating        0.012 MB for ovlp
  Allocating        0.012 MB for ham
  Allocating        0.012 MB for eigenvec
  Required Scalapack workspace - INTEGER:            1  REAL:             1
  Partitioning the integration grid into batches with parallel hashing+maxmin method.
  | Number of batches:     1062
  | Maximal batch size:     195
  | Minimal batch size:      16
  | Average batch size:      86.554
  | Standard deviation of batch sizes:      28.087

  Integration load balanced across    24 MPI tasks.
  Work distribution over tasks is as follows:
  Task     0 has       3781 integration points.
  Task     1 has       3888 integration points.
  Task     2 has       3764 integration points.
  Task     3 has       3900 integration points.
  Task     4 has       3898 integration points.
  Task     5 has       3806 integration points.
  Task     6 has       3902 integration points.
  Task     7 has       3891 integration points.
  Task     8 has       3802 integration points.
  Task     9 has       3771 integration points.
  Task    10 has       3766 integration points.
  Task    11 has       3797 integration points.
  Task    12 has       3763 integration points.
  Task    13 has       3887 integration points.
  Task    14 has       3773 integration points.
  Task    15 has       3888 integration points.
  Task    16 has       3894 integration points.
  Task    17 has       3762 integration points.
  Task    18 has       3766 integration points.
  Task    19 has       3882 integration points.
  Task    20 has       3893 integration points.
  Task    21 has       3878 integration points.
  Task    22 has       3801 integration points.
  Task    23 has       3767 integration points.
  Initializing partition tables, free-atom densities, potentials, etc. across the integration grid (initialize_grid_storage).
  | initialize_grid_storage: Actual outermost partition radius vs. multipole_radius_free
  | (-- VB: in principle, multipole_radius_free should be larger, hence this output)
  | Species        1: Confinement radius =              4.999999999999999 AA, multipole_radius_free =              5.004487022111096 AA.
  | Species        1: outer_partition_radius set to              5.004487022111096 AA .
  | Species        2: Confinement radius =              4.999999999999999 AA, multipole_radius_free =              5.009370088163274 AA.
  | Species        2: outer_partition_radius set to              5.009370088163274 AA .
  | The sparse table of interatomic distances needs          1.64 kbyte instead of         1.15 kbyte of memory.
  | Using the partition_type stratmann_smoother will reduce your memory usage.
  | Net number of integration points:    91920
  | of which are non-zero points    :    85869
  Renormalizing the initial density to the exact electron count on the 3D integration grid.
  | Initial density: Formal number of electrons (from input files) :     120.0000000000
  | Integrated number of electrons on 3D grid     :     119.9999211313
  | Charge integration error                      :      -0.0000788687
  | Normalization factor for density and gradient :       1.0000006572
  Renormalizing the free-atom superposition density to the exact electron count on the 3D integration grid.
  | Formal number of electrons (from input files) :     120.0000000000
  | Integrated number of electrons on 3D grid     :     119.9999211313
  | Charge integration error                      :      -0.0000788687
  | Normalization factor for density and gradient :       1.0000006572
  Obtaining max. number of non-zero basis functions in each batch (get_n_compute_maxes).
  | Maximal number of non-zero basis functions:      160 in task     0
  | Maximal number of non-zero basis functions:      159 in task     1
  | Maximal number of non-zero basis functions:      164 in task     2
  | Maximal number of non-zero basis functions:      165 in task     3
  | Maximal number of non-zero basis functions:      161 in task     4
  | Maximal number of non-zero basis functions:      157 in task     5
  | Maximal number of non-zero basis functions:      161 in task     6
  | Maximal number of non-zero basis functions:      159 in task     7
  | Maximal number of non-zero basis functions:      164 in task     8
  | Maximal number of non-zero basis functions:      161 in task     9
  | Maximal number of non-zero basis functions:      165 in task    10
  | Maximal number of non-zero basis functions:      164 in task    11
  | Maximal number of non-zero basis functions:      159 in task    12
  | Maximal number of non-zero basis functions:      161 in task    13
  | Maximal number of non-zero basis functions:      164 in task    14
  | Maximal number of non-zero basis functions:      160 in task    15
  | Maximal number of non-zero basis functions:      156 in task    16
  | Maximal number of non-zero basis functions:      158 in task    17
  | Maximal number of non-zero basis functions:      164 in task    18
  | Maximal number of non-zero basis functions:      164 in task    19
  | Maximal number of non-zero basis functions:      165 in task    20
  | Maximal number of non-zero basis functions:      157 in task    21
  | Maximal number of non-zero basis functions:      164 in task    22
  | Maximal number of non-zero basis functions:      164 in task    23
  Selecting the method for density update.
  Loop over occupied states selected for charge density update.
  Allocating        0.132 MB for KS_eigenvector
  Integrating Hamiltonian matrix: batch-based integration.
  Time summed over all CPUs for integration: real work        0.681 s, elapsed        0.705 s
  Integrating overlap matrix.
  Time summed over all CPUs for integration: real work        0.261 s, elapsed        0.280 s
  Deallocating overlap matrix.

  Updating Kohn-Sham eigenvalues and eigenvectors using ELSI and the ELPA eigensolver.
  Overlap matrix is not singular
  | Lowest and highest eigenvalues :  0.3448E-02,  0.4852E+01
  Finished singularity check of overlap matrix
  | Time :     0.003 s
  Starting ELPA eigensolver
  Finished Cholesky decomposition
  | Time :     0.002 s
  Finished transformation to standard eigenproblem
  | Time :     0.001 s
  Finished solving standard eigenproblem
  | Time :     0.003 s
  Finished back-transformation of eigenvectors
  | Time :     0.001 s

  Obtaining occupation numbers and chemical potential using ELSI.
  | Chemical potential (Fermi level):    -7.65213470 eV
  Writing Kohn-Sham eigenvalues.

  State    Occupation    Eigenvalue [Ha]    Eigenvalue [eV]
      1       2.00000         -55.485653        -1509.84145
      2       2.00000         -55.483960        -1509.79536
      3       2.00000         -55.483956        -1509.79526
      4       2.00000         -24.359492         -662.85550
      5       2.00000         -24.359384         -662.85257
      6       2.00000         -24.359360         -662.85190
      7       2.00000         -24.359335         -662.85123
      8       2.00000         -24.344085         -662.43625
      9       2.00000         -24.343525         -662.42102
     10       2.00000         -24.340375         -662.33530
     11       2.00000         -24.338160         -662.27503
     12       2.00000         -24.337027         -662.24420
     13       2.00000          -3.951284         -107.51990
     14       2.00000          -3.949037         -107.45876
     15       2.00000          -3.949030         -107.45857
     16       2.00000          -2.543814          -69.22071
     17       2.00000          -2.543076          -69.20062
     18       2.00000          -2.542639          -69.18873
     19       2.00000          -2.541695          -69.16305
     20       2.00000          -2.541662          -69.16214
     21       2.00000          -2.541245          -69.15080
     22       2.00000          -2.541128          -69.14761
     23       2.00000          -2.539818          -69.11196
     24       2.00000          -2.539758          -69.11033
     25       2.00000          -1.190395          -32.39230
     26       2.00000          -1.180634          -32.12668
     27       2.00000          -1.177845          -32.05080
     28       2.00000          -1.169917          -31.83505
     29       2.00000          -1.154006          -31.40210
     30       2.00000          -1.153217          -31.38064
     31       2.00000          -1.148743          -31.25889
     32       2.00000          -1.145396          -31.16782
     33       2.00000          -1.143791          -31.12413
     34       2.00000          -0.555838          -15.12513
     35       2.00000          -0.548884          -14.93590
     36       2.00000          -0.538581          -14.65554
     37       2.00000          -0.532631          -14.49364
     38       2.00000          -0.515058          -14.01545
     39       2.00000          -0.504000          -13.71453
     40       2.00000          -0.498572          -13.56683
     41       2.00000          -0.495604          -13.48607
     42       2.00000          -0.492635          -13.40529
     43       2.00000          -0.487513          -13.26590
     44       2.00000          -0.484232          -13.17661
     45       2.00000          -0.482366          -13.12586
     46       2.00000          -0.480010          -13.06174
     47       2.00000          -0.476153          -12.95678
     48       2.00000          -0.475163          -12.92983
     49       2.00000          -0.471824          -12.83900
     50       2.00000          -0.465981          -12.67999
     51       2.00000          -0.456741          -12.42856
     52       2.00000          -0.455835          -12.40390
     53       2.00000          -0.455495          -12.39465
     54       2.00000          -0.454037          -12.35496
     55       2.00000          -0.449771          -12.23888
     56       2.00000          -0.449747          -12.23824
     57       2.00000          -0.447469          -12.17625
     58       2.00000          -0.446617          -12.15307
     59       2.00000          -0.446141          -12.14012
     60       2.00000          -0.445090          -12.11151
     61       0.00000          -0.136524           -3.71500
     62       0.00000          -0.107722           -2.93127
     63       0.00000          -0.061542           -1.67465
     64       0.00000          -0.027038           -0.73574
     65       0.00000          -0.021830           -0.59402
     66       0.00000          -0.007353           -0.20008
     67       0.00000          -0.005843           -0.15899
     68       0.00000           0.039057            1.06279
     69       0.00000           0.048614            1.32286
     70       0.00000           0.064829            1.76409
     71       0.00000           0.082757            2.25194
     72       0.00000           0.119367            3.24813
     73       0.00000           0.144448            3.93063
     74       0.00000           0.152987            4.16298
     75       0.00000           0.172751            4.70078
     76       0.00000           0.173962            4.73374
     77       0.00000           0.174870            4.75846
     78       0.00000           0.180783            4.91935
     79       0.00000           0.190551            5.18515
     80       0.00000           0.202033            5.49761
     81       0.00000           0.206432            5.61730
     82       0.00000           0.214623            5.84020
     83       0.00000           0.224671            6.11360
     84       0.00000           0.232569            6.32853
     85       0.00000           0.251124            6.83343
     86       0.00000           0.267295            7.27347
     87       0.00000           0.269511            7.33377
     88       0.00000           0.273049            7.43005
     89       0.00000           0.281308            7.65478
     90       0.00000           0.291972            7.94497
     91       0.00000           0.294193            8.00540
     92       0.00000           0.304129            8.27577
     93       0.00000           0.337777            9.19138
     94       0.00000           0.347842            9.46526
     95       0.00000           0.363120            9.88101
     96       0.00000           0.373387           10.16039

  Highest occupied state (VBM) at    -12.11150771 eV
  | Occupation number:      2.00000000

  Lowest unoccupied state (CBM) at    -3.71499735 eV
  | Occupation number:      0.00000000

  Overall HOMO-LUMO gap:      8.39651036 eV.
  Calculating total energy contributions from superposition of free atom densities.

  Total energy components:
  | Sum of eigenvalues            :        -887.58886160 Ha      -24152.52179091 eV
  | XC energy correction          :        -144.33394807 Ha       -3927.52655735 eV
  | XC potential correction       :         187.93041316 Ha        5113.84673163 eV
  | Free-atom electrostatic energy:        -781.37144253 Ha      -21262.19876007 eV
  | Hartree energy correction     :           0.00000000 Ha           0.00000000 eV
  | Entropy correction            :           0.00000000 Ha           0.00000000 eV
  | ---------------------------
  | Total energy                  :       -1625.36383905 Ha      -44228.40037669 eV
  | Total energy, T -> 0          :       -1625.36383905 Ha      -44228.40037669 eV  <-- do not rely on this value for anything but (periodic) metals
  | Electronic free energy        :       -1625.36383905 Ha      -44228.40037669 eV

  Derived energy quantities:
  | Kinetic energy                :        1627.60642944 Ha       44289.42436609 eV
  | Electrostatic energy          :       -3108.63632041 Ha      -84590.29818544 eV
  | Energy correction for multipole
  | error in Hartree potential    :           0.00000000 Ha           0.00000000 eV
  | Sum of eigenvalues per atom                           :       -2012.71014924 eV
  | Total energy (T->0) per atom                          :       -3685.70003139 eV  <-- do not rely on this value for anything but (periodic) metals
  | Electronic free energy per atom                       :       -3685.70003139 eV
  Initialize hartree_potential_storage
  Max. number of atoms included in rho_multipole:           12

  End scf initialization - timings             :  max(cpu_time)    wall_clock(cpu1)
  | Time for scf. initialization                :        0.108 s           0.108 s
  | Boundary condition initialization           :        0.000 s           0.000 s
  | Integration                                 :        0.042 s           0.043 s
  | Solution of K.-S. eqns.                     :        0.011 s           0.011 s
  | Grid partitioning                           :        0.033 s           0.033 s
  | Preloading free-atom quantities on grid     :        0.014 s           0.013 s
  | Free-atom superposition energy              :        0.005 s           0.005 s
  | Total energy evaluation                     :        0.000 s           0.000 s

  Partial memory accounting:
  | Current value for overall tracked memory usage:
  |   Minimum:        0.273 MB (on task 23)
  |   Maximum:        0.292 MB (on task  0)
  |   Average:        0.287 MB
  | Peak value for overall tracked memory usage:
  |   Minimum:        1.295 MB (on task 21 after allocating wave)
  |   Maximum:        1.364 MB (on task 10 after allocating wave)
  |   Average:        1.335 MB
  | Largest tracked array allocation so far:
  |   Minimum:        0.232 MB (H_times_psi on task 16)
  |   Maximum:        0.435 MB (all_coords on task 10)
  |   Average:        0.262 MB
  Note:  These values currently only include a subset of arrays which are explicitly tracked.
  The "true" memory usage will be greater.
------------------------------------------------------------
  Evaluating new KS density.
  Integration grid: deviation in total charge (<rho> - N_e) =  -2.842171E-14

  Time for density update prior                :  max(cpu_time)    wall_clock(cpu1)
  | self-consistency iterative process          :        0.027 s           0.027 s

------------------------------------------------------------
          Begin self-consistency iteration #    1

  Date     :  20220517, Time     :  111653.709
------------------------------------------------------------
  Pulay mixing of updated and previous charge densities.
  Renormalizing the density to the exact electron count on the 3D integration grid.
  | Formal number of electrons (from input files) :     120.0000000000
  | Integrated number of electrons on 3D grid     :     120.0000000000
  | Charge integration error                      :      -0.0000000000
  | Normalization factor for density and gradient :       1.0000000000

  Evaluating partitioned Hartree potential by multipole expansion.
  | Original multipole sum: apparent total charge =  -0.479164E-13
  | Sum of charges compensated after spline to logarithmic grids =   0.992247E-04
  | Analytical far-field extrapolation by fixed multipoles:
  | Hartree multipole sum: apparent total charge =  -0.489249E-13
  Summing up the Hartree potential.
  Time summed over all CPUs for potential: real work        0.381 s, elapsed        0.396 s
  | RMS charge density error from multipole expansion :   0.106849E-01

  Integrating Hamiltonian matrix: batch-based integration.
  Time summed over all CPUs for integration: real work        0.636 s, elapsed        0.666 s

  Updating Kohn-Sham eigenvalues and eigenvectors using ELSI and the ELPA eigensolver.
  Starting ELPA eigensolver
  Finished transformation to standard eigenproblem
  | Time :     0.000 s
  Finished solving standard eigenproblem
  | Time :     0.003 s
  Finished back-transformation of eigenvectors
  | Time :     0.000 s

  Obtaining occupation numbers and chemical potential using ELSI.
  | Chemical potential (Fermi level):    -7.76366645 eV
  Writing Kohn-Sham eigenvalues.

  State    Occupation    Eigenvalue [Ha]    Eigenvalue [eV]
      1       2.00000         -55.656299        -1514.48496
      2       2.00000         -55.641986        -1514.09548
      3       2.00000         -55.640752        -1514.06190
      4       2.00000         -24.227533         -659.26471
      5       2.00000         -24.227278         -659.25776
      6       2.00000         -24.226960         -659.24912
      7       2.00000         -24.226750         -659.24340
      8       2.00000         -24.081957         -655.30340
      9       2.00000         -24.077522         -655.18271
     10       2.00000         -24.068552         -654.93862
     11       2.00000         -24.066681         -654.88772
     12       2.00000         -24.065798         -654.86368
     13       2.00000          -4.095747         -111.45096
     14       2.00000          -4.081295         -111.05768
     15       2.00000          -4.080099         -111.02513
     16       2.00000          -2.689982          -73.19812
     17       2.00000          -2.687817          -73.13922
     18       2.00000          -2.687445          -73.12909
     19       2.00000          -2.674845          -72.78624
     20       2.00000          -2.674497          -72.77675
     21       2.00000          -2.673645          -72.75357
     22       2.00000          -2.673291          -72.74396
     23       2.00000          -2.672468          -72.72154
     24       2.00000          -2.671280          -72.68923
     25       2.00000          -1.160690          -31.58399
     26       2.00000          -1.148976          -31.26522
     27       2.00000          -1.143629          -31.11972
     28       2.00000          -1.134262          -30.86485
     29       2.00000          -1.029649          -28.01817
     30       2.00000          -1.024702          -27.88356
     31       2.00000          -1.015621          -27.63646
     32       2.00000          -1.011340          -27.51995
     33       2.00000          -1.010479          -27.49654
     34       2.00000          -0.544431          -14.81473
     35       2.00000          -0.532054          -14.47791
     36       2.00000          -0.519104          -14.12554
     37       2.00000          -0.512292          -13.94016
     38       2.00000          -0.485179          -13.20239
     39       2.00000          -0.469210          -12.76786
     40       2.00000          -0.466567          -12.69594
     41       2.00000          -0.446041          -12.13740
     42       2.00000          -0.445668          -12.12724
     43       2.00000          -0.442994          -12.05449
     44       2.00000          -0.438241          -11.92513
     45       2.00000          -0.425573          -11.58042
     46       2.00000          -0.401241          -10.91831
     47       2.00000          -0.395084          -10.75080
     48       2.00000          -0.375379          -10.21457
     49       2.00000          -0.367238           -9.99304
     50       2.00000          -0.364942           -9.93057
     51       2.00000          -0.339680           -9.24316
     52       2.00000          -0.339109           -9.22763
     53       2.00000          -0.335729           -9.13566
     54       2.00000          -0.334682           -9.10716
     55       2.00000          -0.324891           -8.84074
     56       2.00000          -0.323732           -8.80920
     57       2.00000          -0.321147           -8.73886
     58       2.00000          -0.319862           -8.70388
     59       2.00000          -0.318753           -8.67370
     60       2.00000          -0.317732           -8.64594
     61       0.00000          -0.146197           -3.97823
     62       0.00000          -0.104773           -2.85101
     63       0.00000          -0.069125           -1.88099
     64       0.00000          -0.039885           -1.08531
     65       0.00000          -0.033921           -0.92305
     66       0.00000          -0.015849           -0.43129
     67       0.00000          -0.013352           -0.36333
     68       0.00000           0.026295            0.71553
     69       0.00000           0.033977            0.92456
     70       0.00000           0.060626            1.64973
     71       0.00000           0.063303            1.72256
     72       0.00000           0.106266            2.89165
     73       0.00000           0.137355            3.73761
     74       0.00000           0.144428            3.93008
     75       0.00000           0.168911            4.59630
     76       0.00000           0.173448            4.71975
     77       0.00000           0.176252            4.79606
     78       0.00000           0.180644            4.91559
     79       0.00000           0.193883            5.27582
     80       0.00000           0.197336            5.36979
     81       0.00000           0.202554            5.51178
     82       0.00000           0.215219            5.85641
     83       0.00000           0.215593            5.86659
     84       0.00000           0.226510            6.16364
     85       0.00000           0.240547            6.54561
     86       0.00000           0.248795            6.77006
     87       0.00000           0.252441            6.86926
     88       0.00000           0.256430            6.97781
     89       0.00000           0.264451            7.19609
     90       0.00000           0.272481            7.41459
     91       0.00000           0.296220            8.06057
     92       0.00000           0.306625            8.34369
     93       0.00000           0.322366            8.77201
     94       0.00000           0.359005            9.76903
     95       0.00000           0.369142           10.04487
     96       0.00000           0.371264           10.10259

  Highest occupied state (VBM) at     -8.64593990 eV
  | Occupation number:      2.00000000

  Lowest unoccupied state (CBM) at    -3.97822693 eV
  | Occupation number:      0.00000000

  Overall HOMO-LUMO gap:      4.66771297 eV.

  Total energy components:
  | Sum of eigenvalues            :        -882.31275734 Ha      -24008.95168931 eV
  | XC energy correction          :        -145.65850580 Ha       -3963.56960694 eV
  | XC potential correction       :         189.67165506 Ha        5161.22833468 eV
  | Free-atom electrostatic energy:        -781.37144253 Ha      -21262.19876007 eV
  | Hartree energy correction     :          -5.48529008 Ha        -149.26233757 eV
  | Entropy correction            :           0.00000000 Ha           0.00000000 eV
  | ---------------------------
  | Total energy                  :       -1625.15634069 Ha      -44222.75405922 eV
  | Total energy, T -> 0          :       -1625.15634069 Ha      -44222.75405922 eV  <-- do not rely on this value for anything but (periodic) metals
  | Electronic free energy        :       -1625.15634069 Ha      -44222.75405922 eV

  Derived energy quantities:
  | Kinetic energy                :        1633.92815815 Ha       44461.44735671 eV
  | Electrostatic energy          :       -3113.42599304 Ha      -84720.63180898 eV
  | Energy correction for multipole
  | error in Hartree potential    :           0.04160046 Ha           1.13200615 eV
  | Sum of eigenvalues per atom                           :       -2000.74597411 eV
  | Total energy (T->0) per atom                          :       -3685.22950493 eV  <-- do not rely on this value for anything but (periodic) metals
  | Electronic free energy per atom                       :       -3685.22950493 eV
  Evaluating new KS density.
  Integration grid: deviation in total charge (<rho> - N_e) =   1.421085E-14

  Self-consistency convergence accuracy:
  | Change of charge density      :  0.5962E+00
  | Change of sum of eigenvalues  :  0.1436E+03 eV
  | Change of total energy        :  0.5646E+01 eV


------------------------------------------------------------
  End self-consistency iteration #     1       :  max(cpu_time)    wall_clock(cpu1)
  | Time for this iteration                     :        0.078 s           0.078 s
  | Charge density update                       :        0.026 s           0.026 s
  | Density mixing                              :        0.001 s           0.001 s
  | Hartree multipole update                    :        0.001 s           0.001 s
  | Hartree multipole summation                 :        0.017 s           0.017 s
  | Integration                                 :        0.028 s           0.028 s
  | Solution of K.-S. eqns.                     :        0.004 s           0.005 s
  | Total energy evaluation                     :        0.000 s           0.000 s

  Partial memory accounting:
  | Current value for overall tracked memory usage:
  |   Minimum:        0.273 MB (on task 23)
  |   Maximum:        0.292 MB (on task  0)
  |   Average:        0.287 MB
  | Peak value for overall tracked memory usage:
  |   Minimum:        1.295 MB (on task 21 after allocating wave)
  |   Maximum:        1.364 MB (on task 10 after allocating wave)
  |   Average:        1.335 MB
  | Largest tracked array allocation so far:
  |   Minimum:        0.696 MB (gradient_basis_wave on task 16)
  |   Maximum:        0.736 MB (gradient_basis_wave on task  3)
  |   Average:        0.721 MB
  Note:  These values currently only include a subset of arrays which are explicitly tracked.
  The "true" memory usage will be greater.
------------------------------------------------------------

------------------------------------------------------------
          Begin self-consistency iteration #    2

  Date     :  20220517, Time     :  111653.793
------------------------------------------------------------
  Pulay mixing of updated and previous charge densities.
  Renormalizing the density to the exact electron count on the 3D integration grid.
  | Formal number of electrons (from input files) :     120.0000000000
  | Integrated number of electrons on 3D grid     :     120.0000000000
  | Charge integration error                      :       0.0000000000
  | Normalization factor for density and gradient :       1.0000000000

  Evaluating partitioned Hartree potential by multipole expansion.
  | Original multipole sum: apparent total charge =   0.378559E-13
  | Sum of charges compensated after spline to logarithmic grids =   0.612233E-04
  | Analytical far-field extrapolation by fixed multipoles:
  | Hartree multipole sum: apparent total charge =   0.375116E-13
  Summing up the Hartree potential.
  Time summed over all CPUs for potential: real work        0.379 s, elapsed        0.393 s
  | RMS charge density error from multipole expansion :   0.125526E-01

  Integrating Hamiltonian matrix: batch-based integration.
  Time summed over all CPUs for integration: real work        0.635 s, elapsed        0.664 s

  Updating Kohn-Sham eigenvalues and eigenvectors using ELSI and the ELPA eigensolver.
  Starting ELPA eigensolver
  Finished transformation to standard eigenproblem
  | Time :     0.001 s
  Finished solving standard eigenproblem
  | Time :     0.003 s
  Finished back-transformation of eigenvectors
  | Time :     0.000 s

  Obtaining occupation numbers and chemical potential using ELSI.
  | Chemical potential (Fermi level):    -7.81325599 eV
  Highest occupied state (VBM) at     -9.83854655 eV
  | Occupation number:      2.00000000

  Lowest unoccupied state (CBM) at    -4.18538180 eV
  | Occupation number:      0.00000000

  Overall HOMO-LUMO gap:      5.65316475 eV.

  Checking to see if s.c.f. parameters should be adjusted.

  Total energy components:
  | Sum of eigenvalues            :        -885.43113514 Ha      -24093.80706662 eV
  | XC energy correction          :        -145.16728268 Ha       -3950.20274574 eV
  | XC potential correction       :         189.02534463 Ha        5143.64133293 eV
  | Free-atom electrostatic energy:        -781.37144253 Ha      -21262.19876007 eV
  | Hartree energy correction     :          -2.14842926 Ha         -58.46173468 eV
  | Entropy correction            :           0.00000000 Ha           0.00000000 eV
  | ---------------------------
  | Total energy                  :       -1625.09294498 Ha      -44221.02897417 eV
  | Total energy, T -> 0          :       -1625.09294498 Ha      -44221.02897417 eV  <-- do not rely on this value for anything but (periodic) metals
  | Electronic free energy        :       -1625.09294498 Ha      -44221.02897417 eV

  Derived energy quantities:
  | Kinetic energy                :        1630.06301769 Ha       44356.27153366 eV
  | Electrostatic energy          :       -3109.98868000 Ha      -84627.09776209 eV
  | Energy correction for multipole
  | error in Hartree potential    :           0.04576414 Ha           1.24530561 eV
  | Sum of eigenvalues per atom                           :       -2007.81725555 eV
  | Total energy (T->0) per atom                          :       -3685.08574785 eV  <-- do not rely on this value for anything but (periodic) metals
  | Electronic free energy per atom                       :       -3685.08574785 eV
  Evaluating new KS density.
  Integration grid: deviation in total charge (<rho> - N_e) =   2.842171E-14

  Self-consistency convergence accuracy:
  | Change of charge density      :  0.4729E+00
  | Change of sum of eigenvalues  : -0.8486E+02 eV
  | Change of total energy        :  0.1725E+01 eV


------------------------------------------------------------
  End self-consistency iteration #     2       :  max(cpu_time)    wall_clock(cpu1)
  | Time for this iteration                     :        0.080 s           0.077 s
  | Charge density update                       :        0.026 s           0.025 s
  | Density mixing                              :        0.004 s           0.001 s
  | Hartree multipole update                    :        0.001 s           0.001 s
  | Hartree multipole summation                 :        0.017 s           0.017 s
  | Integration                                 :        0.028 s           0.028 s
  | Solution of K.-S. eqns.                     :        0.004 s           0.004 s
  | Total energy evaluation                     :        0.000 s           0.000 s

  Partial memory accounting:
  | Current value for overall tracked memory usage:
  |   Minimum:        0.274 MB (on task 23)
  |   Maximum:        0.293 MB (on task  0)
  |   Average:        0.288 MB
  | Peak value for overall tracked memory usage:
  |   Minimum:        1.295 MB (on task 21 after allocating wave)
  |   Maximum:        1.364 MB (on task 10 after allocating wave)
  |   Average:        1.335 MB
  | Largest tracked array allocation so far:
  |   Minimum:        0.696 MB (gradient_basis_wave on task 16)
  |   Maximum:        0.736 MB (gradient_basis_wave on task  3)
  |   Average:        0.721 MB
  Note:  These values currently only include a subset of arrays which are explicitly tracked.
  The "true" memory usage will be greater.
------------------------------------------------------------

------------------------------------------------------------
          Begin self-consistency iteration #    3

  Date     :  20220517, Time     :  111653.876
------------------------------------------------------------
  Pulay mixing of updated and previous charge densities.
  Renormalizing the density to the exact electron count on the 3D integration grid.
  | Formal number of electrons (from input files) :     120.0000000000
  | Integrated number of electrons on 3D grid     :     120.0000000000
  | Charge integration error                      :       0.0000000000
  | Normalization factor for density and gradient :       1.0000000000

  Evaluating partitioned Hartree potential by multipole expansion.
  | Original multipole sum: apparent total charge =  -0.890438E-14
  | Sum of charges compensated after spline to logarithmic grids =   0.789491E-04
  | Analytical far-field extrapolation by fixed multipoles:
  | Hartree multipole sum: apparent total charge =  -0.113150E-13
  Summing up the Hartree potential.
  Time summed over all CPUs for potential: real work        0.379 s, elapsed        0.393 s
  | RMS charge density error from multipole expansion :   0.173692E-01

  Integrating Hamiltonian matrix: batch-based integration.
  Time summed over all CPUs for integration: real work        0.636 s, elapsed        0.664 s

  Updating Kohn-Sham eigenvalues and eigenvectors using ELSI and the ELPA eigensolver.
  Starting ELPA eigensolver
  Finished transformation to standard eigenproblem
  | Time :     0.001 s
  Finished solving standard eigenproblem
  | Time :     0.003 s
  Finished back-transformation of eigenvectors
  | Time :     0.000 s

  Obtaining occupation numbers and chemical potential using ELSI.
  | Chemical potential (Fermi level):    -8.01556337 eV
  Highest occupied state (VBM) at     -9.51519783 eV
  | Occupation number:      2.00000000

  Lowest unoccupied state (CBM) at    -4.39257422 eV
  | Occupation number:      0.00000000

  Overall HOMO-LUMO gap:      5.12262361 eV.

  Total energy components:
  | Sum of eigenvalues            :        -886.41885271 Ha      -24120.68422919 eV
  | XC energy correction          :        -145.13264747 Ha       -3949.26027385 eV
  | XC potential correction       :         188.97850133 Ha        5142.36666203 eV
  | Free-atom electrostatic energy:        -781.37144253 Ha      -21262.19876007 eV
  | Hartree energy correction     :          -1.14794223 Ha         -31.23709732 eV
  | Entropy correction            :           0.00000000 Ha           0.00000000 eV
  | ---------------------------
  | Total energy                  :       -1625.09238361 Ha      -44221.01369840 eV
  | Total energy, T -> 0          :       -1625.09238361 Ha      -44221.01369840 eV  <-- do not rely on this value for anything but (periodic) metals
  | Electronic free energy        :       -1625.09238361 Ha      -44221.01369840 eV

  Derived energy quantities:
  | Kinetic energy                :        1628.32949342 Ha       44309.09993822 eV
  | Electrostatic energy          :       -3108.28922956 Ha      -84580.85336277 eV
  | Energy correction for multipole
  | error in Hartree potential    :           0.06177805 Ha           1.68106623 eV
  | Sum of eigenvalues per atom                           :       -2010.05701910 eV
  | Total energy (T->0) per atom                          :       -3685.08447487 eV  <-- do not rely on this value for anything but (periodic) metals
  | Electronic free energy per atom                       :       -3685.08447487 eV
  Evaluating new KS density.
  Integration grid: deviation in total charge (<rho> - N_e) =  -2.842171E-14

  Self-consistency convergence accuracy:
  | Change of charge density      :  0.1233E+00
  | Change of sum of eigenvalues  : -0.2688E+02 eV
  | Change of total energy        :  0.1528E-01 eV


------------------------------------------------------------
  End self-consistency iteration #     3       :  max(cpu_time)    wall_clock(cpu1)
  | Time for this iteration                     :        0.080 s           0.077 s
  | Charge density update                       :        0.026 s           0.025 s
  | Density mixing                              :        0.004 s           0.001 s
  | Hartree multipole update                    :        0.001 s           0.002 s
  | Hartree multipole summation                 :        0.017 s           0.016 s
  | Integration                                 :        0.028 s           0.028 s
  | Solution of K.-S. eqns.                     :        0.004 s           0.004 s
  | Total energy evaluation                     :        0.000 s           0.000 s

  Partial memory accounting:
  | Current value for overall tracked memory usage:
  |   Minimum:        0.274 MB (on task 23)
  |   Maximum:        0.293 MB (on task  0)
  |   Average:        0.288 MB
  | Peak value for overall tracked memory usage:
  |   Minimum:        1.295 MB (on task 21 after allocating wave)
  |   Maximum:        1.364 MB (on task 10 after allocating wave)
  |   Average:        1.335 MB
  | Largest tracked array allocation so far:
  |   Minimum:        0.696 MB (gradient_basis_wave on task 16)
  |   Maximum:        0.736 MB (gradient_basis_wave on task  3)
  |   Average:        0.721 MB
  Note:  These values currently only include a subset of arrays which are explicitly tracked.
  The "true" memory usage will be greater.
------------------------------------------------------------

------------------------------------------------------------
          Begin self-consistency iteration #    4

  Date     :  20220517, Time     :  111653.959
------------------------------------------------------------
  Pulay mixing of updated and previous charge densities.
  Renormalizing the density to the exact electron count on the 3D integration grid.
  | Formal number of electrons (from input files) :     120.0000000000
  | Integrated number of electrons on 3D grid     :     120.0000000000
  | Charge integration error                      :      -0.0000000000
  | Normalization factor for density and gradient :       1.0000000000

  Evaluating partitioned Hartree potential by multipole expansion.
  | Original multipole sum: apparent total charge =  -0.785160E-13
  | Sum of charges compensated after spline to logarithmic grids =   0.851965E-04
  | Analytical far-field extrapolation by fixed multipoles:
  | Hartree multipole sum: apparent total charge =  -0.772861E-13
  Summing up the Hartree potential.
  Time summed over all CPUs for potential: real work        0.379 s, elapsed        0.393 s
  | RMS charge density error from multipole expansion :   0.192892E-01

  Integrating Hamiltonian matrix: batch-based integration.
  Time summed over all CPUs for integration: real work        0.636 s, elapsed        0.665 s

  Updating Kohn-Sham eigenvalues and eigenvectors using ELSI and the ELPA eigensolver.
  Starting ELPA eigensolver
  Finished transformation to standard eigenproblem
  | Time :     0.001 s
  Finished solving standard eigenproblem
  | Time :     0.003 s
  Finished back-transformation of eigenvectors
  | Time :     0.000 s

  Obtaining occupation numbers and chemical potential using ELSI.
  | Chemical potential (Fermi level):    -7.96464965 eV
  Highest occupied state (VBM) at     -9.65368814 eV
  | Occupation number:      2.00000000

  Lowest unoccupied state (CBM) at    -4.34268214 eV
  | Occupation number:      0.00000000

  Overall HOMO-LUMO gap:      5.31100601 eV.

  Total energy components:
  | Sum of eigenvalues            :        -886.53842506 Ha      -24123.93795840 eV
  | XC energy correction          :        -145.11794859 Ha       -3948.86029694 eV
  | XC potential correction       :         188.95853811 Ha        5141.82343513 eV
  | Free-atom electrostatic energy:        -781.37144253 Ha      -21262.19876007 eV
  | Hartree energy correction     :          -1.02109800 Ha         -27.78549026 eV
  | Entropy correction            :           0.00000000 Ha           0.00000000 eV
  | ---------------------------
  | Total energy                  :       -1625.09037607 Ha      -44220.95907054 eV
  | Total energy, T -> 0          :       -1625.09037607 Ha      -44220.95907054 eV  <-- do not rely on this value for anything but (periodic) metals
  | Electronic free energy        :       -1625.09037607 Ha      -44220.95907054 eV

  Derived energy quantities:
  | Kinetic energy                :        1627.71161967 Ha       44292.28673787 eV
  | Electrostatic energy          :       -3107.68404715 Ha      -84564.38551148 eV
  | Energy correction for multipole
  | error in Hartree potential    :           0.06768574 Ha           1.84182281 eV
  | Sum of eigenvalues per atom                           :       -2010.32816320 eV
  | Total energy (T->0) per atom                          :       -3685.07992255 eV  <-- do not rely on this value for anything but (periodic) metals
  | Electronic free energy per atom                       :       -3685.07992255 eV
  Evaluating new KS density.
  Integration grid: deviation in total charge (<rho> - N_e) =   1.421085E-14

  Self-consistency convergence accuracy:
  | Change of charge density      :  0.8005E-01
  | Change of sum of eigenvalues  : -0.3254E+01 eV
  | Change of total energy        :  0.5463E-01 eV


------------------------------------------------------------
  End self-consistency iteration #     4       :  max(cpu_time)    wall_clock(cpu1)
  | Time for this iteration                     :        0.081 s           0.078 s
  | Charge density update                       :        0.026 s           0.025 s
  | Density mixing                              :        0.004 s           0.001 s
  | Hartree multipole update                    :        0.001 s           0.001 s
  | Hartree multipole summation                 :        0.017 s           0.017 s
  | Integration                                 :        0.028 s           0.028 s
  | Solution of K.-S. eqns.                     :        0.004 s           0.004 s
  | Total energy evaluation                     :        0.000 s           0.001 s

  Partial memory accounting:
  | Current value for overall tracked memory usage:
  |   Minimum:        0.274 MB (on task 23)
  |   Maximum:        0.293 MB (on task  0)
  |   Average:        0.288 MB
  | Peak value for overall tracked memory usage:
  |   Minimum:        1.295 MB (on task 21 after allocating wave)
  |   Maximum:        1.364 MB (on task 10 after allocating wave)
  |   Average:        1.335 MB
  | Largest tracked array allocation so far:
  |   Minimum:        0.696 MB (gradient_basis_wave on task 16)
  |   Maximum:        0.736 MB (gradient_basis_wave on task  3)
  |   Average:        0.721 MB
  Note:  These values currently only include a subset of arrays which are explicitly tracked.
  The "true" memory usage will be greater.
------------------------------------------------------------

------------------------------------------------------------
          Begin self-consistency iteration #    5

  Date     :  20220517, Time     :  111654.043
------------------------------------------------------------
  Pulay mixing of updated and previous charge densities.
  Renormalizing the density to the exact electron count on the 3D integration grid.
  | Formal number of electrons (from input files) :     120.0000000000
  | Integrated number of electrons on 3D grid     :     120.0000000000
  | Charge integration error                      :      -0.0000000000
  | Normalization factor for density and gradient :       1.0000000000

  Evaluating partitioned Hartree potential by multipole expansion.
  | Original multipole sum: apparent total charge =  -0.762038E-13
  | Sum of charges compensated after spline to logarithmic grids =   0.857207E-04
  | Analytical far-field extrapolation by fixed multipoles:
  | Hartree multipole sum: apparent total charge =  -0.784668E-13
  Summing up the Hartree potential.
  Time summed over all CPUs for potential: real work        0.379 s, elapsed        0.393 s
  | RMS charge density error from multipole expansion :   0.190815E-01

  Integrating Hamiltonian matrix: batch-based integration.
  Time summed over all CPUs for integration: real work        0.636 s, elapsed        0.664 s

  Updating Kohn-Sham eigenvalues and eigenvectors using ELSI and the ELPA eigensolver.
  Starting ELPA eigensolver
  Finished transformation to standard eigenproblem
  | Time :     0.001 s
  Finished solving standard eigenproblem
  | Time :     0.003 s
  Finished back-transformation of eigenvectors
  | Time :     0.000 s

  Obtaining occupation numbers and chemical potential using ELSI.
  | Chemical potential (Fermi level):    -7.91451741 eV
  Highest occupied state (VBM) at     -9.69737896 eV
  | Occupation number:      2.00000000

  Lowest unoccupied state (CBM) at    -4.28877029 eV
  | Occupation number:      0.00000000

  Overall HOMO-LUMO gap:      5.40860867 eV.

  Total energy components:
  | Sum of eigenvalues            :        -886.35693743 Ha      -24118.99942856 eV
  | XC energy correction          :        -145.11365338 Ha       -3948.74341838 eV
  | XC potential correction       :         188.95307421 Ha        5141.67475484 eV
  | Free-atom electrostatic energy:        -781.37144253 Ha      -21262.19876007 eV
  | Hartree energy correction     :          -1.20128498 Ha         -32.68862753 eV
  | Entropy correction            :           0.00000000 Ha           0.00000000 eV
[...]
   Total forces(   7)            :  0.126121E+01 -0.165206E+01 -0.931555E+00
  atom #    8
   Hellmann-Feynman              :  0.230846E+01  0.229382E+01 -0.567392E+00
   Ionic forces                  :  0.000000E+00  0.000000E+00  0.000000E+00
   Multipole                     :  0.375403E+00  0.380202E+00 -0.101751E+00
   Hartree pot. SCF incomplete   : -0.229109E-06 -0.216096E-06  0.100053E-06
   Pulay + GGA                   : -0.499964E+01 -0.500205E+01  0.128746E+01
   ----------------------------------------------------------------
   Total forces(   8)            : -0.231578E+01 -0.232803E+01  0.618320E+00
  atom #    9
   Hellmann-Feynman              :  0.571391E+00 -0.980365E+00  0.565162E-01
   Ionic forces                  :  0.000000E+00  0.000000E+00  0.000000E+00
   Multipole                     :  0.357967E+00 -0.299103E+00 -0.274618E+00
   Hartree pot. SCF incomplete   :  0.103990E-06 -0.318048E-06 -0.145041E-05
   Pulay + GGA                   : -0.251298E+01  0.283756E+01  0.769818E+00
   ----------------------------------------------------------------
   Total forces(   9)            : -0.158363E+01  0.155809E+01  0.551715E+00
  atom #   10
   Hellmann-Feynman              : -0.100042E+01  0.582448E+00 -0.535939E-01
   Ionic forces                  :  0.000000E+00  0.000000E+00  0.000000E+00
   Multipole                     : -0.230237E+00  0.432572E+00  0.233381E+00
   Hartree pot. SCF incomplete   : -0.126822E-06  0.324242E-06  0.156850E-05
   Pulay + GGA                   :  0.272992E+01 -0.262156E+01 -0.740580E+00
   ----------------------------------------------------------------
   Total forces(  10)            :  0.149926E+01 -0.160654E+01 -0.560791E+00
  atom #   11
   Hellmann-Feynman              :  0.238047E+01  0.119541E+01  0.197450E+01
   Ionic forces                  :  0.000000E+00  0.000000E+00  0.000000E+00
   Multipole                     :  0.596315E+00  0.330065E+00  0.427187E+00
   Hartree pot. SCF incomplete   :  0.263384E-06  0.432888E-06 -0.367197E-06
   Pulay + GGA                   : -0.508059E+01 -0.250483E+01 -0.430492E+01
   ----------------------------------------------------------------
   Total forces(  11)            : -0.210380E+01 -0.979362E+00 -0.190324E+01
  atom #   12
   Hellmann-Feynman              : -0.199983E+01 -0.201877E+01  0.548650E+00
   Ionic forces                  :  0.000000E+00  0.000000E+00  0.000000E+00
   Multipole                     : -0.467208E+00 -0.456826E+00  0.952011E-01
   Hartree pot. SCF incomplete   : -0.282940E-06 -0.199994E-06 -0.379947E-07
   Pulay + GGA                   :  0.477129E+01  0.495169E+01 -0.159546E+01
   ----------------------------------------------------------------
   Total forces(  12)            :  0.230424E+01  0.247610E+01 -0.951613E+00


  Self-consistency convergence accuracy:
  | Change of charge density      :  0.9602E-07
  | Change of sum of eigenvalues  : -0.3561E-06 eV
  | Change of total energy        : -0.3527E-09 eV
  | Change of forces              :  0.2000E-06 eV/A

  Writing Kohn-Sham eigenvalues.

  State    Occupation    Eigenvalue [Ha]    Eigenvalue [eV]
      1       2.00000         -55.642361        -1514.10569
      2       2.00000         -55.622205        -1513.55722
      3       2.00000         -55.620323        -1513.50601
      4       2.00000         -24.305239         -661.37921
      5       2.00000         -24.305110         -661.37570
      6       2.00000         -24.304237         -661.35194
      7       2.00000         -24.304089         -661.34791
      8       2.00000         -24.218129         -659.00881
      9       2.00000         -24.214275         -658.90395
     10       2.00000         -24.208992         -658.76020
     11       2.00000         -24.207840         -658.72884
     12       2.00000         -24.207323         -658.71478
     13       2.00000          -4.094544         -111.41822
     14       2.00000          -4.075459         -110.89887
     15       2.00000          -4.073539         -110.84663
     16       2.00000          -2.687515          -73.13100
     17       2.00000          -2.685765          -73.08337
     18       2.00000          -2.684998          -73.06251
     19       2.00000          -2.669235          -72.63357
     20       2.00000          -2.667715          -72.59222
     21       2.00000          -2.667280          -72.58038
     22       2.00000          -2.665773          -72.53937
     23       2.00000          -2.664040          -72.49221
     24       2.00000          -2.662181          -72.44162
     25       2.00000          -1.183891          -32.21532
     26       2.00000          -1.172631          -31.90890
     27       2.00000          -1.167992          -31.78268
     28       2.00000          -1.158928          -31.53604
     29       2.00000          -1.069295          -29.09701
     30       2.00000          -1.064673          -28.97122
     31       2.00000          -1.054889          -28.70500
     32       2.00000          -1.053676          -28.67198
     33       2.00000          -1.051172          -28.60383
     34       2.00000          -0.564586          -15.36316
     35       2.00000          -0.552191          -15.02588
     36       2.00000          -0.539989          -14.69385
     37       2.00000          -0.534855          -14.55414
     38       2.00000          -0.508075          -13.82542
     39       2.00000          -0.491141          -13.36462
     40       2.00000          -0.489133          -13.30998
     41       2.00000          -0.471932          -12.84193
     42       2.00000          -0.467953          -12.73365
     43       2.00000          -0.465629          -12.67040
     44       2.00000          -0.464690          -12.64485
     45       2.00000          -0.449230          -12.22416
     46       2.00000          -0.435009          -11.83719
     47       2.00000          -0.429254          -11.68060
     48       2.00000          -0.411856          -11.20718
     49       2.00000          -0.406854          -11.07106
     50       2.00000          -0.403647          -10.98378
     51       2.00000          -0.375851          -10.22744
     52       2.00000          -0.375322          -10.21302
     53       2.00000          -0.371535          -10.10998
     54       2.00000          -0.371015          -10.09583
     55       2.00000          -0.360994           -9.82315
     56       2.00000          -0.360312           -9.80458
     57       2.00000          -0.359920           -9.79392
     58       2.00000          -0.357909           -9.73919
     59       2.00000          -0.357442           -9.72650
     60       2.00000          -0.355737           -9.68009
     61       0.00000          -0.157621           -4.28908
     62       0.00000          -0.116567           -3.17196
     63       0.00000          -0.079016           -2.15013
     64       0.00000          -0.045652           -1.24226
     65       0.00000          -0.037501           -1.02044
     66       0.00000          -0.019051           -0.51840
     67       0.00000          -0.018879           -0.51374
     68       0.00000           0.020668            0.56240
     69       0.00000           0.028985            0.78872
     70       0.00000           0.056483            1.53699
     71       0.00000           0.057284            1.55878
     72       0.00000           0.101499            2.76194
     73       0.00000           0.130364            3.54739
     74       0.00000           0.142724            3.88372
     75       0.00000           0.163386            4.44595
     76       0.00000           0.167084            4.54660
     77       0.00000           0.168314            4.58007
     78       0.00000           0.176393            4.79991
     79       0.00000           0.187212            5.09430
     80       0.00000           0.190111            5.17318
     81       0.00000           0.197075            5.36267
     82       0.00000           0.209652            5.70492
     83       0.00000           0.211513            5.75556
     84       0.00000           0.218969            5.95845
     85       0.00000           0.234931            6.39280
     86       0.00000           0.245222            6.67282
     87       0.00000           0.248987            6.77528
     88       0.00000           0.250190            6.80803
     89       0.00000           0.258557            7.03571
     90       0.00000           0.269615            7.33659
     91       0.00000           0.289950            7.88995
     92       0.00000           0.302034            8.21877
     93       0.00000           0.318786            8.67461
     94       0.00000           0.350392            9.53465
     95       0.00000           0.361306            9.83164
     96       0.00000           0.365434            9.94395

  Highest occupied state (VBM) at     -9.68009058 eV
  | Occupation number:      2.00000000

  Lowest unoccupied state (CBM) at    -4.28907845 eV
  | Occupation number:      0.00000000

  Overall HOMO-LUMO gap:      5.39101213 eV.
  | Chemical Potential                          :    -7.91600243 eV

  Self-consistency cycle converged.


------------------------------------------------------------
  End self-consistency iteration #    14       :  max(cpu_time)    wall_clock(cpu1)
  | Time for this iteration                     :        0.258 s           0.257 s
  | Charge density & force component update     :        0.138 s           0.138 s
  | Density mixing                              :        0.005 s           0.003 s
  | Hartree multipole update                    :        0.001 s           0.002 s
  | Hartree multipole summation                 :        0.049 s           0.049 s
  | Hartree pot. SCF incomplete forces          :        0.032 s           0.032 s
  | Integration                                 :        0.028 s           0.028 s
  | Solution of K.-S. eqns.                     :        0.004 s           0.004 s
  | Total energy evaluation                     :        0.000 s           0.000 s

  Partial memory accounting:
  | Current value for overall tracked memory usage:
  |   Minimum:        0.274 MB (on task 23)
  |   Maximum:        0.293 MB (on task  0)
  |   Average:        0.289 MB
  | Peak value for overall tracked memory usage:
  |   Minimum:        2.882 MB (on task 16 after allocating hessian_basis_wave)
  |   Maximum:        3.015 MB (on task 10 after allocating hessian_basis_wave)
  |   Average:        2.959 MB
  | Largest tracked array allocation so far:
  |   Minimum:        1.393 MB (hessian_basis_wave on task 16)
  |   Maximum:        1.473 MB (hessian_basis_wave on task  3)
  |   Average:        1.442 MB
  Note:  These values currently only include a subset of arrays which are explicitly tracked.
  The "true" memory usage will be greater.
------------------------------------------------------------
  Removing unitary transformations (pure translations, rotations) from forces on atoms.
  Atomic forces before filtering:
  | Net force on center of mass :  -0.332038E-02  0.199309E-02 -0.398626E-02 eV/A
  | Net torque on center of mass:   0.304296E-01 -0.466136E-01 -0.184813E-01 eV
  Atomic forces after filtering:
  | Net force on center of mass :   0.713624E-15  0.356812E-15 -0.356812E-15 eV/A
  | Net torque on center of mass:  -0.302107E-14 -0.755268E-15 -0.151054E-14 eV

  Energy and forces in a compact form:
  | Total energy uncorrected      :         -0.442209553184649E+05 eV
  | Total energy corrected        :         -0.442209553184649E+05 eV  <-- do not rely on this value for anything but (periodic) metals
  | Electronic free energy        :         -0.442209553184649E+05 eV
  Total atomic forces (unitary forces cleaned) [eV/Ang]:
  |    1         -0.290172227021603E+00         -0.129266493668042E+01          0.226706635522260E+01
  |    2          0.207413108784964E+01          0.204469543049943E+01         -0.495996555243491E+00
  |    3         -0.109828653111616E+01          0.475385548878691E-01         -0.220145731191568E+01
  |    4          0.211044496266727E+01          0.197093132112277E+01         -0.231959726740195E+00
  |    5         -0.132826692001379E+01          0.159535085764121E+01          0.905450509651000E+00
  |    6         -0.533613687723503E+00         -0.183533935202974E+01          0.293370543331384E+01
  |    7          0.126076475599563E+01         -0.165278624560727E+01         -0.930943237978577E+00
  |    8         -0.231619437472912E+01         -0.232792707600531E+01          0.617057589817692E+00
  |    9         -0.158409925870435E+01          0.155747685047050E+01          0.552035695240158E+00
  |   10          0.150022305347923E+01         -0.160623125802906E+01         -0.560599378454993E+00
  |   11         -0.210153915065681E+01         -0.977838162524181E+00         -0.190402601944015E+01
  |   12          0.230660828997357E+01          0.247679401625422E+01         -0.950333353472210E+00

  ------------------------------------ 
  Start decomposition of the XC Energy 
  ------------------------------------ 
  X and C from original XC functional choice 
  Hartree-Fock Energy :          0.000000000 Ha              0.000000000 eV
  X Energy            :       -140.177046429 Ha          -3814.411508451 eV
  C Energy            :         -4.940652142 Ha           -134.441985111 eV
  Total XC Energy     :       -145.117698571 Ha          -3948.853493562 eV
  ------------------------------------ 
  LDA X and C from self-consistent density 
  X Energy LDA        :       -132.749079975 Ha          -3612.286257216 eV
  C Energy LDA        :         -8.823022812 Ha           -240.086666195 eV
  ------------------------------------ 
  End decomposition of the XC Energy 
  ------------------------------------ 

------------------------------------------------------------

------------------------------------------------------------------------------
  Final output of selected total energy values:

  The following output summarizes some interesting total energy values
  at the end of a run (AFTER all relaxation, molecular dynamics, etc.).

  | Total energy of the DFT / Hartree-Fock s.c.f. calculation      :         -44220.955318465 eV
  | Final zero-broadening corrected energy (caution - metals only) :         -44220.955318465 eV
  | For reference only, the value of 1 Hartree used in FHI-aims is :             27.211384500 eV

  Before relying on these values, please be sure to understand exactly which
  total energy value is referred to by a given number. Different objects may
  all carry the same name 'total energy'. Definitions:

  Total energy of the DFT / Hartree-Fock s.c.f. calculation:
  | Note that this energy does not include ANY quantities calculated after the
  | s.c.f. cycle, in particular not ANY RPA, MP2, etc. many-body perturbation terms.

  Final zero-broadening corrected energy:
  | For metallic systems only, a broadening of the occupation numbers at the Fermi
  | level can be extrapolated back to zero broadening by an electron-gas inspired
  | formula. For all systems that are not real metals, this value can be
  | meaningless and should be avoided.

------------------------------------------------------------------------------
  Methods described in the following list of references were used in this FHI-aims run.
  If you publish the results, please make sure to cite these reference if they apply.
  FHI-aims is an academic code, and for our developers (often, Ph.D. students
  and postdocs), scientific credit in the community is essential.
  Thank you for helping us!

  For any use of FHI-aims, please cite:

    Volker Blum, Ralf Gehrke, Felix Hanke, Paula Havu, Ville Havu,
    Xinguo Ren, Karsten Reuter, and Matthias Scheffler
    'Ab initio molecular simulations with numeric atom-centered orbitals'
    Computer Physics Communications 180, 2175-2196 (2009)
    http://dx.doi.org/10.1016/j.cpc.2009.06.022


  The ELSI infrastructure was used in your run to solve the Kohn-Sham electronic structure.
  Please check out http://elsi-interchange.org to learn more.
  If scalability is important for your project, please acknowledge ELSI by citing:

    V. W-z. Yu, F. Corsetti, A. Garcia, W. P. Huhn, M. Jacquelin, W. Jia,
    B. Lange, L. Lin, J. Lu, W. Mi, A. Seifitokaldani, A. Vazquez-Mayagoitia,
    C. Yang, H. Yang, and V. Blum
    'ELSI: A unified software interface for Kohn-Sham electronic structure solvers'
    Computer Physics Communications 222, 267-285 (2018).
    http://dx.doi.org/10.1016/j.cpc.2017.09.007


  For the real-space grid partitioning and parallelization used in this calculation, please cite:

    Ville Havu, Volker Blum, Paula Havu, and Matthias Scheffler,
    'Efficient O(N) integration for all-electron electronic structure calculation'
    'using numerically tabulated basis functions'
    Journal of Computational Physics 228, 8367-8379 (2009).
    http://dx.doi.org/10.1016/j.jcp.2009.08.008

  Of course, there are many other important community references, e.g., those cited in the
  above references. Our list is limited to references that describe implementations in the
  FHI-aims code. The reason is purely practical (length of this list) - please credit others as well.

------------------------------------------------------------
          Leaving FHI-aims.
          Date     :  20220517, Time     :  111655.355

          Computational steps:
          | Number of self-consistency cycles          :           14
          | Number of SCF (re)initializations          :            1

          Detailed time accounting                     :  max(cpu_time)    wall_clock(cpu1)
          | Total time                                  :        1.929 s           2.010 s
          | Preparation time                            :        0.184 s           0.183 s
          | Boundary condition initalization            :        0.000 s           0.000 s
          | Grid partitioning                           :        0.033 s           0.033 s
          | Preloading free-atom quantities on grid     :        0.014 s           0.013 s
          | Free-atom superposition energy              :        0.005 s           0.005 s
          | Total time for integrations                 :        0.438 s           0.439 s
          | Total time for solution of K.-S. equations  :        0.111 s           0.117 s
          | Total time for density & force components   :        0.643 s           0.641 s
          | Total time for mixing                       :        0.069 s           0.039 s
          | Total time for Hartree multipole update     :        0.018 s           0.020 s
          | Total time for Hartree multipole sum        :        0.304 s           0.302 s
          | Total time for total energy evaluation      :        0.002 s           0.003 s
          | Total time NSC force correction             :        0.064 s           0.064 s
          | Total time for scaled ZORA corrections      :        0.000 s           0.000 s

          Partial memory accounting:
          | Residual value for overall tracked memory usage across tasks:     0.000000 MB (should be 0.000000 MB)
          | Peak values for overall tracked memory usage:
          |   Minimum:        2.882 MB (on task 16 after allocating hessian_basis_wave)
          |   Maximum:        3.015 MB (on task 10 after allocating hessian_basis_wave)
          |   Average:        2.959 MB
          | Largest tracked array allocation:
          |   Minimum:        1.393 MB (hessian_basis_wave on task 16)
          |   Maximum:        1.473 MB (hessian_basis_wave on task  3)
          |   Average:        1.442 MB
          Note:  These values currently only include a subset of arrays which are explicitly tracked.
          The "true" memory usage will be greater.

          Have a nice day.
------------------------------------------------------------
