********************************************************************************
*                       GENERAL UTILITY LATTICE PROGRAM                        *
*                                 Julian Gale                                  *
*                       Curtin Institute for Computation                       *
*                           Department of Chemistry                            *
*                    Curtin University, Western Australia                      *
********************************************************************************
* Version = 5.1.1 * Last modified =  24th November 2018                        *
********************************************************************************
*  optimise     - perform optimisation run                                     *
*  conp         - constant pressure calculation                                *
*  property     - calculate properties for final geometry                      *
*  phonon       - calculate phonons for final geometry                         *
*  eigenvectors - output phonon eigenvectors                                   *
*  conjugate    - use conjugate gradients minimiser                            *
********************************************************************************

  Job Started  at 14:40.11 25th May        2022                               

  Number of CPUs =     1

  Host name      = login03                                 


  Total number of configurations input =      1

********************************************************************************
*  Input for Configuration =   1                                               *
********************************************************************************

  Formula = Al3F9                                                       

  Number of irreducible atoms/shells =      21


  Total number atoms/shells =      21

  Dimensionality = 0               :  Cluster


  Charge on cluster =  -0.000000


  Initial cluster dipoles : x =     -0.000000 e.Angs
                            y =      0.000000 e.Angs
                            z =     -0.000000 e.Angs

  Temperature of configuration =  0.000     K 

  Symmetry number =      1

  Cartesian coordinates of cluster :

--------------------------------------------------------------------------------
   No.  Atomic       x           y          z         Charge      Occupancy
        Label      (Angs)      (Angs)     (Angs)        (e)         (Frac)  
--------------------------------------------------------------------------------
      1 Al    c      0.2755     -2.3280     -1.8271     3.00000    1.000000    
      2 Al    c      2.0347 *   -0.5409 *   -0.8074 *   3.00000    1.000000    
      3 Al    c     -0.3352 *    0.3091 *   -1.8020 *   3.00000    1.000000    
      4 F     c      3.6251 *   -0.1800 *   -0.0316 *   0.59000    1.000000    
      5 F     c     -0.1668 *   -4.0322 *   -2.2296 *   0.59000    1.000000    
      6 F     c      2.1010 *   -1.8118 *   -2.2879 *   0.59000    1.000000    
      7 F     c      1.5295 *    0.6562 *   -2.2644 *   0.59000    1.000000    
      8 F     c     -1.4832 *    1.6523 *   -2.1755 *   0.59000    1.000000    
      9 F     c     -1.1426 *   -1.2750 *   -0.9957 *   0.59000    1.000000    
     10 F     c     -0.1169 *   -1.0163 *   -3.2187 *   0.59000    1.000000    
     11 F     c      0.5037 *    0.3975 *   -0.0415 *   0.59000    1.000000    
     12 F     c      1.0753 *   -2.0705 *   -0.0649 *   0.59000    1.000000    
     13 F     s      3.6251 *   -0.1800 *   -0.0316 *  -1.59000    1.000000    
     14 F     s     -0.1668 *   -4.0322 *   -2.2296 *  -1.59000    1.000000    
     15 F     s      2.1010 *   -1.8118 *   -2.2879 *  -1.59000    1.000000    
     16 F     s      1.5295 *    0.6562 *   -2.2644 *  -1.59000    1.000000    
     17 F     s     -1.4832 *    1.6523 *   -2.1755 *  -1.59000    1.000000    
     18 F     s     -1.1426 *   -1.2750 *   -0.9957 *  -1.59000    1.000000    
     19 F     s     -0.1169 *   -1.0163 *   -3.2187 *  -1.59000    1.000000    
     20 F     s      0.5037 *    0.3975 *   -0.0415 *  -1.59000    1.000000    
     21 F     s      1.0753 *   -2.0705 *   -0.0649 *  -1.59000    1.000000    
--------------------------------------------------------------------------------


  Brillouin zone sampling points :

--------------------------------------------------------------------------------
  Point number          x          y          z            Weight
--------------------------------------------------------------------------------
        1           0.000000   0.000000   0.000000     1.00000000
--------------------------------------------------------------------------------


********************************************************************************
*  General input information                                                   *
********************************************************************************

  Species output for all configurations : 

--------------------------------------------------------------------------------
  Species    Type    Atomic    Atomic    Charge       Radii (Angs)     Library
                     Number     Mass       (e)     Cova   Ionic  VDW   Symbol
--------------------------------------------------------------------------------
    Al       Core       13      26.98   3.000000   1.350  0.000  2.050          
    F        Core        9      19.00   0.590000   0.710  0.000  1.300          
    F        Shell       9       0.00  -1.590000   0.710  0.000  1.300          
--------------------------------------------------------------------------------


  Accuracy factor for short range sums = 12.000

  Time limit = Infinity

  Maximum range for interatomic potentials =    100000.000000 Angstroms

  General interatomic potentials :

--------------------------------------------------------------------------------
Atom  Types   Potential      Parameter       Value         Units   Cutoffs(Ang)
  1     2                                                            Min /  Max 
--------------------------------------------------------------------------------
Al   c F    s Buckingham    Buckingham A     3760.0008    eV        0.000 10.000
                            Buckingham rho  0.22200000    Ang       
                            Buckingham C     0.0000000    eV*Ang^6  
--------------------------------------------------------------------------------
F    s F    s Buck 4 range  Buck4 A          1127.7000    eV        0.000 12.000
                            Buck4 rho       0.27530000    Ang       
                            Buck4 C          15.830000    eV*Ang^6  
                            Buck4 minimum    2.7900000    Ang       
--------------------------------------------------------------------------------
F    c F    s Spring (c-s)  Spring k 2       20.770000    eV*Ang^-2 0.000  0.800
                            Spring k 4       0.0000000    eV*Ang^-4 
--------------------------------------------------------------------------------

********************************************************************************
*  Output for configuration   1                                                *
********************************************************************************


  Components of energy : 

--------------------------------------------------------------------------------
  Interatomic potentials     =          10.32491910 eV    
  Monopole - monopole (real) =        -177.12255046 eV    
--------------------------------------------------------------------------------
  Total lattice energy       =        -166.79763136 eV    
--------------------------------------------------------------------------------
  Total lattice energy       =          -16093.4217 kJ/mol
--------------------------------------------------------------------------------


  Number of variables =       60

  Maximum number of calculations  =          2000
  Maximum Hessian update interval =            10
  Maximum step size               =   1.000000000
  Maximum parameter tolerance     =   0.000001000
  Maximum function  tolerance     =   0.000010000
  Maximum gradient  tolerance     =   0.000000010
  Maximum gradient  component     =   0.010000000

  Symmetry not applied to optimisation

  Cell parameters to be optimised using strains

  Conjugate gradient optimiser to be used

  Lower half triangular hessian to be used

  Minimiser to switch to RFO
  When gradient norm is less than     0.010000

  Start of cluster optimisation :

  Cycle:      0 Energy:      -166.797631  Gnorm:      0.836841  CPU:    0.003
  Cycle:      1 Energy:      -179.469526  Gnorm:      0.455891  CPU:    0.004
  Cycle:      2 Energy:      -181.415629  Gnorm:      0.367015  CPU:    0.004
  Cycle:      3 Energy:      -183.221456  Gnorm:      0.251927  CPU:    0.004
  Cycle:      4 Energy:      -183.975708  Gnorm:      0.194845  CPU:    0.004
  Cycle:      5 Energy:      -184.478904  Gnorm:      0.149174  CPU:    0.005
  Cycle:      6 Energy:      -184.774312  Gnorm:      0.120063  CPU:    0.005
  Cycle:      7 Energy:      -184.974437  Gnorm:      0.098669  CPU:    0.005
  Cycle:      8 Energy:      -185.112879  Gnorm:      0.083397  CPU:    0.005
  Cycle:      9 Energy:      -185.214813  Gnorm:      0.072132  CPU:    0.006
  Cycle:     10 Energy:      -185.301989  Gnorm:      0.062651  CPU:    0.006
  Cycle:     11 Energy:      -185.361055  Gnorm:      0.056710  CPU:    0.006
  Cycle:     12 Energy:      -185.411947  Gnorm:      0.051743  CPU:    0.006
  Cycle:     13 Energy:      -185.454661  Gnorm:      0.047716  CPU:    0.006
  Cycle:     14 Energy:      -185.491416  Gnorm:      0.044300  CPU:    0.007
  Cycle:     15 Energy:      -185.523329  Gnorm:      0.041327  CPU:    0.007
  Cycle:     16 Energy:      -185.551248  Gnorm:      0.038679  CPU:    0.007
  Cycle:     17 Energy:      -185.575793  Gnorm:      0.036283  CPU:    0.007
  Cycle:     18 Energy:      -185.597444  Gnorm:      0.034088  CPU:    0.008
  Cycle:     19 Energy:      -185.616589  Gnorm:      0.032061  CPU:    0.008
  Cycle:     20 Energy:      -185.634514  Gnorm:      0.030068  CPU:    0.008
  Cycle:     21 Energy:      -185.649340  Gnorm:      0.028334  CPU:    0.008
  Cycle:     22 Energy:      -185.662618  Gnorm:      0.026701  CPU:    0.008
  Cycle:     23 Energy:      -185.674405  Gnorm:      0.025173  CPU:    0.009
  Cycle:     24 Energy:      -185.684888  Gnorm:      0.023741  CPU:    0.009
  Cycle:     25 Energy:      -185.694218  Gnorm:      0.022399  CPU:    0.009
  Cycle:     26 Energy:      -185.702526  Gnorm:      0.021139  CPU:    0.009
  Cycle:     27 Energy:      -185.709930  Gnorm:      0.019958  CPU:    0.009
  Cycle:     28 Energy:      -185.716532  Gnorm:      0.018849  CPU:    0.010
  Cycle:     29 Energy:      -185.722424  Gnorm:      0.017808  CPU:    0.010
  Cycle:     30 Energy:      -185.727966  Gnorm:      0.016776  CPU:    0.010
  Cycle:     31 Energy:      -185.732610  Gnorm:      0.015868  CPU:    0.010
  Cycle:     32 Energy:      -185.736795  Gnorm:      0.015009  CPU:    0.011
  Cycle:     33 Energy:      -185.740538  Gnorm:      0.014202  CPU:    0.011
  Cycle:     34 Energy:      -185.743892  Gnorm:      0.013445  CPU:    0.011
  Cycle:     35 Energy:      -185.746900  Gnorm:      0.012735  CPU:    0.011
  Cycle:     36 Energy:      -185.749601  Gnorm:      0.012067  CPU:    0.011
  Cycle:     37 Energy:      -185.752027  Gnorm:      0.011440  CPU:    0.012
  Cycle:     38 Energy:      -185.754209  Gnorm:      0.010851  CPU:    0.012
  Cycle:     39 Energy:      -185.756173  Gnorm:      0.010298  CPU:    0.012
  Cycle:     40 Energy:      -185.758032  Gnorm:      0.009752  CPU:    0.012
  ** Hessian has required structure
  Cycle:     41 Energy:      -185.760511  Gnorm:      0.009110  CPU:    0.014
  ** Hessian has required structure
  Cycle:     42 Energy:      -185.763519  Gnorm:      0.008263  CPU:    0.014
  ** Hessian has required structure
  Cycle:     43 Energy:      -185.768054  Gnorm:      0.006780  CPU:    0.015
  ** Hessian has required structure
  Cycle:     44 Energy:      -185.772611  Gnorm:      0.004839  CPU:    0.016
  ** Hessian has required structure
  Cycle:     45 Energy:      -185.776462  Gnorm:      0.002051  CPU:    0.017
  ** Hessian has required structure
  Cycle:     46 Energy:      -185.777297  Gnorm:      0.000024  CPU:    0.018
  ** Hessian has required structure
  Cycle:     47 Energy:      -185.777297  Gnorm:      0.000002  CPU:    0.019
  ** Hessian has required structure
  Cycle:     48 Energy:      -185.777297  Gnorm:      0.000000  CPU:    0.019
  ** Hessian has required structure

  XYZ File written as 006/006_eig.xyz



  **** Optimisation achieved ****


  Final energy =    -185.77729729 eV
  Final Gnorm  =       0.00000001

  Components of energy : 

--------------------------------------------------------------------------------
  Interatomic potentials     =          37.50021207 eV    
  Monopole - monopole (real) =        -223.27750937 eV    
--------------------------------------------------------------------------------
  Total lattice energy       =        -185.77729729 eV    
--------------------------------------------------------------------------------
  Total lattice energy       =          -17924.6693 kJ/mol
--------------------------------------------------------------------------------

  Final cartesian coordinates of atoms :

--------------------------------------------------------------------------------
   No.  Atomic        x           y          z          Radius
        Label       (Angs)      (Angs)     (Angs)       (Angs) 
--------------------------------------------------------------------------------
     1  Al    c     0.275529   -2.328041   -1.827141    0.000000
     2  Al    c     2.034701   -0.540947   -0.807450    0.000000
     3  Al    c    -0.335181    0.309110   -1.802045    0.000000
     4  F     c     3.625117   -0.180023   -0.031593    0.000000
     5  F     c    -0.166832   -4.032157   -2.229569    0.000000
     6  F     c     2.101026   -1.811793   -2.287933    0.000000
     7  F     c     1.529485    0.656214   -2.264446    0.000000
     8  F     c    -1.483236    1.652302   -2.175474    0.000000
     9  F     c    -1.142593   -1.274952   -0.995750    0.000000
    10  F     c    -0.116856   -1.016258   -3.218736    0.000000
    11  F     c     0.503748    0.397520   -0.041460    0.000000
    12  F     c     1.075288   -2.070488   -0.064946    0.000000
    13  F     s     3.376232   -0.236504   -0.153008    0.000000
    14  F     s    -0.097606   -3.765478   -2.166592    0.000000
    15  F     s     1.923591   -1.742910   -2.102546    0.000000
    16  F     s     1.401165    0.513015   -2.081078    0.000000
    17  F     s    -1.303576    1.442104   -2.117036    0.000000
    18  F     s    -0.934372   -1.225234   -1.153129    0.000000
    19  F     s    -0.103702   -1.015737   -2.953363    0.000000
    20  F     s     0.570495    0.303517   -0.280844    0.000000
    21  F     s     1.092921   -1.952408   -0.302311    0.000000
--------------------------------------------------------------------------------


  Final Cartesian derivatives :

--------------------------------------------------------------------------------
   No.  Atomic          x             y             z           Radius
        Label       (eV/Angs)     (eV/Angs)    (eV/Angs)      (eV/Angs)
--------------------------------------------------------------------------------
      1 Al    c       0.000000      0.000000      0.000000      0.000000
      2 Al    c       0.000000     -0.000000      0.000000      0.000000
      3 Al    c      -0.000000     -0.000000     -0.000000      0.000000
      4 F     c      -0.000000     -0.000000     -0.000000      0.000000
      5 F     c       0.000000      0.000000     -0.000000      0.000000
      6 F     c       0.000000     -0.000000      0.000000      0.000000
      7 F     c       0.000000     -0.000000     -0.000000      0.000000
      8 F     c       0.000000     -0.000000     -0.000000      0.000000
      9 F     c      -0.000000     -0.000000     -0.000000      0.000000
     10 F     c      -0.000000      0.000000      0.000000      0.000000
     11 F     c       0.000000      0.000000      0.000000      0.000000
     12 F     c       0.000000     -0.000000     -0.000000      0.000000
     13 F     s      -0.000000     -0.000000     -0.000000      0.000000
     14 F     s       0.000000     -0.000000     -0.000000      0.000000
     15 F     s       0.000000      0.000000      0.000000      0.000000
     16 F     s       0.000000      0.000000     -0.000000      0.000000
     17 F     s       0.000000     -0.000000      0.000000      0.000000
     18 F     s      -0.000000      0.000000     -0.000000      0.000000
     19 F     s      -0.000000      0.000000      0.000000      0.000000
     20 F     s      -0.000000      0.000000      0.000000      0.000000
     21 F     s       0.000000      0.000000      0.000000      0.000000
--------------------------------------------------------------------------------
  Maximum abs         0.000000      0.000000      0.000000      0.000000
--------------------------------------------------------------------------------


  Born effective charge tensors : 

-------------------------------------------------------------------------------
  Atom             x           y             z
-------------------------------------------------------------------------------
    1 Al    x       1.2482     -0.1172      0.0062
            y      -0.1172      0.8552     -0.0948
            z       0.0062     -0.0948      1.1970
-------------------------------------------------------------------------------
    2 Al    x       0.8973     -0.0902     -0.1526
            y      -0.0902      1.2723     -0.0338
            z      -0.1526     -0.0338      1.1309
-------------------------------------------------------------------------------
    3 Al    x       1.0794      0.2281     -0.0315
            y       0.2281      1.0206      0.0837
            z      -0.0315      0.0837      1.2004
-------------------------------------------------------------------------------
    4 F     x      -0.0583      0.1109      0.2325
            y       0.1109     -0.5214      0.0527
            z       0.2325      0.0527     -0.4209
-------------------------------------------------------------------------------
    5 F     x      -0.5068      0.1454      0.0296
            y       0.1454      0.0117      0.1306
            z       0.0296      0.1306     -0.5054
-------------------------------------------------------------------------------
    6 F     x      -0.4066     -0.0069     -0.0313
            y      -0.0206     -0.4002     -0.0197
            z      -0.0073     -0.0434     -0.3431
-------------------------------------------------------------------------------
    7 F     x      -0.4165     -0.0001     -0.0365
            y       0.0133     -0.3913      0.0030
            z      -0.0251      0.0350     -0.3422
-------------------------------------------------------------------------------
    8 F     x      -0.2911     -0.2959      0.0778
            y      -0.2959     -0.1997     -0.0976
            z       0.0778     -0.0976     -0.5098
-------------------------------------------------------------------------------
    9 F     x      -0.3928      0.0093     -0.0222
            y       0.0089     -0.4297     -0.0061
            z       0.0133      0.0021     -0.3275
-------------------------------------------------------------------------------
   10 F     x      -0.3612      0.0165     -0.0131
            y       0.0168     -0.4279     -0.0037
            z      -0.0487     -0.0119     -0.3609
-------------------------------------------------------------------------------
   11 F     x      -0.4077      0.0313     -0.0306
            y       0.0179     -0.3827     -0.0007
            z      -0.0420     -0.0326     -0.3595
-------------------------------------------------------------------------------
   12 F     x      -0.3838     -0.0311     -0.0282
            y      -0.0174     -0.4069     -0.0136
            z      -0.0523      0.0101     -0.3592
-------------------------------------------------------------------------------




  Moment of inertia tensor (10^-46 x kgm^2): 

-------------------------------------------------------------------------------
                x           y           z           Principal axis system
-------------------------------------------------------------------------------
       x        129.77        2.70      -23.21          119.062459
       y          2.70      119.74       -5.85          119.062459
       z        -23.21       -5.85      169.37          180.758767
-------------------------------------------------------------------------------
  Centre of mass (Ang) =     0.658350    -0.853293    -1.478879
-------------------------------------------------------------------------------


  Vibrational Frequency Calculation : 

--------------------------------------------------------------------------------

  Frequencies (cm-1) and Eigenvectors : 

  Frequency      -0.0127   -0.0099    0.0000    0.0000    0.0000    0.0063
  IR Intensity    0.0000    0.0000    0.0000    0.0000    0.0000    0.0000
     in X         0.0000    0.0000    0.0000    0.0000    0.0000    0.0000
     in Y         0.0000    0.0000    0.0000    0.0000    0.0000    0.0000
     in Z         0.0000    0.0000    0.0000    0.0000    0.0000    0.0000
  Raman Intsty    0.0000    0.0000    0.0000    0.0000    0.0000    0.0000

     1 x       0.123791  0.216873  0.284126 -0.021839 -0.160886  0.000273
     1 y       0.032713 -0.076865 -0.132578 -0.218395 -0.204489  0.002584
     1 z      -0.274602  0.087096 -0.093725  0.242726 -0.198467 -0.011244
     2 x      -0.058661 -0.058301  0.284126 -0.021838 -0.160886 -0.110445
     2 y      -0.017672  0.238936 -0.132578 -0.218395 -0.204489 -0.032705
     2 z       0.128469  0.008359 -0.093724  0.242725 -0.198467  0.241612
     3 x      -0.065131 -0.158571  0.284127 -0.021839 -0.160886  0.110171
     3 y      -0.015041 -0.162073 -0.132578 -0.218395 -0.204489  0.030119
     3 z       0.146133 -0.095454 -0.093724  0.242726 -0.198466 -0.230368
     4 x      -0.106111 -0.105460  0.238434 -0.018326 -0.135012 -0.199781
     4 y      -0.031966  0.432207 -0.111257 -0.183273 -0.171604 -0.059158
     4 z       0.232385  0.015120 -0.078652  0.203690 -0.166550  0.437048
     5 x       0.223924  0.392297  0.238434 -0.018327 -0.135012  0.000494
     5 y       0.059174 -0.139039 -0.111257 -0.183273 -0.171604  0.004674
     5 z      -0.496722  0.157546 -0.078652  0.203691 -0.166550 -0.020339
     6 x       0.094062  0.128406  0.238434 -0.018327 -0.135012  0.090464
     6 y       0.202959  0.128376 -0.111257 -0.183273 -0.171603 -0.079955
     6 z      -0.072722  0.076879 -0.078652  0.203691 -0.166550  0.256036
     7 x      -0.054310 -0.166452  0.238434 -0.018327 -0.135012  0.176773
     7 y       0.165455  0.061458 -0.111257 -0.183273 -0.171603 -0.058330
     7 z       0.257705 -0.066488 -0.078652  0.203691 -0.166549  0.083945
     8 x      -0.117813 -0.286837  0.238434 -0.018326 -0.135013  0.199287
     8 y      -0.027208 -0.293170 -0.111257 -0.183273 -0.171604  0.054482
     8 z       0.264337 -0.172665 -0.078652  0.203691 -0.166549 -0.416709
     9 x       0.003159  0.041917  0.238434 -0.018327 -0.135012 -0.090250
     9 y      -0.177268 -0.188743 -0.111257 -0.183273 -0.171604  0.081984
     9 z      -0.142938 -0.008477 -0.078652  0.203691 -0.166549 -0.264867
    10 x       0.088981  0.049658  0.238434 -0.018327 -0.135013  0.263726
    10 y       0.205026 -0.186559 -0.111257 -0.183273 -0.171603 -0.030616
    10 z      -0.058850 -0.004651 -0.078652  0.203691 -0.166549 -0.114638
    11 x      -0.140132 -0.174193  0.238434 -0.018326 -0.135012 -0.177203
    11 y      -0.216838  0.059274 -0.111257 -0.183273 -0.171604  0.054270
    11 z       0.173617 -0.070314 -0.078652  0.203691 -0.166549 -0.066284
    12 x       0.008240  0.120665  0.238434 -0.018326 -0.135012 -0.263512
    12 y      -0.179334  0.126192 -0.111257 -0.183273 -0.171604  0.032645
    12 z      -0.156811  0.073053 -0.078652  0.203691 -0.166550  0.105807


  Frequency     117.3517  117.3517  125.1755  125.1755  131.6306  140.8031
  IR Intensity    0.0000    0.0000    0.0161    0.0161    0.0420    0.0000
     in X         0.0000    0.0000    0.0012    0.0121    0.0073    0.0000
     in Y         0.0000    0.0000    0.0140    0.0018    0.0005    0.0000
     in Z         0.0000    0.0000    0.0009    0.0021    0.0343    0.0000
  Raman Intsty    0.0000    0.0000    0.0000    0.0000    0.0000    0.0000

     1 x       0.009451 -0.101268 -0.024348  0.061107 -0.057687  0.006303
     1 y       0.002383 -0.025540 -0.086829 -0.024480 -0.014549  0.001590
     1 z      -0.020481  0.219469 -0.021339  0.025347  0.125019 -0.013661
     2 x      -0.092426  0.042450 -0.029129  0.077886 -0.057687 -0.167421
     2 y      -0.023310  0.010706 -0.068242 -0.020145 -0.014549 -0.042224
     2 z       0.200307 -0.091997 -0.021382  0.033594  0.125019  0.362837
     3 x       0.082976  0.058819 -0.012207  0.073637 -0.057687  0.161118
     3 y       0.020927  0.014834 -0.073781 -0.038410 -0.014549  0.040634
     3 z      -0.179825 -0.127472 -0.014219  0.029508  0.125019 -0.349176
     4 x      -0.113732  0.052235 -0.184036 -0.028332  0.210427  0.190359
     4 y      -0.028684  0.013174  0.623282  0.401680  0.053070  0.048009
     4 z       0.246481 -0.113205 -0.012386  0.033671 -0.456038 -0.412548
     5 x       0.011629 -0.124613 -0.002196 -0.666490  0.210427 -0.007167
     5 y       0.002933 -0.031428 -0.083639  0.236801  0.053070 -0.001808
     5 z      -0.025203  0.270061 -0.010747 -0.279977 -0.456038  0.015533
     6 x      -0.216898 -0.170029 -0.001952  0.104920 -0.054769 -0.086362
     6 y       0.318564  0.209284 -0.105328 -0.084034 -0.036672  0.086155
     6 z      -0.152746 -0.117711  0.002208  0.066976  0.158759  0.209513
     7 x       0.010320  0.081944 -0.029583  0.068910 -0.064649  0.127659
     7 y      -0.049094  0.457015 -0.149752 -0.029017  0.005992 -0.050995
     7 z      -0.011172  0.200514 -0.063305  0.027556  0.159165  0.062334
     8 x       0.102103  0.072377  0.459545 -0.189933  0.210427 -0.183192
     8 y       0.025751  0.018254  0.412611 -0.292971  0.053070 -0.046202
     8 z      -0.221279 -0.156857  0.260061 -0.121733 -0.456038  0.397015
     9 x       0.359110 -0.170006 -0.053297  0.121182 -0.048575  0.146781
     9 y       0.089290 -0.019104 -0.081493 -0.015445 -0.012813  0.108476
     9 z       0.276049 -0.126576 -0.050938  0.081597  0.164393 -0.168349
    10 x      -0.434323  0.204550 -0.065985  0.141858 -0.093110  0.040355
    10 y      -0.108259  0.027816 -0.084693 -0.010231 -0.022920 -0.061280
    10 z      -0.113048  0.051713 -0.023441  0.036788  0.142668 -0.237211
    11 x      -0.002629 -0.164352 -0.053833  0.068260 -0.077036 -0.134705
    11 y       0.051034 -0.477798 -0.155868 -0.029181 -0.041726  0.049218
    11 z      -0.005495 -0.021919 -0.010751  0.028965  0.147896 -0.047065
    12 x       0.284420  0.217893  0.009610  0.126246 -0.086916 -0.093727
    12 y      -0.301535 -0.197213 -0.102412 -0.078655  0.000939 -0.131574
    12 z       0.006412  0.013980 -0.022849  0.020757  0.148302  0.180778


  Frequency     140.8031  171.7486  225.4100  244.6529  244.6529  271.2654
  IR Intensity    0.0000    0.0000    0.0000    0.0264    0.0264    0.0114
     in X         0.0000    0.0000    0.0000    0.0029    0.0190    0.0020
     in Y         0.0000    0.0000    0.0000    0.0218    0.0043    0.0001
     in Z         0.0000    0.0000    0.0000    0.0018    0.0031    0.0093
  Raman Intsty    0.0000    0.0000    0.0000    0.0000    0.0000    0.0000

     1 x       0.189682 -0.272764  0.000000 -0.073130  0.015803 -0.052652
     1 y       0.047838  0.097838  0.000000 -0.285253  0.025141 -0.013279
     1 z      -0.411081 -0.114474  0.000000 -0.066939  0.010217  0.114107
     2 x      -0.089382  0.070290  0.000000 -0.157536 -0.215877 -0.052652
     2 y      -0.022542 -0.303525 -0.000000 -0.027634 -0.054812 -0.013279
     2 z       0.193710 -0.002888 -0.000000 -0.075907 -0.105989  0.114107
     3 x      -0.100300  0.202474 -0.000000  0.085308 -0.173136 -0.052652
     3 y      -0.025296  0.205687 -0.000000 -0.087202  0.208269 -0.013279
     3 z       0.217371  0.117362  0.000000  0.029215 -0.055652  0.114107
     4 x       0.101628 -0.082917 -0.000000 -0.178587 -0.212355  0.017286
     4 y       0.025631  0.358051  0.000000  0.038351 -0.104765  0.004360
     4 z      -0.220249  0.003407  0.000000 -0.077941 -0.110177 -0.037463
     5 x      -0.215670  0.321764 -0.000000 -0.068415  0.090048  0.017286
     5 y      -0.054393 -0.115414  0.000000 -0.297908 -0.000405  0.004360
     5 z       0.467401  0.135038 -0.000000 -0.066237  0.041503 -0.037463
     6 x       0.169164 -0.146157 -0.265299 -0.192947  0.175119 -0.227419
     6 y       0.063599 -0.148477 -0.269510  0.044835 -0.354245  0.298396
     6 z      -0.063536 -0.084719 -0.153778 -0.131190  0.144261 -0.130621
     7 x      -0.132208  0.196897  0.357399  0.051502 -0.145307 -0.073657
     7 y      -0.109207 -0.070625 -0.128196  0.411113  0.009629 -0.365573
     7 z       0.208056  0.082634  0.149994  0.185952 -0.077238 -0.136940
     8 x       0.114042 -0.238846  0.000000  0.138387 -0.156566  0.017286
     8 y       0.028762 -0.242637  0.000000 -0.039401  0.238624  0.004360
     8 z      -0.247152 -0.138446 -0.000000  0.059270 -0.044474 -0.037463
     9 x       0.116917 -0.050740  0.092101  0.231969  0.261733 -0.323804
     9 y      -0.108570  0.219102 -0.397706 -0.080796  0.153758 -0.072909
     9 z      -0.091462  0.002085 -0.003785  0.164601  0.232034 -0.218305
    10 x      -0.017010 -0.050740 -0.092101  0.282359  0.331990  0.369259
    10 y       0.133767  0.219102  0.397706 -0.068088  0.171477  0.084373
    10 z      -0.125057  0.002085  0.003785  0.055396  0.079772  0.119793
    11 x      -0.079809  0.196897 -0.357399  0.137541 -0.153817  0.119113
    11 y       0.055735 -0.070625  0.128196  0.432812  0.007483  0.377037
    11 z       0.251429  0.082634 -0.149994 -0.000513 -0.058794  0.038428
    12 x      -0.057054 -0.146157  0.265299 -0.228596  0.253886  0.272874
    12 y      -0.035324 -0.148477  0.269510  0.035844 -0.334380 -0.286932
    12 z      -0.179430 -0.084719  0.153779 -0.053930 -0.026445  0.032110


  Frequency     294.5411  345.3199  345.3199  362.9746  362.9746  403.7916
  IR Intensity    0.0000    0.0000    0.0000    0.0032    0.0032    0.0000
     in X         0.0000    0.0000    0.0000    0.0001    0.0025    0.0000
     in Y         0.0000    0.0000    0.0000    0.0029    0.0002    0.0000
     in Z         0.0000    0.0000    0.0000    0.0001    0.0005    0.0000
  Raman Intsty    0.1783    0.0000    0.0000    0.0000    0.0000    1.1928

     1 x      -0.006003 -0.000107  0.002784  0.062382 -0.300295  0.061909
     1 y      -0.023125 -0.000027  0.000702  0.185919  0.116611  0.238495
     1 z      -0.005461  0.000232 -0.006033  0.050420 -0.124993  0.056321
     2 x       0.021582  0.002464 -0.001299  0.151494  0.121729 -0.222582
     2 y       0.004898  0.000622 -0.000328 -0.279929  0.191621 -0.050512
     2 z       0.010528 -0.005341  0.002816  0.037327  0.078468 -0.108583
     3 x      -0.015579 -0.002357 -0.001484 -0.258546 -0.012109  0.160673
     3 y       0.018227 -0.000595 -0.000374 -0.111966 -0.249321 -0.187983
     3 z      -0.005067  0.005109  0.003217 -0.132329 -0.034602  0.052262
     4 x       0.024978  0.031684 -0.016705  0.108677  0.230926 -0.386532
     4 y       0.005668  0.007991 -0.004213  0.066865  0.030386 -0.087718
     4 z       0.012185 -0.068665  0.036204  0.057927  0.110091 -0.188563
     5 x      -0.006947 -0.001375  0.035791  0.069129  0.043631  0.107511
     5 y      -0.026763 -0.000347  0.009027  0.273609 -0.002904  0.414165
     5 z      -0.006320  0.002979 -0.077567  0.063738  0.019795  0.097805
     6 x       0.162472  0.309623 -0.160269  0.029926 -0.179843  0.135043
     6 y      -0.292523  0.155878 -0.262724 -0.025172 -0.095282 -0.059331
     6 z       0.232373 -0.152955 -0.302236 -0.253085  0.321134 -0.128993
     7 x       0.018329  0.410573 -0.138193 -0.174190 -0.103488  0.094678
     7 y       0.329914 -0.141691 -0.095648 -0.022482  0.033491  0.114969
     7 z       0.238296  0.158718  0.295858  0.408570 -0.022858 -0.127334
     8 x      -0.018030 -0.030309 -0.019086 -0.073299  0.171528  0.279021
     8 y       0.021095 -0.007644 -0.004814  0.141407 -0.165305 -0.326447
     8 z      -0.005865  0.065686  0.041364 -0.017366  0.059910  0.090757
     9 x      -0.252828 -0.217502 -0.003298 -0.052629 -0.154325 -0.160345
     9 y      -0.055556  0.168740  0.420470 -0.113753  0.012824 -0.038141
     9 z      -0.314572  0.247479 -0.125635  0.190075  0.366486  0.105975
    10 x      -0.396882 -0.029455  0.133505  0.118626  0.173897 -0.021593
    10 y      -0.091887 -0.231023 -0.387631 -0.070562  0.095602 -0.003147
    10 z      -0.002377  0.287727 -0.156551 -0.181071 -0.344837 -0.194730
    11 x       0.162383 -0.399858 -0.140781  0.195686 -0.087689 -0.044074
    11 y       0.366244  0.144394  0.025290  0.070802  0.037476  0.079975
    11 z      -0.073898 -0.181941  0.308737 -0.393028 -0.057097  0.173370
    12 x       0.306526 -0.073382  0.309036 -0.168694  0.132579 -0.003709
    12 y      -0.256192 -0.096298  0.300244 -0.075265 -0.016488 -0.094325
    12 z      -0.079822 -0.359028 -0.020174  0.177366 -0.355950  0.171712


  Frequency     451.1232  451.1232  474.3836  484.3929  484.3929  485.4029
  IR Intensity    0.0366    0.0366    0.0000    0.0000    0.0000    0.0000
     in X         0.0038    0.0264    0.0000    0.0000    0.0000    0.0000
     in Y         0.0304    0.0058    0.0000    0.0000    0.0000    0.0000
     in Z         0.0024    0.0044    0.0000    0.0000    0.0000    0.0000
  Raman Intsty    0.0000    0.0000    0.0000    0.0000    0.0000    8.2265

     1 x      -0.047641  0.086599 -0.366970 -0.231094 -0.000147  0.019758
     1 y      -0.148714 -0.046257  0.131629 -0.058283 -0.000037  0.076113
     1 z      -0.039289  0.034576 -0.154010  0.500829  0.000319  0.017974
     2 x      -0.062948  0.129575  0.094567  0.115675 -0.200060 -0.071035
     2 y      -0.100944 -0.031808 -0.408356  0.029174 -0.050456 -0.016120
     2 z      -0.040793  0.056088 -0.003886 -0.250691  0.433571 -0.034653
     3 x      -0.018076  0.121344  0.272403  0.115419  0.200207  0.051277
     3 y      -0.112316 -0.080402  0.276727  0.029109  0.050493 -0.059993
     3 z      -0.021411  0.046634  0.157896 -0.250138 -0.433891  0.016679
     4 x      -0.190304  0.268891  0.002690 -0.001600  0.002768 -0.236525
     4 y      -0.042074  0.061808 -0.011617 -0.000404  0.000698 -0.053676
     4 z      -0.092707  0.131265 -0.000111  0.003469 -0.005999 -0.115385
     5 x      -0.091137 -0.009521 -0.010439  0.003198  0.000002  0.065787
     5 y      -0.351537 -0.031798  0.003745  0.000806  0.000001  0.253434
     5 z      -0.082962 -0.008093 -0.004381 -0.006930 -0.000004  0.059849
     6 x       0.316653  0.019354  0.182351  0.253917  0.132394 -0.226071
     6 y       0.241141 -0.154929  0.185245  0.082929 -0.169092  0.070168
     6 z       0.067648 -0.240025  0.105698 -0.038868 -0.245980  0.267043
     7 x      -0.081850 -0.385512 -0.245655 -0.169644 -0.207376 -0.171100
     7 y      -0.116963  0.124870  0.088114 -0.204765  0.074215 -0.167206
     7 z       0.201872 -0.140144 -0.103097  0.229623 -0.086840  0.264784
     8 x       0.100391  0.215566  0.007749 -0.001597 -0.002770  0.170738
     8 y      -0.115741 -0.252997  0.007872 -0.000403 -0.000699 -0.199758
     8 z       0.032854  0.070025  0.004492  0.003461  0.006004  0.055536
     9 x      -0.178021  0.083887  0.063304  0.189641 -0.221278  0.260530
     9 y       0.318324  0.275389 -0.273359 -0.165547 -0.174462  0.062576
     9 z       0.101627 -0.136962 -0.002601 -0.097808  0.164775 -0.235695
    10 x      -0.067617 -0.072410  0.063304 -0.064698  0.005189 -0.012754
    10 y       0.346169  0.235970 -0.273359  0.197058  0.119964 -0.006347
    10 z      -0.137641  0.201766 -0.002601 -0.172969  0.303536  0.356568
    11 x       0.108709 -0.368048 -0.245655 -0.079967  0.207217  0.102184
    11 y      -0.068903  0.129275  0.088114  0.141812 -0.074255 -0.098283
    11 z      -0.211109 -0.177991 -0.103097  0.311335  0.087185 -0.327479
    12 x       0.236498 -0.154407  0.182350 -0.129249  0.083855  0.047213
    12 y       0.220926 -0.198752  0.185245 -0.051487  0.223630  0.139091
    12 z       0.241361  0.136550  0.105698 -0.231312 -0.222675 -0.325221


  Frequency     595.2342  624.9040  624.9040  803.1487  803.1487  906.8463
  IR Intensity    0.1892    0.1145    0.1145    0.0086    0.0086    0.0000
     in X         0.0328    0.0886    0.0060    0.0004    0.0067    0.0000
     in Y         0.0021    0.0101    0.1031    0.0078    0.0007    0.0000
     in Z         0.1543    0.0158    0.0054    0.0004    0.0012    0.0000
  Raman Intsty    0.0000    0.0000    0.0000    0.0000    0.0000    3.0596

     1 x       0.182142 -0.556938 -0.001875  0.156261  0.118625 -0.125456
     1 y       0.045937  0.198914 -0.048233  0.587621 -0.060397 -0.483297
     1 z      -0.394741 -0.233836 -0.006478  0.140485  0.047708 -0.114131
     2 x       0.182142 -0.106087  0.105257  0.289440 -0.468477  0.451051
     2 y       0.045937  0.292087 -0.546535 -0.060935 -0.174811  0.102360
     2 z      -0.394741 -0.014960 -0.015033  0.126463 -0.236509  0.220037
     3 x       0.182142 -0.238733 -0.338758 -0.285595 -0.290262 -0.325595
     3 y       0.045937 -0.186042 -0.378074  0.164257  0.444062  0.380937
     3 z      -0.394741 -0.131807 -0.200308 -0.112665 -0.082257 -0.105907
     4 x      -0.014010  0.124143  0.060477 -0.204780  0.377216 -0.229188
     4 y      -0.003533  0.012119  0.042689 -0.043940  0.086974 -0.052011
     4 z       0.030364  0.058693  0.032873 -0.099604  0.184177 -0.111806
     5 x      -0.014010  0.028940  0.037855 -0.119405  0.000852  0.063747
     5 y      -0.003533 -0.007556  0.147912 -0.459699  0.013628  0.245573
     5 z       0.030364  0.012474  0.034680 -0.108593  0.001979  0.057992
     6 x      -0.168738  0.231377 -0.022406 -0.063767 -0.010796  0.023263
     6 y       0.053041 -0.025488  0.133799 -0.034068  0.038975 -0.004231
     6 z       0.198148 -0.144146  0.154224  0.000371  0.054454 -0.032717
     7 x      -0.127419  0.137240  0.145381  0.033123  0.064664  0.018898
     7 y      -0.125380 -0.045197  0.178238  0.032690 -0.024430  0.014616
     7 z       0.196450  0.053007 -0.201396 -0.045336  0.028781 -0.032538
     8 x      -0.014010  0.096133 -0.033282  0.163848  0.262971  0.165442
     8 y      -0.003533 -0.088844  0.078261 -0.188300 -0.309757 -0.193562
     8 z       0.030364  0.034019 -0.006250  0.053690  0.085294  0.053813
     9 x      -0.194638  0.234431  0.090256  0.038492 -0.035649 -0.025999
     9 y      -0.046736 -0.020863  0.159781 -0.058509 -0.045163 -0.006308
     9 z       0.174586 -0.147258 -0.079989 -0.019713  0.034981  0.030229
    10 x      -0.008400  0.044059 -0.015260  0.015418  0.007005  0.006326
    10 y      -0.004471 -0.068875  0.133170 -0.064329 -0.034406  0.001844
    10 z       0.265439  0.265317  0.148685  0.030293 -0.057458 -0.039826
    11 x      -0.075618  0.133433 -0.072243 -0.015353  0.066008 -0.013426
    11 y       0.074173 -0.046157  0.123352  0.020464 -0.024091  0.006463
    11 z       0.243574  0.061257  0.270241  0.059722  0.025868  0.037516
    12 x      -0.034300  0.044813  0.089703 -0.038365  0.030513 -0.009062
    12 y      -0.104247 -0.072540  0.162073 -0.027662  0.049393 -0.012384
    12 z       0.241876  0.260179 -0.088740 -0.054681 -0.035072  0.037337




--------------------------------------------------------------------------------
  Vibrational properties (for cluster):  Temperature  =       0.000 K
--------------------------------------------------------------------------------
  Zero point energy            =        0.704232 eV
--------------------------------------------------------------------------------

  Phonon density of states : 

--------------------------------------------------------------------------------
 Frequency (cm-1) Density of States                                             
--------------------------------------------------------------------------------
    0.00000 |************************************************************  0.118
   14.16947 |                                                              0.000
   28.33895 |                                                              0.000
   42.50842 |                                                              0.000
   56.67789 |                                                              0.000
   70.84737 |                                                              0.000
   85.01684 |                                                              0.000
   99.18632 |                                                              0.000
  113.35579 |************************************************************  0.118
  127.52526 |*********************************************                 0.088
  141.69474 |                                                              0.000
  155.86421 |                                                              0.000
  170.03368 |***************                                               0.029
  184.20316 |                                                              0.000
  198.37263 |                                                              0.000
  212.54211 |***************                                               0.029
  226.71158 |                                                              0.000
  240.88105 |******************************                                0.059
  255.05053 |                                                              0.000
  269.22000 |***************                                               0.029
  283.38947 |***************                                               0.029
  297.55895 |                                                              0.000
  311.72842 |                                                              0.000
  325.89790 |                                                              0.000
  340.06737 |******************************                                0.059
  354.23684 |******************************                                0.059
  368.40632 |                                                              0.000
  382.57579 |                                                              0.000
  396.74526 |***************                                               0.029
  410.91474 |                                                              0.000
  425.08421 |                                                              0.000
  439.25369 |******************************                                0.059
  453.42316 |                                                              0.000
  467.59263 |***************                                               0.029
  481.76211 |*********************************************                 0.088
  495.93158 |                                                              0.000
  510.10105 |                                                              0.000
  524.27053 |                                                              0.000
  538.44000 |                                                              0.000
  552.60948 |                                                              0.000
  566.77895 |                                                              0.000
  580.94842 |                                                              0.000
  595.11790 |***************                                               0.029
  609.28737 |                                                              0.000
  623.45684 |******************************                                0.059
  637.62632 |                                                              0.000
  651.79579 |                                                              0.000
  665.96527 |                                                              0.000
  680.13474 |                                                              0.000
  694.30421 |                                                              0.000
  708.47369 |                                                              0.000
  722.64316 |                                                              0.000
  736.81263 |                                                              0.000
  750.98211 |                                                              0.000
  765.15158 |                                                              0.000
  779.32106 |                                                              0.000
  793.49053 |******************************                                0.059
  807.66000 |                                                              0.000
  821.82948 |                                                              0.000
  835.99895 |                                                              0.000
  850.16842 |                                                              0.000
  864.33790 |                                                              0.000
  878.50737 |                                                              0.000
  892.67684 |***************                                               0.029
--------------------------------------------------------------------------------



  Time to end of optimisation =       0.0227 seconds


  Peak dynamic memory used =       0.66 MB 


  Timing analysis for GULP :

--------------------------------------------------------------------------------
  Task / Subroutine                                          Time (Seconds)
--------------------------------------------------------------------------------
  Calculation of real space energy and derivatives                0.0097
  Calculation of phonons                                          0.0016
  Calculation and manipulation of Hessian matrix                  0.0060
  Global summation overhead                                       0.0002
--------------------------------------------------------------------------------
  Total CPU time                                                  0.0227
--------------------------------------------------------------------------------


  Job Finished at 14:40.11 25th May        2022                               

