------------------------------------------------------------
          Invoking FHI-aims ...

          When using FHI-aims, please cite the following reference:

            Volker Blum, Ralf Gehrke, Felix Hanke, Paula Havu,
            Ville Havu, Xinguo Ren, Karsten Reuter, and Matthias Scheffler,
            'Ab Initio Molecular Simulations with Numeric Atom-Centered Orbitals',
            Computer Physics Communications 180, 2175-2196 (2009)

          In addition, many other developments in FHI-aims are likely important for
          your particular application. A partial list of references is given at the end of
          this file. Thank you for giving credit to the authors of these developments.

          For any questions about FHI-aims, please visit our slack channel at

            https://fhi-aims.slack.com

          and our main development and support site at

            https://aims-git.rz-berlin.mpg.de .

          The latter site, in particular, has a wiki to collect information, as well
          as an issue tracker to log discussions, suggest improvements, and report issues
          or bugs. https://aims-git.rz-berlin.mpg.de is also the main development site
          of the project and all new and updated code versions can be obtained there.
          Please send an email to aims-coordinators@fhi-berlin.mpg.de and we will add
          you to these sites. They are for you and everyone is welcome there.

------------------------------------------------------------



  Date     :  20220517, Time     :  120233.605
  Time zero on CPU 1             :   0.392450000000000E-01  s.
  Internal wall clock time zero  :           422020953.605  s.

  FHI-aims created a unique identifier for this run for later identification
  aims_uuid : DD59BA45-2B40-4CB7-ABE6-44D5A47D335F

  Build configuration of the current instance of FHI-aims
  -------------------------------------------------------
  FHI-aims version      : 210914
  Commit number         : GITDIR-NOTFOUND
  CMake host system     : Linux-3.10.0-693.17.1.el7.x86_64
  CMake version         : 3.21.1
  Fortran compiler      : /shared/ucl/apps/intel/2018.Update3/impi/2018.3.222/intel64/bin/mpiifort (Intel) version 18.0.3.20180410
  Fortran compiler flags: -O3 -ip -fp-model precise
  C compiler            : /shared/ucl/apps/intel/2018.Update3/compilers_and_libraries_2018.3.222/linux/bin/intel64/icc (Intel) version 18.0.3.20180410
  C compiler flags      : -O3 -ip -fp-model precise -std=gnu99
  ELPA2 kernel          : AVX2
  Using MPI
  Using ScaLAPACK
  Using LibXC
  Using i-PI
  Using RLSY
  Linking against: /shared/ucl/apps/intel/2019.Update5/compilers_and_libraries_2019.5.281/linux/mkl/lib/intel64/libmkl_intel_lp64.so
                   /shared/ucl/apps/intel/2019.Update5/compilers_and_libraries_2019.5.281/linux/mkl/lib/intel64/libmkl_sequential.so
                   /shared/ucl/apps/intel/2019.Update5/compilers_and_libraries_2019.5.281/linux/mkl/lib/intel64/libmkl_core.so
                   /shared/ucl/apps/intel/2019.Update5/compilers_and_libraries_2019.5.281/linux/mkl/lib/intel64/libmkl_blacs_intelmpi_lp64.so
                   /shared/ucl/apps/intel/2019.Update5/compilers_and_libraries_2019.5.281/linux/mkl/lib/intel64/libmkl_scalapack_lp64.so

  Using       24 parallel tasks.
  Task        0 on host node-k98e-003 reporting.
  Task        1 on host node-k98e-003 reporting.
  Task        2 on host node-k98e-003 reporting.
  Task        3 on host node-k98e-003 reporting.
  Task        4 on host node-k98e-003 reporting.
  Task        5 on host node-k98e-003 reporting.
  Task        6 on host node-k98e-003 reporting.
  Task        7 on host node-k98e-003 reporting.
  Task        8 on host node-k98e-003 reporting.
  Task        9 on host node-k98e-003 reporting.
  Task       10 on host node-k98e-003 reporting.
  Task       11 on host node-k98e-003 reporting.
  Task       12 on host node-k98e-003 reporting.
  Task       13 on host node-k98e-003 reporting.
  Task       14 on host node-k98e-003 reporting.
  Task       15 on host node-k98e-003 reporting.
  Task       16 on host node-k98e-003 reporting.
  Task       17 on host node-k98e-003 reporting.
  Task       18 on host node-k98e-003 reporting.
  Task       19 on host node-k98e-003 reporting.
  Task       20 on host node-k98e-003 reporting.
  Task       21 on host node-k98e-003 reporting.
  Task       22 on host node-k98e-003 reporting.
  Task       23 on host node-k98e-003 reporting.

  Performing system and environment tests:
  | Environment variable OMP_NUM_THREADS correctly set to 1.
  | Checking for ScaLAPACK...
  | Testing pdtran()...
  | All pdtran() tests passed.

  Obtaining array dimensions for all initial allocations:
  
  -----------------------------------------------------------------------
  Parsing control.in (first pass over file, find array dimensions only).
  The contents of control.in will be repeated verbatim below
  unless switched off by setting 'verbatim_writeout .false.' .
  in the first line of control.in .
  -----------------------------------------------------------------------
  
  #########################################################################################  Physical model
  #########################################################################################
  xc                 pbesol
  spin               none
  relativistic       atomic_zora scalar
  charge             0.0
  #  SCF convergence
  occupation_type    gaussian 0.01
  mixer              pulay
  n_max_pulay        10
  charge_mix_param   0.5
  sc_accuracy_rho    1E-5
  sc_accuracy_eev    1E-3
  sc_accuracy_etot   1E-6
  sc_accuracy_forces 1E-4
  sc_iter_limit      1500
  #  Relaxation
  #relax_geometry   bfgs 1.e-3
  
  ################################################################################
  #
  #  FHI-aims code project
  #  VB, Fritz-Haber Institut, 2009
  #
  #  Suggested "light" defaults for Al atom (to be pasted into control.in file)
  #  Be sure to double-check any results obtained with these settings for post-processing,
  #  e.g., with the "tight" defaults and larger basis sets.
  #
  ################################################################################
    species        Al
  #     global species definitions
      nucleus             13
      mass                26.9815386
  #
      l_hartree           4
  #
      cut_pot             3.5          1.5  1.0
      basis_dep_cutoff    1e-4
  #
      radial_base         41 5.0
      radial_multiplier   1
      angular_grids       specified
        division   0.6594  110
        division   0.8170  194
        division   0.9059  302
  #      division   1.0363  434
  #      division   1.1443  590
  #      division   1.2621  770
  #      division   2.8177  974
  #      outer_grid   974
        outer_grid   302
  ################################################################################
  #
  #  Definition of "minimal" basis
  #
  ################################################################################
  #     valence basis states
      valence      3  s   2.
      valence      3  p   1.
  #     ion occupancy
      ion_occ      3  s   1.
      ion_occ      2  p   6.
  ################################################################################
  #
  #  Suggested additional basis functions. For production calculations,
  #  uncomment them one after another (the most important basis functions are
  #  listed first).
  #
  #  Constructed for dimers: 2.0 A, 2.5 A, 3.0 A, 3.75 A, 4.5 A
  #
  ################################################################################
  #  "First tier" - improvements: -199.47 meV to -10.63 meV
       ionic 3 d auto
       ionic 3 p auto
  #     hydro 4 f 4.7
       ionic 3 s auto
  #  "Second tier" - improvements: -5.35 meV to -1.57 meV
  #     hydro 5 g 7
  #     hydro 3 d 6
  #     hydro 2 s 11.6
  #     hydro 2 p 0.9
  #  "Third tier" - improvements: -0.63 meV to -0.20 meV
  #     hydro 5 f 7.6
  #     hydro 4 p 7.2
  #     hydro 4 s 3.7
  #     hydro 4 d 7.6
  #  "Fourth tier" - improvements: -0.17 meV to -0.08 meV
  #     hydro 4 d 13.6
  #     hydro 5 g 11.2
  #     hydro 4 d 0.9
  #     hydro 1 s 0.4
  #     hydro 4 p 0.1
  #     hydro 5 f 9.8
  #  Further basis functions that fell out of the optimization - noise level...
  #     hydro 4 p 5
  
  ################################################################################
  #
  #  FHI-aims code project
  #  VB, Fritz-Haber Institut, 2009
  #
  #  Suggested "light" defaults for F atom (to be pasted into control.in file)
  #  Be sure to double-check any results obtained with these settings for post-processing,
  #  e.g., with the "tight" defaults and larger basis sets.
  #
  ################################################################################
    species        F
  #     global species definitions
      nucleus             9
      mass                18.9984032
  #
      l_hartree           4
  #
      cut_pot             3.5  1.5  1.0
      basis_dep_cutoff    1e-4
  #
      radial_base         37 5.0
      radial_multiplier   1
      angular_grids specified
        division   0.4014  110
        division   0.5291  194
        division   0.6019  302
  #      division   0.6814  434
  #      division   0.7989  590
  #      division   0.8965  770
  #      division   1.3427  974
  #      outer_grid   974
        outer_grid   302
  ################################################################################
  #
  #  Definition of "minimal" basis
  #
  ################################################################################
  #     valence basis states
      valence      2  s   2.
      valence      2  p   5.
  #     ion occupancy
      ion_occ      2  s   1.
      ion_occ      2  p   4.
  ################################################################################
  #
  #  Suggested additional basis functions. For production calculations,
  #  uncomment them one after another (the most important basis functions are
  #  listed first).
  #
  #  Constructed for dimers: 1.2 A, 1.418 A, 1.75 A, 2.25 A, 3.25 A
  #
  ################################################################################
  #  "First tier" - improvements: -149.44 meV to -45.88 meV
       hydro 2 p 1.7
       hydro 3 d 7.4
       hydro 3 s 6.8
  #  "Second tier" - improvements: -12.96 meV to -1.56 meV
  #     hydro 4 f 11.2
  #     ionic 2 p auto
  #     hydro 1 s 0.75
  #     hydro 4 d 8.8
  #     hydro 5 g 16.8
  #  "Third tier" - improvements: -0.58 meV to -0.05 meV
  #     hydro 3 p 6.2
  #     hydro 3 s 3.2
  #     hydro 4 f 9.6
  #     hydro 3 s 19.6
  #     hydro 4 d 8.6
  #     hydro 5 g 14.4
  # Further basis functions: -0.05 meV and below
  #     hydro 3 p 4.2
  
  -----------------------------------------------------------------------
  Completed first pass over input file control.in .
  -----------------------------------------------------------------------
  
  
  -----------------------------------------------------------------------
  Parsing geometry.in (first pass over file, find array dimensions only).
  The contents of geometry.in will be repeated verbatim below
  unless switched off by setting 'verbatim_writeout .false.' .
  in the first line of geometry.in .
  -----------------------------------------------------------------------
  
  atom -0.078091213 1.646501172 2.155473820 Al
  atom 2.530859896 2.618815425 1.772686375 Al
  atom 1.359999884 2.657387784 -0.639671654 Al
  atom 0.993227978 3.122699336 2.810746463 F
  atom -1.578305883 2.688440722 2.256944986 F
  atom -0.509662271 -0.068452866 2.611778630 F
  atom 1.824652553 0.878399793 1.987875865 F
  atom 2.949293745 1.826669653 -0.054729416 F
  atom 1.074048209 2.995737533 -2.394051012 F
  atom 1.779306294 4.024020587 0.612429667 F
  atom 4.116322168 3.150500177 2.452431780 F
  atom -0.016346191 1.822562010 0.234180693 F
  
  -----------------------------------------------------------------------
  Completed first pass over input file geometry.in .
  -----------------------------------------------------------------------
  

  Basic array size parameters:
  | Number of species                 :        2
  | Number of atoms                   :       12
  | Max. basis fn. angular momentum   :        2
  | Max. atomic/ionic basis occupied n:        3
  | Max. number of basis fn. types    :        3
  | Max. radial fns per species/type  :        5
  | Max. logarithmic grid size        :     1340
  | Max. radial integration grid size :       41
  | Max. angular integration grid size:      302
  | Max. angular grid division number :        8
  | Radial grid for Hartree potential :     1340
  | Number of spin channels           :        1

------------------------------------------------------------
          Reading file control.in.
------------------------------------------------------------
  XC: Using PBEsol gradient-corrected functionals.
  Spin treatment: No spin polarisation.
  Scalar relativistic treatment of kinetic energy: on-site free-atom approximation to ZORA.
  Charge =   0.000000E+00: Neutral system requested explicitly.
  Occupation type: Gaussian broadening, width =   0.100000E-01 eV.
  Using pulay charge density mixing.
  Pulay mixing - number of memorized iterations:   10
  Charge density mixing - mixing parameter:     0.5000
  Convergence accuracy of self-consistent charge density:  0.1000E-04
  Convergence accuracy of sum of eigenvalues:  0.1000E-02
  Convergence accuracy of total energy:  0.1000E-05
  Convergence accuracy of forces:  0.1000E-03
  Maximum number of s.-c. iterations  :  1500
 
  Reading configuration options for species Al                  .
  | Found nuclear charge :  13.0000
  | Found atomic mass :    26.9815386000000      amu
  | Found l_max for Hartree potential  :   4
  | Found cutoff potl. onset [A], width [A], scale factor :    3.50000    1.50000    1.00000
  | Threshold for basis-dependent cutoff potential is   0.100000E-03
  | Found data for basic radial integration grid :    41 points, outermost radius =    5.000 A
  | Found multiplier for basic radial grid :   1
  | Found angular grid specification: user-specified.
  | Specified grid contains     4 separate shells.
  | Check grid settings after all constraints further below.
  | Found free-atom valence shell :  3 s   2.000
  | Found free-atom valence shell :  3 p   1.000
  | Found free-ion valence shell :  3 s   1.000
  | Found free-ion valence shell :  2 p   6.000
  | Found ionic basis function :  3 d , default cutoff radius.
  | Found ionic basis function :  3 p , default cutoff radius.
  | Found ionic basis function :  3 s , default cutoff radius.
  Species Al                  : Missing cutoff potential type.
  Defaulting to exp(1/x)/(1-x)^2 type cutoff potential.
  Species Al: No 'logarithmic' tag. Using default grid for free atom:
  | Default logarithmic grid data [bohr] : 0.1000E-03 0.1000E+03 0.1012E+01
  | Will include ionic basis functions of  2.0-fold positive Al                   ion.
  Species Al: On-site basis accuracy parameter (for Gram-Schmidt orthonormalisation) not specified.
  Using default value basis_acc =  0.1000000E-03.
  Species Al                  : Using default innermost maximum threshold i_radial=  2 for radial functions.
  Species Al                  : Default cutoff onset for free atom density etc. : 0.35000000E+01 AA.
  Species Al                  : Basic radial grid will be enhanced according to radial_multiplier =   1, to contain    41 grid points.
 
  Reading configuration options for species F                   .
  | Found nuclear charge :   9.0000
  | Found atomic mass :    18.9984032000000      amu
  | Found l_max for Hartree potential  :   4
  | Found cutoff potl. onset [A], width [A], scale factor :    3.50000    1.50000    1.00000
  | Threshold for basis-dependent cutoff potential is   0.100000E-03
  | Found data for basic radial integration grid :    37 points, outermost radius =    5.000 A
  | Found multiplier for basic radial grid :   1
  | Found angular grid specification: user-specified.
  | Specified grid contains     4 separate shells.
  | Check grid settings after all constraints further below.
  | Found free-atom valence shell :  2 s   2.000
  | Found free-atom valence shell :  2 p   5.000
  | Found free-ion valence shell :  2 s   1.000
  | Found free-ion valence shell :  2 p   4.000
  | Found hydrogenic basis function :  2 p   1.700
  | Found hydrogenic basis function :  3 d   7.400
  | Found hydrogenic basis function :  3 s   6.800
  Species F                   : Missing cutoff potential type.
  Defaulting to exp(1/x)/(1-x)^2 type cutoff potential.
  Species F : No 'logarithmic' tag. Using default grid for free atom:
  | Default logarithmic grid data [bohr] : 0.1000E-03 0.1000E+03 0.1012E+01
  Species F : On-site basis accuracy parameter (for Gram-Schmidt orthonormalisation) not specified.
  Using default value basis_acc =  0.1000000E-03.
  Species F                   : Using default innermost maximum threshold i_radial=  2 for radial functions.
  Species F                   : Default cutoff onset for free atom density etc. : 0.35000000E+01 AA.
  Species F                   : Basic radial grid will be enhanced according to radial_multiplier =   1, to contain    37 grid points.
 
  Finished reading input file 'control.in'.
 
------------------------------------------------------------


------------------------------------------------------------
          Reading geometry description geometry.in.
------------------------------------------------------------
  | The smallest distance between any two atoms is         1.80511305 AA.
  | The first atom of this pair is atom number                      2 .
  | The second atom of this pair is atom number                    11 .
  Input structure read successfully.
  The structure contains       12 atoms,  and a total of        120.000 electrons.

  Input geometry:
  | No unit cell requested.
  | Atomic structure:
  |       Atom                x [A]            y [A]            z [A]
  |    1: Species Al           -0.07809121        1.64650117        2.15547382
  |    2: Species Al            2.53085990        2.61881543        1.77268637
  |    3: Species Al            1.35999988        2.65738778       -0.63967165
  |    4: Species F             0.99322798        3.12269934        2.81074646
  |    5: Species F            -1.57830588        2.68844072        2.25694499
  |    6: Species F            -0.50966227       -0.06845287        2.61177863
  |    7: Species F             1.82465255        0.87839979        1.98787586
  |    8: Species F             2.94929374        1.82666965       -0.05472942
  |    9: Species F             1.07404821        2.99573753       -2.39405101
  |   10: Species F             1.77930629        4.02402059        0.61242967
  |   11: Species F             4.11632217        3.15050018        2.45243178
  |   12: Species F            -0.01634619        1.82256201        0.23418069

 
  Finished reading input file 'control.in'.
 

------------------------------------------------------------
          Reading geometry description geometry.in.
------------------------------------------------------------
 
  Consistency checks for stacksize environment parameter are next.
 
  | Maximum stacksize for task 0: unlimited
  | Maximum stacksize for task 1: unlimited
  | Maximum stacksize for task 2: unlimited
  | Maximum stacksize for task 3: unlimited
  | Maximum stacksize for task 4: unlimited
  | Maximum stacksize for task 5: unlimited
  | Maximum stacksize for task 6: unlimited
  | Maximum stacksize for task 7: unlimited
  | Maximum stacksize for task 8: unlimited
  | Maximum stacksize for task 9: unlimited
  | Maximum stacksize for task 10: unlimited
  | Maximum stacksize for task 11: unlimited
  | Maximum stacksize for task 12: unlimited
  | Maximum stacksize for task 13: unlimited
  | Maximum stacksize for task 14: unlimited
  | Maximum stacksize for task 15: unlimited
  | Maximum stacksize for task 16: unlimited
  | Maximum stacksize for task 17: unlimited
  | Maximum stacksize for task 18: unlimited
  | Maximum stacksize for task 19: unlimited
  | Maximum stacksize for task 20: unlimited
  | Maximum stacksize for task 21: unlimited
  | Maximum stacksize for task 22: unlimited
  | Maximum stacksize for task 23: unlimited
  | Current stacksize for task 0: unlimited
  | Current stacksize for task 1: unlimited
  | Current stacksize for task 2: unlimited
  | Current stacksize for task 3: unlimited
  | Current stacksize for task 4: unlimited
  | Current stacksize for task 5: unlimited
  | Current stacksize for task 6: unlimited
  | Current stacksize for task 7: unlimited
  | Current stacksize for task 8: unlimited
  | Current stacksize for task 9: unlimited
  | Current stacksize for task 10: unlimited
  | Current stacksize for task 11: unlimited
  | Current stacksize for task 12: unlimited
  | Current stacksize for task 13: unlimited
  | Current stacksize for task 14: unlimited
  | Current stacksize for task 15: unlimited
  | Current stacksize for task 16: unlimited
  | Current stacksize for task 17: unlimited
  | Current stacksize for task 18: unlimited
  | Current stacksize for task 19: unlimited
  | Current stacksize for task 20: unlimited
  | Current stacksize for task 21: unlimited
  | Current stacksize for task 22: unlimited
  | Current stacksize for task 23: unlimited
 
  Consistency checks for the contents of control.in are next.
 
  MPI_IN_PLACE appears to work with this MPI implementation.
  | Keeping use_mpi_in_place .true. (see manual).
  Target number of points in a grid batch is not set. Defaulting to  100
  Method for grid partitioning is not set. Defaulting to parallel hash+maxmin partitioning.
  Batch size limit is not set. Defaulting to    200
  By default, will store active basis functions for each batch.
  If in need of memory, prune_basis_once .false. can be used to disable this option.
  communication_type for Hartree potential was not specified.
  Defaulting to calc_hartree .
  Pulay mixer: Number of initial linear mixing iterations not set.
  Defaulting to    0 iterations.
  Work space size for distributed Hartree potential not set.
  Defaulting to   0.200000E+03 MB.
  Algorithm-dependent basis array size parameters:
  | n_max_pulay                         :       10
  Presetting      1001 iterations before the initial mixing cycle
  is restarted anyway using the sc_init_iter criterion / keyword.
  Presetting a factor      1.000 between actual scf density residual
  and density convergence criterion sc_accuracy_rho below which sc_init_iter
  takes no effect.
  Geometry relaxation not requested: no relaxation will be performed.
  Forces evaluation will include force correction term due to incomplete self-consistency (default).
  Handling of forces: Unphysical translation and rotation will be removed from forces.
  No accuracy limit for integral partition fn. given. Defaulting to  0.1000E-14.
  No threshold value for u(r) in integrations given. Defaulting to  0.1000E-05.
  No accuracy for occupation numbers given. Defaulting to  0.1000E-12.
  No threshold value for occupation numbers given. Defaulting to  0.0000E+00.
  No accuracy for fermi level given. Defaulting to  0.1000E-19.
  Maximum # of iterations to find E_F not set. Defaulting to  200.
  Preferred method for the eigenvalue solver ('KS_method') not specified in 'control.in'.
  Calling BLACS routine to test compilation state
  Since ScaLAPACK support is enabled, defaulting to ELPA (via ELSI).
  Will not use alltoall communication since running on < 1024 CPUs.
  Threshold for basis singularities not set.
  Default threshold for basis singularities:  0.1000E-04
  partition_type (choice of integration weights) for integrals was not specified.
  | Using a version of the partition function of Stratmann and coworkers ('stratmann_sparse').
  | At each grid point, the set of atoms used to build the partition table is smoothly restricted to
  | only those atoms whose free-atom density would be non-zero at that grid point.
  Partitioning for Hartree potential was not defined. Using partition_type for integrals.
  | Adjusted default value of keyword multip_moments_threshold to:       0.10000000E-11
  | This value may affect high angular momentum components of the Hartree potential in periodic systems.
  No q(lm)/r^(l+1) cutoff set for long-range Hartree potential.
  | Using default value of  0.100000E-09 .
  | Verify using the multipole_threshold keyword.
  Defaulting to new monopole extrapolation.
  Density update method: automatic selection selected.
  Charge integration errors on the 3D integration grid will be compensated
  by explicit normalization and distribution of residual charges.
  Use the "compensate_multipole_errors" flag to change this behaviour.
  Set 'collect_eigenvectors' to be '.true.' for use_density_matrix .false.
 
  Consistency checks for the contents of geometry.in are next.
 
  Number of empty states per atom not set in control.in - providing a guess from actual geometry.
  | Total number of empty states used during s.c.f. cycle:       36
  If you use a very high smearing, use empty_states (per atom!) in control.in to increase this value.

  Structure-dependent array size parameters: 
  | Maximum number of distinct radial functions  :       14
  | Maximum number of basis functions            :      180
  | Number of Kohn-Sham states (occupied + empty):       96
------------------------------------------------------------

------------------------------------------------------------
          Preparing all fixed parts of the calculation.
------------------------------------------------------------
  Determining machine precision:
    2.225073858507201E-308
  Setting up grids for atomic and cluster calculations.

  Creating wave function, potential, and density for free atoms.

  Species: Al

  List of occupied orbitals and eigenvalues:
    n    l              occ      energy [Ha]    energy [eV]
    1    0           2.0000       -55.621123     -1513.5278
    2    0           2.0000        -3.957030      -107.6763
    3    0           2.0000        -0.272233        -7.4078
    2    1           6.0000        -2.540949       -69.1427
    3    1           1.0000        -0.083300        -2.2667


  Species: F

  List of occupied orbitals and eigenvalues:
    n    l              occ      energy [Ha]    energy [eV]
    1    0           2.0000       -24.399611      -663.9472
    2    0           2.0000        -1.098702       -29.8972
    2    1           5.0000        -0.408210       -11.1080


  Adding cutoff potential to free-atom effective potential.
  Creating fixed part of basis set: Ionic, confined, hydrogenic.
 
  Al                   ion:

  List of free ionic orbitals and eigenvalues:
    n    l      energy [Ha]    energy [eV]
    1    0       -56.418846     -1535.2349
    2    0        -4.732717      -128.7838
    3    0        -0.872690       -23.7471
    2    1        -3.317230       -90.2664


  List of ionic basis orbitals and eigenvalues:
    n    l      energy [Ha]    energy [eV]    outer radius [A]
    3    2        -0.346815        -9.4373       4.594041
    3    1        -0.631870       -17.1940       4.538221
    3    0        -0.872657       -23.7462       4.538221

 
  F                    hydrogenic:
 
  List of hydrogenic basis orbitals: 
    n    l      effective z      eigenvalue [eV]  inner max. [A]     outer max. [A]     outer radius [A]   
    2    1         1.700000        -9.7616           1.243167           1.243167           4.598524
    3    2         7.400000       -82.7828           0.642437           0.642437           3.305741
    3    0         6.800000       -69.9026           0.057798           1.022307           3.781556
 
  Creating atomic-like basis functions for current effective potential.

  Species Al                  :

  List of atomic basis orbitals and eigenvalues:
    n    l      energy [Ha]    energy [eV]    outer radius [A]
    1    0       -55.621123     -1513.5278       0.850197
    2    0        -3.957030      -107.6763       3.144911
    3    0        -0.272233        -7.4078       4.594041
    2    1        -2.540949       -69.1427       3.731966
    3    1        -0.083300        -2.2667       4.594041


  Species F                   :

  List of atomic basis orbitals and eigenvalues:
    n    l      energy [Ha]    energy [eV]    outer radius [A]
    1    0       -24.399611      -663.9472       1.258458
    2    0        -1.098702       -29.8972       4.325857
    2    1        -0.408210       -11.1080       4.487453

  Assembling full basis from fixed parts.
  | Species Al :   atomic orbital   1 s accepted.
  | Species Al :   atomic orbital   2 s accepted.
  | Species Al :    ionic orbital   3 s accepted.
  | Species Al :   atomic orbital   3 s accepted.
  | Species Al :   atomic orbital   2 p accepted.
  | Species Al :    ionic orbital   3 p accepted.
  | Species Al :   atomic orbital   3 p accepted.
  | Species Al :    ionic orbital   3 d accepted.
  | Species F :   atomic orbital   1 s accepted.
  | Species F :    hydro orbital   3 s accepted.
  | Species F :   atomic orbital   2 s accepted.
  | Species F :   atomic orbital   2 p accepted.
  | Species F :    hydro orbital   2 p accepted.
  | Species F :    hydro orbital   3 d accepted.
 
  Basis size parameters after reduction:
  | Total number of radial functions:       14
  | Total number of basis functions :      180
 
  Per-task memory consumption for arrays in subroutine allocate_ext:
  |           4.807768MB.
  Testing on-site integration grid accuracy.
  |  Species  Function  <phi|h_atom|phi> (log., in eV)  <phi|h_atom|phi> (rad., in eV)
           1        1              -1513.5277717935              -1513.5271881332
           1        2               -107.6762691836               -107.6762662489
           1        3                 -6.9467474784                 -6.9471269649
           1        4                  5.5771951849                  5.4862107220 ***
           1        5                -69.1427313144                -69.1427312731
           1        6                 -1.5197375330                 -1.5230432022
           1        7                  6.8210948310                  6.5529872240 ***
           1        8                  4.3216540965                  4.2851170187 ***
           2        9               -663.9471986398               -663.9470363334
           2       10                 16.8514011578                 16.8512525338
           2       11                -28.4490593856                -28.4490661472
           2       12                -11.1080115307                -11.1080620173
           2       13                  7.1940182175                  7.1685154137
           2       14                 44.8544281765                 44.8543763625
 * Note: Onsite integrals marked "***" above are less accurate than
 * onsite_accuracy_threshold =    0.03000 eV. Usually, this is harmless.
 * When in doubt, tighten the "radial" and/or "radial_multiplier" flags to check.

  Preparing densities etc. for the partition functions (integrals / Hartree potential).

  Preparations completed.
  max(cpu_time)          :      0.184 s.
  Wall clock time (cpu1) :      0.184 s.
------------------------------------------------------------

------------------------------------------------------------
          Begin self-consistency loop: Initialization.

          Date     :  20220517, Time     :  120233.833
------------------------------------------------------------

  Initializing index lists of integration centers etc. from given atomic structure:
  | Number of centers in hartree potential         :        12
  | Number of centers in hartree multipole         :        12
  | Number of centers in electron density summation:        12
  | Number of centers in basis integrals           :        12
  | Number of centers in integrals                 :        12
  | Number of centers in hamiltonian               :        12
  * Using 24 tasks for Scalapack Eigenvalue solver.
  Detailed listing of tasks and assigned k-points:
  (for non-periodic systems, the "k-point" denotes an internal label only)
   Task     0 k-point     1 on node-k98e-003
   Task     1 k-point     1 on node-k98e-003
   Task     2 k-point     1 on node-k98e-003
   Task     3 k-point     1 on node-k98e-003
   Task     4 k-point     1 on node-k98e-003
   Task     5 k-point     1 on node-k98e-003
   Task     6 k-point     1 on node-k98e-003
   Task     7 k-point     1 on node-k98e-003
   Task     8 k-point     1 on node-k98e-003
   Task     9 k-point     1 on node-k98e-003
   Task    10 k-point     1 on node-k98e-003
   Task    11 k-point     1 on node-k98e-003
   Task    12 k-point     1 on node-k98e-003
   Task    13 k-point     1 on node-k98e-003
   Task    14 k-point     1 on node-k98e-003
   Task    15 k-point     1 on node-k98e-003
   Task    16 k-point     1 on node-k98e-003
   Task    17 k-point     1 on node-k98e-003
   Task    18 k-point     1 on node-k98e-003
   Task    19 k-point     1 on node-k98e-003
   Task    20 k-point     1 on node-k98e-003
   Task    21 k-point     1 on node-k98e-003
   Task    22 k-point     1 on node-k98e-003
   Task    23 k-point     1 on node-k98e-003
  Tasks:    24 split into      6 X      4 BLACS grid
  Calculating block size based on n_basis =          180  max_nprow =            6  max_npcol =            4
  ScaLAPACK block size set to:           16
  Allocating        0.012 MB for ovlp
  Allocating        0.012 MB for ham
  Allocating        0.012 MB for eigenvec
  Required Scalapack workspace - INTEGER:            1  REAL:             1
  Partitioning the integration grid into batches with parallel hashing+maxmin method.
  | Number of batches:     1017
  | Maximal batch size:     198
  | Minimal batch size:      17
  | Average batch size:      90.383
  | Standard deviation of batch sizes:      24.835

  Integration load balanced across    24 MPI tasks.
  Work distribution over tasks is as follows:
  Task     0 has       3782 integration points.
  Task     1 has       3777 integration points.
  Task     2 has       3853 integration points.
  Task     3 has       3866 integration points.
  Task     4 has       3784 integration points.
  Task     5 has       3788 integration points.
  Task     6 has       3928 integration points.
  Task     7 has       3879 integration points.
  Task     8 has       3783 integration points.
  Task     9 has       3783 integration points.
  Task    10 has       3775 integration points.
  Task    11 has       3880 integration points.
  Task    12 has       3846 integration points.
  Task    13 has       3784 integration points.
  Task    14 has       3924 integration points.
  Task    15 has       3789 integration points.
  Task    16 has       3844 integration points.
  Task    17 has       3859 integration points.
  Task    18 has       3828 integration points.
  Task    19 has       3875 integration points.
  Task    20 has       3784 integration points.
  Task    21 has       3884 integration points.
  Task    22 has       3779 integration points.
  Task    23 has       3846 integration points.
  Initializing partition tables, free-atom densities, potentials, etc. across the integration grid (initialize_grid_storage).
  | initialize_grid_storage: Actual outermost partition radius vs. multipole_radius_free
  | (-- VB: in principle, multipole_radius_free should be larger, hence this output)
  | Species        1: Confinement radius =              4.999999999999999 AA, multipole_radius_free =              5.004487022111096 AA.
  | Species        1: outer_partition_radius set to              5.004487022111096 AA .
  | Species        2: Confinement radius =              4.999999999999999 AA, multipole_radius_free =              5.009370088163274 AA.
  | Species        2: outer_partition_radius set to              5.009370088163274 AA .
  | The sparse table of interatomic distances needs          1.64 kbyte instead of         1.15 kbyte of memory.
  | Using the partition_type stratmann_smoother will reduce your memory usage.
  | Net number of integration points:    91920
  | of which are non-zero points    :    85103
  Renormalizing the initial density to the exact electron count on the 3D integration grid.
  | Initial density: Formal number of electrons (from input files) :     120.0000000000
  | Integrated number of electrons on 3D grid     :     119.9997668671
  | Charge integration error                      :      -0.0002331329
  | Normalization factor for density and gradient :       1.0000019428
  Renormalizing the free-atom superposition density to the exact electron count on the 3D integration grid.
  | Formal number of electrons (from input files) :     120.0000000000
  | Integrated number of electrons on 3D grid     :     119.9997668671
  | Charge integration error                      :      -0.0002331329
  | Normalization factor for density and gradient :       1.0000019428
  Obtaining max. number of non-zero basis functions in each batch (get_n_compute_maxes).
  | Maximal number of non-zero basis functions:      163 in task     0
  | Maximal number of non-zero basis functions:      160 in task     1
  | Maximal number of non-zero basis functions:      173 in task     2
  | Maximal number of non-zero basis functions:      165 in task     3
  | Maximal number of non-zero basis functions:      165 in task     4
  | Maximal number of non-zero basis functions:      166 in task     5
  | Maximal number of non-zero basis functions:      171 in task     6
  | Maximal number of non-zero basis functions:      171 in task     7
  | Maximal number of non-zero basis functions:      170 in task     8
  | Maximal number of non-zero basis functions:      170 in task     9
  | Maximal number of non-zero basis functions:      170 in task    10
  | Maximal number of non-zero basis functions:      169 in task    11
  | Maximal number of non-zero basis functions:      166 in task    12
  | Maximal number of non-zero basis functions:      173 in task    13
  | Maximal number of non-zero basis functions:      160 in task    14
  | Maximal number of non-zero basis functions:      166 in task    15
  | Maximal number of non-zero basis functions:      167 in task    16
  | Maximal number of non-zero basis functions:      166 in task    17
  | Maximal number of non-zero basis functions:      165 in task    18
  | Maximal number of non-zero basis functions:      164 in task    19
  | Maximal number of non-zero basis functions:      166 in task    20
  | Maximal number of non-zero basis functions:      167 in task    21
  | Maximal number of non-zero basis functions:      172 in task    22
  | Maximal number of non-zero basis functions:      165 in task    23
  Selecting the method for density update.
  Loop over occupied states selected for charge density update.
  Allocating        0.132 MB for KS_eigenvector
  Integrating Hamiltonian matrix: batch-based integration.
  Time summed over all CPUs for integration: real work        0.759 s, elapsed        0.812 s
  Integrating overlap matrix.
  Time summed over all CPUs for integration: real work        0.288 s, elapsed        0.300 s
  Deallocating overlap matrix.

  Updating Kohn-Sham eigenvalues and eigenvectors using ELSI and the ELPA eigensolver.
  Overlap matrix is not singular
  | Lowest and highest eigenvalues :  0.3122E-02,  0.5740E+01
  Finished singularity check of overlap matrix
  | Time :     0.006 s
  Starting ELPA eigensolver
  Finished Cholesky decomposition
  | Time :     0.003 s
  Finished transformation to standard eigenproblem
  | Time :     0.001 s
  Finished solving standard eigenproblem
  | Time :     0.005 s
  Finished back-transformation of eigenvectors
  | Time :     0.000 s

  Obtaining occupation numbers and chemical potential using ELSI.
  | Chemical potential (Fermi level):    -7.32597061 eV
  Writing Kohn-Sham eigenvalues.

  State    Occupation    Eigenvalue [Ha]    Eigenvalue [eV]
      1       2.00000         -55.485942        -1509.84931
      2       2.00000         -55.484848        -1509.81952
      3       2.00000         -55.484010        -1509.79673
      4       2.00000         -24.366880         -663.05655
      5       2.00000         -24.356988         -662.78736
      6       2.00000         -24.356373         -662.77064
      7       2.00000         -24.353248         -662.68559
      8       2.00000         -24.351746         -662.64472
      9       2.00000         -24.341861         -662.37575
     10       2.00000         -24.341336         -662.36146
     11       2.00000         -24.339418         -662.30927
     12       2.00000         -24.339088         -662.30027
     13       2.00000          -3.951543         -107.52695
     14       2.00000          -3.950205         -107.49056
     15       2.00000          -3.949185         -107.46280
     16       2.00000          -2.544620          -69.24264
     17       2.00000          -2.543597          -69.21479
     18       2.00000          -2.542985          -69.19815
     19       2.00000          -2.542565          -69.18672
     20       2.00000          -2.541825          -69.16657
     21       2.00000          -2.541644          -69.16165
     22       2.00000          -2.541385          -69.15460
     23       2.00000          -2.540846          -69.13994
     24       2.00000          -2.540099          -69.11962
     25       2.00000          -1.192660          -32.45394
     26       2.00000          -1.182987          -32.19072
     27       2.00000          -1.175093          -31.97590
     28       2.00000          -1.170957          -31.86335
     29       2.00000          -1.161484          -31.60558
     30       2.00000          -1.150797          -31.31478
     31       2.00000          -1.149995          -31.29297
     32       2.00000          -1.148447          -31.25084
     33       2.00000          -1.144875          -31.15363
     34       2.00000          -0.562312          -15.30128
     35       2.00000          -0.558904          -15.20855
     36       2.00000          -0.544278          -14.81057
     37       2.00000          -0.522673          -14.22267
     38       2.00000          -0.520446          -14.16204
     39       2.00000          -0.511090          -13.90747
     40       2.00000          -0.507899          -13.82064
     41       2.00000          -0.503609          -13.70390
     42       2.00000          -0.498263          -13.55844
     43       2.00000          -0.495341          -13.47892
     44       2.00000          -0.490116          -13.33673
     45       2.00000          -0.488143          -13.28305
     46       2.00000          -0.479793          -13.05583
     47       2.00000          -0.474432          -12.90994
     48       2.00000          -0.472547          -12.85866
     49       2.00000          -0.466743          -12.70071
     50       2.00000          -0.465483          -12.66645
     51       2.00000          -0.460708          -12.53649
     52       2.00000          -0.453923          -12.35188
     53       2.00000          -0.453046          -12.32801
     54       2.00000          -0.452585          -12.31548
     55       2.00000          -0.451927          -12.29755
     56       2.00000          -0.451224          -12.27843
     57       2.00000          -0.450130          -12.24866
     58       2.00000          -0.445292          -12.11701
     59       2.00000          -0.443375          -12.06485
     60       2.00000          -0.439509          -11.95965
     61       0.00000          -0.142820           -3.88634
     62       0.00000          -0.088517           -2.40867
     63       0.00000          -0.070230           -1.91106
     64       0.00000          -0.034310           -0.93362
     65       0.00000          -0.020924           -0.56938
     66       0.00000           0.001667            0.04537
     67       0.00000           0.024162            0.65747
     68       0.00000           0.031767            0.86441
     69       0.00000           0.050274            1.36803
     70       0.00000           0.075884            2.06492
     71       0.00000           0.078203            2.12800
     72       0.00000           0.116636            3.17383
     73       0.00000           0.149162            4.05891
     74       0.00000           0.161949            4.40686
     75       0.00000           0.170473            4.63880
     76       0.00000           0.179025            4.87151
     77       0.00000           0.194546            5.29387
     78       0.00000           0.198012            5.38817
     79       0.00000           0.210460            5.72691
     80       0.00000           0.216805            5.89958
     81       0.00000           0.225375            6.13276
     82       0.00000           0.227085            6.17929
     83       0.00000           0.236728            6.44170
     84       0.00000           0.241805            6.57985
     85       0.00000           0.258897            7.04494
     86       0.00000           0.266829            7.26078
     87       0.00000           0.270278            7.35463
     88       0.00000           0.276728            7.53015
     89       0.00000           0.280694            7.63808
     90       0.00000           0.294446            8.01227
     91       0.00000           0.297860            8.10517
     92       0.00000           0.333142            9.06526
     93       0.00000           0.341622            9.29600
     94       0.00000           0.357945            9.74017
     95       0.00000           0.372406           10.13368
     96       0.00000           0.385519           10.49051

  Highest occupied state (VBM) at    -11.95965159 eV
  | Occupation number:      2.00000000

  Lowest unoccupied state (CBM) at    -3.88633526 eV
  | Occupation number:      0.00000000

  Overall HOMO-LUMO gap:      8.07331633 eV.
  Calculating total energy contributions from superposition of free atom densities.

  Total energy components:
  | Sum of eigenvalues            :        -887.74664947 Ha      -24156.81541732 eV
  | XC energy correction          :        -144.40143221 Ha       -3929.36289427 eV
  | XC potential correction       :         188.02272032 Ha        5116.35853750 eV
  | Free-atom electrostatic energy:        -781.23093013 Ha      -21258.37522308 eV
  | Hartree energy correction     :           0.00000000 Ha           0.00000000 eV
  | Entropy correction            :           0.00000000 Ha           0.00000000 eV
  | ---------------------------
  | Total energy                  :       -1625.35629149 Ha      -44228.19499717 eV
  | Total energy, T -> 0          :       -1625.35629149 Ha      -44228.19499717 eV  <-- do not rely on this value for anything but (periodic) metals
  | Electronic free energy        :       -1625.35629149 Ha      -44228.19499717 eV

  Derived energy quantities:
  | Kinetic energy                :        1627.75247461 Ha       44293.39845735 eV
  | Electrostatic energy          :       -3108.70733388 Ha      -84592.23056025 eV
  | Energy correction for multipole
  | error in Hartree potential    :           0.00000000 Ha           0.00000000 eV
  | Sum of eigenvalues per atom                           :       -2013.06795144 eV
  | Total energy (T->0) per atom                          :       -3685.68291643 eV  <-- do not rely on this value for anything but (periodic) metals
  | Electronic free energy per atom                       :       -3685.68291643 eV
  Initialize hartree_potential_storage
  Max. number of atoms included in rho_multipole:           12

  End scf initialization - timings             :  max(cpu_time)    wall_clock(cpu1)
  | Time for scf. initialization                :        0.133 s           0.133 s
  | Boundary condition initialization           :        0.000 s           0.000 s
  | Integration                                 :        0.052 s           0.051 s
  | Solution of K.-S. eqns.                     :        0.017 s           0.017 s
  | Grid partitioning                           :        0.040 s           0.040 s
  | Preloading free-atom quantities on grid     :        0.016 s           0.017 s
  | Free-atom superposition energy              :        0.005 s           0.005 s
  | Total energy evaluation                     :        0.000 s           0.000 s

  Partial memory accounting:
  | Current value for overall tracked memory usage:
  |   Minimum:        0.273 MB (on task 23)
  |   Maximum:        0.292 MB (on task  0)
  |   Average:        0.287 MB
  | Peak value for overall tracked memory usage:
  |   Minimum:        1.340 MB (on task  1 after allocating wave)
  |   Maximum:        1.432 MB (on task  2 after allocating wave)
  |   Average:        1.386 MB
  | Largest tracked array allocation so far:
  |   Minimum:        0.242 MB (H_times_psi on task  1)
  |   Maximum:        0.555 MB (all_coords on task 14)
  |   Average:        0.276 MB
  Note:  These values currently only include a subset of arrays which are explicitly tracked.
  The "true" memory usage will be greater.
------------------------------------------------------------
  Evaluating new KS density.
  Integration grid: deviation in total charge (<rho> - N_e) =   0.000000E+00

  Time for density update prior                :  max(cpu_time)    wall_clock(cpu1)
  | self-consistency iterative process          :        0.030 s           0.030 s

------------------------------------------------------------
          Begin self-consistency iteration #    1

  Date     :  20220517, Time     :  120233.998
------------------------------------------------------------
  Pulay mixing of updated and previous charge densities.
  Renormalizing the density to the exact electron count on the 3D integration grid.
  | Formal number of electrons (from input files) :     120.0000000000
  | Integrated number of electrons on 3D grid     :     120.0000000000
  | Charge integration error                      :       0.0000000000
  | Normalization factor for density and gradient :       1.0000000000

  Evaluating partitioned Hartree potential by multipole expansion.
  | Original multipole sum: apparent total charge =   0.233371E-14
  | Sum of charges compensated after spline to logarithmic grids =   0.880376E-04
  | Analytical far-field extrapolation by fixed multipoles:
  | Hartree multipole sum: apparent total charge =   0.328072E-14
  Summing up the Hartree potential.
  Time summed over all CPUs for potential: real work        0.383 s, elapsed        0.400 s
  | RMS charge density error from multipole expansion :   0.109066E-01

  Integrating Hamiltonian matrix: batch-based integration.
  Time summed over all CPUs for integration: real work        0.707 s, elapsed        0.740 s

  Updating Kohn-Sham eigenvalues and eigenvectors using ELSI and the ELPA eigensolver.
  Starting ELPA eigensolver
  Finished transformation to standard eigenproblem
  | Time :     0.004 s
  Finished solving standard eigenproblem
  | Time :     0.008 s
  Finished back-transformation of eigenvectors
  | Time :     0.000 s

  Obtaining occupation numbers and chemical potential using ELSI.
  | Chemical potential (Fermi level):    -7.33161618 eV
  Writing Kohn-Sham eigenvalues.

  State    Occupation    Eigenvalue [Ha]    Eigenvalue [eV]
      1       2.00000         -55.677247        -1515.05496
      2       2.00000         -55.660180        -1514.59057
      3       2.00000         -55.620279        -1513.50481
      4       2.00000         -24.253032         -659.95857
      5       2.00000         -24.231049         -659.36038
      6       2.00000         -24.215580         -658.93946
      7       2.00000         -24.202753         -658.59042
      8       2.00000         -24.185757         -658.12794
      9       2.00000         -24.091289         -655.55732
     10       2.00000         -24.075822         -655.13644
     11       2.00000         -24.038141         -654.11110
     12       2.00000         -24.033592         -653.98732
     13       2.00000          -4.115961         -112.00098
     14       2.00000          -4.098715         -111.53172
     15       2.00000          -4.059103         -110.45382
     16       2.00000          -2.708813          -73.71056
     17       2.00000          -2.708604          -73.70487
     18       2.00000          -2.708524          -73.70268
     19       2.00000          -2.692480          -73.26611
     20       2.00000          -2.691172          -73.23053
     21       2.00000          -2.690503          -73.21231
     22       2.00000          -2.653066          -72.19360
     23       2.00000          -2.652213          -72.17038
     24       2.00000          -2.649904          -72.10757
     25       2.00000          -1.172729          -31.91157
     26       2.00000          -1.155624          -31.44612
     27       2.00000          -1.134380          -30.86805
     28       2.00000          -1.129134          -30.72530
     29       2.00000          -1.105705          -30.08777
     30       2.00000          -1.036456          -28.20340
     31       2.00000          -1.021971          -27.80926
     32       2.00000          -0.989393          -26.92275
     33       2.00000          -0.983046          -26.75003
     34       2.00000          -0.560845          -15.26138
     35       2.00000          -0.550065          -14.96803
     36       2.00000          -0.524189          -14.26391
     37       2.00000          -0.498855          -13.57455
     38       2.00000          -0.491180          -13.36569
     39       2.00000          -0.479132          -13.03784
     40       2.00000          -0.477898          -13.00426
     41       2.00000          -0.473427          -12.88262
     42       2.00000          -0.457317          -12.44422
     43       2.00000          -0.451727          -12.29212
     44       2.00000          -0.435159          -11.84127
     45       2.00000          -0.424118          -11.54083
     46       2.00000          -0.416556          -11.33507
     47       2.00000          -0.410655          -11.17450
     48       2.00000          -0.400373          -10.89470
     49       2.00000          -0.389938          -10.61074
     50       2.00000          -0.382881          -10.41872
     51       2.00000          -0.365091           -9.93464
     52       2.00000          -0.346343           -9.42448
     53       2.00000          -0.345362           -9.39779
     54       2.00000          -0.332322           -9.04295
     55       2.00000          -0.331151           -9.01107
     56       2.00000          -0.329002           -8.95260
     57       2.00000          -0.303994           -8.27209
     58       2.00000          -0.301263           -8.19778
     59       2.00000          -0.291245           -7.92518
     60       2.00000          -0.282145           -7.67755
     61       0.00000          -0.162518           -4.42234
     62       0.00000          -0.101108           -2.75129
     63       0.00000          -0.066355           -1.80561
     64       0.00000          -0.063792           -1.73586
     65       0.00000          -0.053446           -1.45435
     66       0.00000          -0.019245           -0.52367
     67       0.00000           0.019537            0.53162
     68       0.00000           0.028629            0.77905
     69       0.00000           0.036233            0.98594
     70       0.00000           0.064137            1.74526
     71       0.00000           0.089752            2.44227
     72       0.00000           0.098279            2.67431
     73       0.00000           0.144806            3.94038
     74       0.00000           0.155550            4.23274
     75       0.00000           0.159931            4.35195
     76       0.00000           0.163112            4.43852
     77       0.00000           0.182533            4.96699
     78       0.00000           0.191898            5.22181
     79       0.00000           0.199916            5.44000
     80       0.00000           0.214719            5.84279
     81       0.00000           0.218095            5.93467
     82       0.00000           0.224826            6.11782
     83       0.00000           0.233158            6.34456
     84       0.00000           0.234444            6.37955
     85       0.00000           0.246496            6.70751
     86       0.00000           0.249323            6.78442
     87       0.00000           0.256481            6.97919
     88       0.00000           0.268280            7.30028
     89       0.00000           0.281312            7.65489
     90       0.00000           0.284915            7.75294
     91       0.00000           0.291070            7.92040
     92       0.00000           0.334136            9.09231
     93       0.00000           0.351221            9.55721
     94       0.00000           0.365767            9.95302
     95       0.00000           0.381418           10.37891
     96       0.00000           0.387578           10.54653

  Highest occupied state (VBM) at     -7.67754822 eV
  | Occupation number:      2.00000000

  Lowest unoccupied state (CBM) at    -4.42234448 eV
  | Occupation number:      0.00000000

  Overall HOMO-LUMO gap:      3.25520374 eV.

  Total energy components:
  | Sum of eigenvalues            :        -882.98890151 Ha      -24027.35050825 eV
  | XC energy correction          :        -145.68732445 Ha       -3964.35380249 eV
  | XC potential correction       :         189.71284108 Ha        5162.34906318 eV
  | Free-atom electrostatic energy:        -781.23093013 Ha      -21258.37522308 eV
  | Hartree energy correction     :          -4.94609723 Ha        -134.59015350 eV
  | Entropy correction            :           0.00000000 Ha           0.00000000 eV
  | ---------------------------
  | Total energy                  :       -1625.14041225 Ha      -44222.32062414 eV
  | Total energy, T -> 0          :       -1625.14041225 Ha      -44222.32062414 eV  <-- do not rely on this value for anything but (periodic) metals
  | Electronic free energy        :       -1625.14041225 Ha      -44222.32062414 eV

  Derived energy quantities:
  | Kinetic energy                :        1633.88258506 Ha       44460.20724980 eV
  | Electrostatic energy          :       -3113.33567285 Ha      -84718.17407146 eV
  | Energy correction for multipole
  | error in Hartree potential    :           0.03286551 Ha           0.89431599 eV
  | Sum of eigenvalues per atom                           :       -2002.27920902 eV
  | Total energy (T->0) per atom                          :       -3685.19338535 eV  <-- do not rely on this value for anything but (periodic) metals
  | Electronic free energy per atom                       :       -3685.19338535 eV
  Evaluating new KS density.
  Integration grid: deviation in total charge (<rho> - N_e) =   1.421085E-14

  Self-consistency convergence accuracy:
  | Change of charge density      :  0.5900E+00
  | Change of sum of eigenvalues  :  0.1295E+03 eV
  | Change of total energy        :  0.5874E+01 eV


------------------------------------------------------------
  End self-consistency iteration #     1       :  max(cpu_time)    wall_clock(cpu1)
  | Time for this iteration                     :        0.105 s           0.105 s
  | Charge density update                       :        0.028 s           0.029 s
  | Density mixing                              :        0.001 s           0.001 s
  | Hartree multipole update                    :        0.009 s           0.009 s
  | Hartree multipole summation                 :        0.019 s           0.019 s
  | Integration                                 :        0.033 s           0.034 s
  | Solution of K.-S. eqns.                     :        0.013 s           0.013 s
  | Total energy evaluation                     :        0.000 s           0.000 s

  Partial memory accounting:
  | Current value for overall tracked memory usage:
  |   Minimum:        0.273 MB (on task 23)
  |   Maximum:        0.292 MB (on task  0)
  |   Average:        0.287 MB
  | Peak value for overall tracked memory usage:
  |   Minimum:        1.340 MB (on task  1 after allocating wave)
  |   Maximum:        1.432 MB (on task  2 after allocating wave)
  |   Average:        1.386 MB
  | Largest tracked array allocation so far:
  |   Minimum:        0.725 MB (gradient_basis_wave on task  1)
  |   Maximum:        0.784 MB (gradient_basis_wave on task  2)
  |   Average:        0.757 MB
  Note:  These values currently only include a subset of arrays which are explicitly tracked.
  The "true" memory usage will be greater.
------------------------------------------------------------

------------------------------------------------------------
          Begin self-consistency iteration #    2

  Date     :  20220517, Time     :  120234.108
------------------------------------------------------------
  Pulay mixing of updated and previous charge densities.
  Renormalizing the density to the exact electron count on the 3D integration grid.
  | Formal number of electrons (from input files) :     120.0000000000
  | Integrated number of electrons on 3D grid     :     120.0000000000
  | Charge integration error                      :       0.0000000000
  | Normalization factor for density and gradient :       1.0000000000

  Evaluating partitioned Hartree potential by multipole expansion.
  | Original multipole sum: apparent total charge =   0.467419E-13
  | Sum of charges compensated after spline to logarithmic grids =   0.495058E-04
  | Analytical far-field extrapolation by fixed multipoles:
  | Hartree multipole sum: apparent total charge =   0.470493E-13
  Summing up the Hartree potential.
  Time summed over all CPUs for potential: real work        0.381 s, elapsed        0.398 s
  | RMS charge density error from multipole expansion :   0.127180E-01

  Integrating Hamiltonian matrix: batch-based integration.
  Time summed over all CPUs for integration: real work        0.706 s, elapsed        0.739 s

  Updating Kohn-Sham eigenvalues and eigenvectors using ELSI and the ELPA eigensolver.
  Starting ELPA eigensolver
  Finished transformation to standard eigenproblem
  | Time :     0.001 s
  Finished solving standard eigenproblem
  | Time :     0.003 s
  Finished back-transformation of eigenvectors
  | Time :     0.000 s

  Obtaining occupation numbers and chemical potential using ELSI.
  | Chemical potential (Fermi level):    -7.59176904 eV
  Highest occupied state (VBM) at     -8.71403570 eV
  | Occupation number:      2.00000000

  Lowest unoccupied state (CBM) at    -4.64895519 eV
  | Occupation number:      0.00000000

  Overall HOMO-LUMO gap:      4.06508051 eV.

  Checking to see if s.c.f. parameters should be adjusted.

  Total energy components:
  | Sum of eigenvalues            :        -885.86559939 Ha      -24105.62944038 eV
  | XC energy correction          :        -145.21786498 Ha       -3951.57916035 eV
  | XC potential correction       :         189.09523353 Ha        5145.54310674 eV
  | Free-atom electrostatic energy:        -781.23093013 Ha      -21258.37522308 eV
  | Hartree energy correction     :          -1.86266435 Ha         -50.68567572 eV
  | Entropy correction            :           0.00000000 Ha           0.00000000 eV
  | ---------------------------
  | Total energy                  :       -1625.08182532 Ha      -44220.72639280 eV
  | Total energy, T -> 0          :       -1625.08182532 Ha      -44220.72639280 eV  <-- do not rely on this value for anything but (periodic) metals
  | Electronic free energy        :       -1625.08182532 Ha      -44220.72639280 eV

  Derived energy quantities:
  | Kinetic energy                :        1630.12176245 Ha       44357.87005986 eV
  | Electrostatic energy          :       -3109.98572279 Ha      -84627.01729230 eV
  | Energy correction for multipole
  | error in Hartree potential    :           0.03668363 Ha           0.99821224 eV
  | Sum of eigenvalues per atom                           :       -2008.80245337 eV
  | Total energy (T->0) per atom                          :       -3685.06053273 eV  <-- do not rely on this value for anything but (periodic) metals
  | Electronic free energy per atom                       :       -3685.06053273 eV
  Evaluating new KS density.
  Integration grid: deviation in total charge (<rho> - N_e) =   4.263256E-14

  Self-consistency convergence accuracy:
  | Change of charge density      :  0.4545E+00
  | Change of sum of eigenvalues  : -0.7828E+02 eV
  | Change of total energy        :  0.1594E+01 eV


------------------------------------------------------------
  End self-consistency iteration #     2       :  max(cpu_time)    wall_clock(cpu1)
  | Time for this iteration                     :        0.087 s           0.084 s
  | Charge density update                       :        0.028 s           0.028 s
  | Density mixing                              :        0.004 s           0.002 s
  | Hartree multipole update                    :        0.001 s           0.001 s
  | Hartree multipole summation                 :        0.017 s           0.017 s
  | Integration                                 :        0.031 s           0.031 s
  | Solution of K.-S. eqns.                     :        0.004 s           0.005 s
  | Total energy evaluation                     :        0.000 s           0.000 s

  Partial memory accounting:
  | Current value for overall tracked memory usage:
  |   Minimum:        0.274 MB (on task 23)
  |   Maximum:        0.293 MB (on task  0)
  |   Average:        0.288 MB
  | Peak value for overall tracked memory usage:
  |   Minimum:        1.340 MB (on task  1 after allocating wave)
  |   Maximum:        1.432 MB (on task  2 after allocating wave)
  |   Average:        1.386 MB
  | Largest tracked array allocation so far:
  |   Minimum:        0.725 MB (gradient_basis_wave on task  1)
  |   Maximum:        0.784 MB (gradient_basis_wave on task  2)
  |   Average:        0.757 MB
  Note:  These values currently only include a subset of arrays which are explicitly tracked.
  The "true" memory usage will be greater.
------------------------------------------------------------

------------------------------------------------------------
          Begin self-consistency iteration #    3

  Date     :  20220517, Time     :  120234.198
------------------------------------------------------------
  Pulay mixing of updated and previous charge densities.
  Renormalizing the density to the exact electron count on the 3D integration grid.
  | Formal number of electrons (from input files) :     120.0000000000
  | Integrated number of electrons on 3D grid     :     120.0000000000
  | Charge integration error                      :       0.0000000000
  | Normalization factor for density and gradient :       1.0000000000

  Evaluating partitioned Hartree potential by multipole expansion.
  | Original multipole sum: apparent total charge =   0.784155E-13
  | Sum of charges compensated after spline to logarithmic grids =   0.608457E-04
  | Analytical far-field extrapolation by fixed multipoles:
  | Hartree multipole sum: apparent total charge =   0.786384E-13
  Summing up the Hartree potential.
  Time summed over all CPUs for potential: real work        0.381 s, elapsed        0.398 s
  | RMS charge density error from multipole expansion :   0.173109E-01

  Integrating Hamiltonian matrix: batch-based integration.
  Time summed over all CPUs for integration: real work        0.707 s, elapsed        0.738 s

  Updating Kohn-Sham eigenvalues and eigenvectors using ELSI and the ELPA eigensolver.
  Starting ELPA eigensolver
  Finished transformation to standard eigenproblem
  | Time :     0.003 s
  Finished solving standard eigenproblem
  | Time :     0.015 s
  Finished back-transformation of eigenvectors
  | Time :     0.002 s

  Obtaining occupation numbers and chemical potential using ELSI.
  | Chemical potential (Fermi level):    -7.57352206 eV
  Highest occupied state (VBM) at     -8.34426385 eV
  | Occupation number:      2.00000000

  Lowest unoccupied state (CBM) at    -4.88550709 eV
  | Occupation number:      0.00000000

  Overall HOMO-LUMO gap:      3.45875676 eV.

  Total energy components:
  | Sum of eigenvalues            :        -886.80588884 Ha      -24131.21601815 eV
  | XC energy correction          :        -145.18268610 Ha       -3950.62189421 eV
  | XC potential correction       :         189.04779827 Ha        5144.25232767 eV
  | Free-atom electrostatic energy:        -781.23093013 Ha      -21258.37522308 eV
  | Hartree energy correction     :          -0.90905716 Ha         -24.73670402 eV
  | Entropy correction            :           0.00000000 Ha           0.00000000 eV
  | ---------------------------
  | Total energy                  :       -1625.08076396 Ha      -44220.69751180 eV
  | Total energy, T -> 0          :       -1625.08076396 Ha      -44220.69751180 eV  <-- do not rely on this value for anything but (periodic) metals
  | Electronic free energy        :       -1625.08076396 Ha      -44220.69751180 eV

  Derived energy quantities:
  | Kinetic energy                :        1628.45400763 Ha       44312.48814231 eV
  | Electrostatic energy          :       -3108.35208550 Ha      -84582.56375990 eV
  | Energy correction for multipole
  | error in Hartree potential    :           0.04933463 Ha           1.34246364 eV
  | Sum of eigenvalues per atom                           :       -2010.93466818 eV
  | Total energy (T->0) per atom                          :       -3685.05812598 eV  <-- do not rely on this value for anything but (periodic) metals
  | Electronic free energy per atom                       :       -3685.05812598 eV
  Evaluating new KS density.
  Integration grid: deviation in total charge (<rho> - N_e) =   2.842171E-14

  Self-consistency convergence accuracy:
  | Change of charge density      :  0.1228E+00
  | Change of sum of eigenvalues  : -0.2559E+02 eV
  | Change of total energy        :  0.2888E-01 eV


------------------------------------------------------------
  End self-consistency iteration #     3       :  max(cpu_time)    wall_clock(cpu1)
  | Time for this iteration                     :        0.107 s           0.105 s
  | Charge density update                       :        0.029 s           0.028 s
  | Density mixing                              :        0.004 s           0.002 s
  | Hartree multipole update                    :        0.001 s           0.001 s
  | Hartree multipole summation                 :        0.017 s           0.017 s
  | Integration                                 :        0.033 s           0.033 s
  | Solution of K.-S. eqns.                     :        0.022 s           0.022 s
  | Total energy evaluation                     :        0.000 s           0.001 s

  Partial memory accounting:
  | Current value for overall tracked memory usage:
  |   Minimum:        0.274 MB (on task 23)
  |   Maximum:        0.293 MB (on task  0)
  |   Average:        0.288 MB
  | Peak value for overall tracked memory usage:
  |   Minimum:        1.340 MB (on task  1 after allocating wave)
  |   Maximum:        1.432 MB (on task  2 after allocating wave)
  |   Average:        1.386 MB
  | Largest tracked array allocation so far:
  |   Minimum:        0.725 MB (gradient_basis_wave on task  1)
  |   Maximum:        0.784 MB (gradient_basis_wave on task  2)
  |   Average:        0.757 MB
  Note:  These values currently only include a subset of arrays which are explicitly tracked.
  The "true" memory usage will be greater.
------------------------------------------------------------

------------------------------------------------------------
          Begin self-consistency iteration #    4

  Date     :  20220517, Time     :  120234.311
------------------------------------------------------------
  Pulay mixing of updated and previous charge densities.
  Renormalizing the density to the exact electron count on the 3D integration grid.
  | Formal number of electrons (from input files) :     120.0000000000
  | Integrated number of electrons on 3D grid     :     120.0000000000
  | Charge integration error                      :      -0.0000000000
  | Normalization factor for density and gradient :       1.0000000000

  Evaluating partitioned Hartree potential by multipole expansion.
  | Original multipole sum: apparent total charge =  -0.332915E-13
  | Sum of charges compensated after spline to logarithmic grids =   0.651355E-04
  | Analytical far-field extrapolation by fixed multipoles:
  | Hartree multipole sum: apparent total charge =  -0.308755E-13
  Summing up the Hartree potential.
  Time summed over all CPUs for potential: real work        0.382 s, elapsed        0.399 s
  | RMS charge density error from multipole expansion :   0.193193E-01

  Integrating Hamiltonian matrix: batch-based integration.
  Time summed over all CPUs for integration: real work        0.707 s, elapsed        0.738 s

  Updating Kohn-Sham eigenvalues and eigenvectors using ELSI and the ELPA eigensolver.
  Starting ELPA eigensolver
  Finished transformation to standard eigenproblem
  | Time :     0.000 s
  Finished solving standard eigenproblem
  | Time :     0.003 s
  Finished back-transformation of eigenvectors
  | Time :     0.001 s

  Obtaining occupation numbers and chemical potential using ELSI.
  | Chemical potential (Fermi level):    -7.56818301 eV
  Highest occupied state (VBM) at     -8.33458838 eV
  | Occupation number:      2.00000000

  Lowest unoccupied state (CBM) at    -4.86449229 eV
  | Occupation number:      0.00000000

  Overall HOMO-LUMO gap:      3.47009610 eV.

  Total energy components:
  | Sum of eigenvalues            :        -886.92027781 Ha      -24134.32870039 eV
  | XC energy correction          :        -145.16706610 Ha       -3950.19685248 eV
  | XC potential correction       :         189.02663199 Ha        5143.67636384 eV
  | Free-atom electrostatic energy:        -781.23093013 Ha      -21258.37522308 eV
  | Hartree energy correction     :          -0.78702360 Ha         -21.41600170 eV
  | Entropy correction            :           0.00000000 Ha           0.00000000 eV
  | ---------------------------
  | Total energy                  :       -1625.07866565 Ha      -44220.64041381 eV
  | Total energy, T -> 0          :       -1625.07866565 Ha      -44220.64041381 eV  <-- do not rely on this value for anything but (periodic) metals
  | Electronic free energy        :       -1625.07866565 Ha      -44220.64041381 eV

  Derived energy quantities:
  | Kinetic energy                :        1627.80553709 Ha       44294.84236111 eV
  | Electrostatic energy          :       -3107.71713664 Ha      -84565.28592244 eV
  | Energy correction for multipole
  | error in Hartree potential    :           0.05440473 Ha           1.48042803 eV
  | Sum of eigenvalues per atom                           :       -2011.19405837 eV
  | Total energy (T->0) per atom                          :       -3685.05336782 eV  <-- do not rely on this value for anything but (periodic) metals
  | Electronic free energy per atom                       :       -3685.05336782 eV
  Evaluating new KS density.
  Integration grid: deviation in total charge (<rho> - N_e) =   7.105427E-14

  Self-consistency convergence accuracy:
  | Change of charge density      :  0.8114E-01
  | Change of sum of eigenvalues  : -0.3113E+01 eV
  | Change of total energy        :  0.5710E-01 eV


------------------------------------------------------------
  End self-consistency iteration #     4       :  max(cpu_time)    wall_clock(cpu1)
  | Time for this iteration                     :        0.095 s           0.092 s
  | Charge density update                       :        0.028 s           0.028 s
  | Density mixing                              :        0.006 s           0.003 s
  | Hartree multipole update                    :        0.008 s           0.008 s
  | Hartree multipole summation                 :        0.017 s           0.017 s
  | Integration                                 :        0.031 s           0.031 s
  | Solution of K.-S. eqns.                     :        0.004 s           0.004 s
  | Total energy evaluation                     :        0.000 s           0.000 s

  Partial memory accounting:
  | Current value for overall tracked memory usage:
  |   Minimum:        0.274 MB (on task 23)
  |   Maximum:        0.293 MB (on task  0)
  |   Average:        0.288 MB
  | Peak value for overall tracked memory usage:
  |   Minimum:        1.340 MB (on task  1 after allocating wave)
  |   Maximum:        1.432 MB (on task  2 after allocating wave)
  |   Average:        1.386 MB
  | Largest tracked array allocation so far:
  |   Minimum:        0.725 MB (gradient_basis_wave on task  1)
  |   Maximum:        0.784 MB (gradient_basis_wave on task  2)
  |   Average:        0.757 MB
  Note:  These values currently only include a subset of arrays which are explicitly tracked.
  The "true" memory usage will be greater.
------------------------------------------------------------

------------------------------------------------------------
          Begin self-consistency iteration #    5

  Date     :  20220517, Time     :  120234.409
------------------------------------------------------------
  Pulay mixing of updated and previous charge densities.
  Renormalizing the density to the exact electron count on the 3D integration grid.
  | Formal number of electrons (from input files) :     120.0000000000
  | Integrated number of electrons on 3D grid     :     120.0000000000
  | Charge integration error                      :       0.0000000000
  | Normalization factor for density and gradient :       1.0000000000

  Evaluating partitioned Hartree potential by multipole expansion.
  | Original multipole sum: apparent total charge =  -0.240166E-13
  | Sum of charges compensated after spline to logarithmic grids =   0.659575E-04
  | Analytical far-field extrapolation by fixed multipoles:
  | Hartree multipole sum: apparent total charge =  -0.272897E-13
  Summing up the Hartree potential.
  Time summed over all CPUs for potential: real work        0.382 s, elapsed        0.403 s
  | RMS charge density error from multipole expansion :   0.191468E-01

  Integrating Hamiltonian matrix: batch-based integration.
  Time summed over all CPUs for integration: real work        0.709 s, elapsed        0.742 s

  Updating Kohn-Sham eigenvalues and eigenvectors using ELSI and the ELPA eigensolver.
  Starting ELPA eigensolver
  Finished transformation to standard eigenproblem
  | Time :     0.003 s
  Finished solving standard eigenproblem
  | Time :     0.011 s
  Finished back-transformation of eigenvectors
  | Time :     0.002 s

  Obtaining occupation numbers and chemical potential using ELSI.
  | Chemical potential (Fermi level):    -7.56138645 eV
  Highest occupied state (VBM) at     -8.42119186 eV
  | Occupation number:      2.00000000

  Lowest unoccupied state (CBM) at    -4.80109595 eV
  | Occupation number:      0.00000000

  Overall HOMO-LUMO gap:      3.62009591 eV.

  Total energy components:
  | Sum of eigenvalues            :        -886.73466718 Ha      -24129.27797819 eV
  | XC energy correction          :        -145.16438793 Ha       -3950.12397555 eV
  | XC potential correction       :         189.02327136 Ha        5143.58491650 eV
  | Free-atom electrostatic energy:        -781.23093013 Ha      -21258.37522308 eV
  | Hartree energy correction     :          -0.97182517 Ha         -26.44470840 eV
  | Entropy correction            :           0.00000000 Ha           0.00000000 eV
[...]
   Total forces(   7)            : -0.235552E+00  0.246283E+01 -0.114129E+00
  atom #    8
   Hellmann-Feynman              :  0.780588E+00 -0.815989E+00  0.492833E+00
   Ionic forces                  :  0.000000E+00  0.000000E+00  0.000000E+00
   Multipole                     :  0.411776E+00 -0.266783E+00 -0.278306E-01
   Hartree pot. SCF incomplete   :  0.724181E-05 -0.456145E-05 -0.609064E-05
   Pulay + GGA                   : -0.314474E+01  0.259262E+01 -0.234240E+00
   ----------------------------------------------------------------
   Total forces(   8)            : -0.195237E+01  0.150984E+01  0.230756E+00
  atom #    9
   Hellmann-Feynman              : -0.544169E+00  0.607637E+00 -0.321455E+01
   Ionic forces                  :  0.000000E+00  0.000000E+00  0.000000E+00
   Multipole                     : -0.141022E+00  0.168227E+00 -0.865697E+00
   Hartree pot. SCF incomplete   : -0.225613E-05  0.327798E-06 -0.256615E-05
   Pulay + GGA                   :  0.127529E+01 -0.141976E+01  0.749722E+01
   ----------------------------------------------------------------
   Total forces(   9)            :  0.590101E+00 -0.643891E+00  0.341697E+01
  atom #   10
   Hellmann-Feynman              : -0.391659E+00  0.697478E+00  0.693847E+00
   Ionic forces                  :  0.000000E+00  0.000000E+00  0.000000E+00
   Multipole                     :  0.143713E-01  0.482978E+00  0.122205E+00
   Hartree pot. SCF incomplete   : -0.202783E-05  0.112337E-04 -0.315639E-05
   Pulay + GGA                   :  0.439138E+00 -0.344488E+01 -0.164277E+01
   ----------------------------------------------------------------
   Total forces(  10)            :  0.618483E-01 -0.226441E+01 -0.826724E+00
  atom #   11
   Hellmann-Feynman              :  0.308019E+01  0.105575E+01  0.118751E+01
   Ionic forces                  :  0.000000E+00  0.000000E+00  0.000000E+00
   Multipole                     :  0.746142E+00  0.295797E+00  0.253380E+00
   Hartree pot. SCF incomplete   :  0.158184E-05  0.111844E-05  0.179429E-05
   Pulay + GGA                   : -0.672490E+01 -0.234297E+01 -0.267954E+01
   ----------------------------------------------------------------
   Total forces(  11)            : -0.289857E+01 -0.991429E+00 -0.123865E+01
  atom #   12
   Hellmann-Feynman              : -0.166934E+00 -0.181220E+00  0.723862E-01
   Ionic forces                  :  0.000000E+00  0.000000E+00  0.000000E+00
   Multipole                     : -0.355809E+00 -0.292707E+00  0.159445E+00
   Hartree pot. SCF incomplete   : -0.646036E-05 -0.105546E-05 -0.347455E-05
   Pulay + GGA                   :  0.199092E+01  0.115354E+01 -0.505047E+00
   ----------------------------------------------------------------
   Total forces(  12)            :  0.146817E+01  0.679609E+00 -0.273220E+00


  Self-consistency convergence accuracy:
  | Change of charge density      :  0.1102E-05
  | Change of sum of eigenvalues  : -0.3327E-04 eV
  | Change of total energy        :  0.6597E-07 eV
  | Change of forces              :  0.1881E-05 eV/A

  Writing Kohn-Sham eigenvalues.

  State    Occupation    Eigenvalue [Ha]    Eigenvalue [eV]
      1       2.00000         -55.667753        -1514.79662
      2       2.00000         -55.641506        -1514.08242
      3       2.00000         -55.595342        -1512.82622
      4       2.00000         -24.318355         -661.73612
      5       2.00000         -24.314381         -661.62796
      6       2.00000         -24.305474         -661.38561
      7       2.00000         -24.280586         -660.70835
      8       2.00000         -24.272460         -660.48725
      9       2.00000         -24.244844         -659.73576
     10       2.00000         -24.217541         -658.99283
     11       2.00000         -24.169472         -657.68480
     12       2.00000         -24.163747         -657.52902
     13       2.00000          -4.120348         -112.12038
     14       2.00000          -4.093326         -111.38508
     15       2.00000          -4.046651         -110.11498
     16       2.00000          -2.713408          -73.83560
     17       2.00000          -2.712254          -73.80419
     18       2.00000          -2.710144          -73.74677
     19       2.00000          -2.686429          -73.10146
     20       2.00000          -2.684888          -73.05951
     21       2.00000          -2.683425          -73.01970
     22       2.00000          -2.641306          -71.87359
     23       2.00000          -2.638221          -71.78964
     24       2.00000          -2.634940          -71.70037
     25       2.00000          -1.192664          -32.45403
     26       2.00000          -1.181482          -32.14977
     27       2.00000          -1.163762          -31.66756
     28       2.00000          -1.148543          -31.25344
     29       2.00000          -1.127714          -30.68666
     30       2.00000          -1.091721          -29.70724
     31       2.00000          -1.065049          -28.98147
     32       2.00000          -1.017385          -27.68445
     33       2.00000          -1.010316          -27.49210
     34       2.00000          -0.580025          -15.78329
     35       2.00000          -0.567073          -15.43084
     36       2.00000          -0.545174          -14.83495
     37       2.00000          -0.520477          -14.16289
     38       2.00000          -0.516504          -14.05480
     39       2.00000          -0.498600          -13.56760
     40       2.00000          -0.497653          -13.54183
     41       2.00000          -0.494743          -13.46264
     42       2.00000          -0.480921          -13.08652
     43       2.00000          -0.474776          -12.91931
     44       2.00000          -0.461561          -12.55972
     45       2.00000          -0.452090          -12.30200
     46       2.00000          -0.449599          -12.23421
     47       2.00000          -0.437767          -11.91225
     48       2.00000          -0.433269          -11.78985
     49       2.00000          -0.422334          -11.49229
     50       2.00000          -0.412343          -11.22044
     51       2.00000          -0.397420          -10.81435
     52       2.00000          -0.396310          -10.78415
     53       2.00000          -0.387296          -10.53885
     54       2.00000          -0.370942          -10.09385
     55       2.00000          -0.370184          -10.07321
     56       2.00000          -0.357843           -9.73740
     57       2.00000          -0.328785           -8.94671
     58       2.00000          -0.324955           -8.84248
     59       2.00000          -0.316903           -8.62336
     60       2.00000          -0.308476           -8.39406
     61       0.00000          -0.176512           -4.80313
     62       0.00000          -0.114237           -3.10856
     63       0.00000          -0.075123           -2.04421
     64       0.00000          -0.066492           -1.80934
     65       0.00000          -0.061702           -1.67901
     66       0.00000          -0.025608           -0.69682
     67       0.00000           0.014631            0.39813
     68       0.00000           0.023236            0.63229
     69       0.00000           0.034763            0.94594
     70       0.00000           0.062334            1.69619
     71       0.00000           0.086742            2.36037
     72       0.00000           0.095793            2.60667
     73       0.00000           0.135857            3.69686
     74       0.00000           0.148183            4.03227
     75       0.00000           0.151718            4.12846
     76       0.00000           0.158910            4.32415
     77       0.00000           0.177134            4.82007
     78       0.00000           0.186005            5.06146
     79       0.00000           0.197602            5.37702
     80       0.00000           0.210753            5.73489
     81       0.00000           0.214817            5.84546
     82       0.00000           0.219021            5.95987
     83       0.00000           0.227628            6.19408
     84       0.00000           0.230411            6.26981
     85       0.00000           0.242834            6.60786
     86       0.00000           0.246373            6.70414
     87       0.00000           0.249128            6.77913
     88       0.00000           0.260846            7.09798
     89       0.00000           0.280036            7.62016
     90       0.00000           0.283088            7.70322
     91       0.00000           0.285900            7.77974
     92       0.00000           0.332346            9.04358
     93       0.00000           0.344177            9.36553
     94       0.00000           0.359053            9.77033
     95       0.00000           0.370751           10.08865
     96       0.00000           0.379024           10.31377

  Highest occupied state (VBM) at     -8.39406037 eV
  | Occupation number:      2.00000000

  Lowest unoccupied state (CBM) at    -4.80313121 eV
  | Occupation number:      0.00000000

  Overall HOMO-LUMO gap:      3.59092915 eV.
  | Chemical Potential                          :    -7.55861673 eV

  Self-consistency cycle converged.


------------------------------------------------------------
  End self-consistency iteration #    13       :  max(cpu_time)    wall_clock(cpu1)
  | Time for this iteration                     :        0.277 s           0.276 s
  | Charge density & force component update     :        0.155 s           0.155 s
  | Density mixing                              :        0.005 s           0.002 s
  | Hartree multipole update                    :        0.001 s           0.001 s
  | Hartree multipole summation                 :        0.049 s           0.049 s
  | Hartree pot. SCF incomplete forces          :        0.031 s           0.031 s
  | Integration                                 :        0.031 s           0.031 s
  | Solution of K.-S. eqns.                     :        0.004 s           0.004 s
  | Total energy evaluation                     :        0.000 s           0.000 s

  Partial memory accounting:
  | Current value for overall tracked memory usage:
  |   Minimum:        0.274 MB (on task 23)
  |   Maximum:        0.293 MB (on task  0)
  |   Average:        0.289 MB
  | Peak value for overall tracked memory usage:
  |   Minimum:        2.982 MB (on task  1 after allocating hessian_basis_wave)
  |   Maximum:        3.178 MB (on task  2 after allocating hessian_basis_wave)
  |   Average:        3.085 MB
  | Largest tracked array allocation so far:
  |   Minimum:        1.450 MB (hessian_basis_wave on task  1)
  |   Maximum:        1.568 MB (hessian_basis_wave on task  2)
  |   Average:        1.514 MB
  Note:  These values currently only include a subset of arrays which are explicitly tracked.
  The "true" memory usage will be greater.
------------------------------------------------------------
  Removing unitary transformations (pure translations, rotations) from forces on atoms.
  Atomic forces before filtering:
  | Net force on center of mass :  -0.384803E-02 -0.952376E-02 -0.214916E-02 eV/A
  | Net torque on center of mass:   0.281066E-02  0.155044E-03  0.481484E-02 eV
  Atomic forces after filtering:
  | Net force on center of mass :  -0.178406E-15 -0.624421E-15  0.000000E+00 eV/A
  | Net torque on center of mass:  -0.368193E-14 -0.193537E-14 -0.188817E-14 eV

  Energy and forces in a compact form:
  | Total energy uncorrected      :         -0.442206366619911E+05 eV
  | Total energy corrected        :         -0.442206366619911E+05 eV  <-- do not rely on this value for anything but (periodic) metals
  | Electronic free energy        :         -0.442206366619911E+05 eV
  Total atomic forces (unitary forces cleaned) [eV/Ang]:
  |    1         -0.321328359704431E+01         -0.140122076753182E+01          0.136666902160686E+01
  |    2          0.250976433278671E+01          0.429872966832918E+00          0.190736875026833E+01
  |    3         -0.128983026139210E+00          0.546901433778404E+00         -0.251272993729722E+01
  |    4          0.837942033073280E+00         -0.157691967556918E+01         -0.112928640014359E+01
  |    5          0.232695683673223E+01         -0.157200955134053E+01         -0.168552714769668E+00
  |    6          0.631939142627902E+00          0.281680486270871E+01         -0.659482696894794E+00
  |    7         -0.235386254824317E+00          0.246360602759556E+01         -0.113869237079287E+00
  |    8         -0.195210148028115E+01          0.151037039846640E+01          0.230960048539930E+00
  |    9          0.590497698656514E+00         -0.643289843187972E+00          0.341710626246859E+01
  |   10          0.623624158129393E-01         -0.226371647953095E+01         -0.826647257527389E+00
  |   11         -0.289814654465745E+01         -0.990883989561612E+00         -0.123852280748465E+01
  |   12          0.146843844325686E+01          0.680484617340073E+00         -0.273013031687112E+00

  ------------------------------------ 
  Start decomposition of the XC Energy 
  ------------------------------------ 
  X and C from original XC functional choice 
  Hartree-Fock Energy :          0.000000000 Ha              0.000000000 eV
  X Energy            :       -140.212100499 Ha          -3815.365378221 eV
  C Energy            :         -4.956004258 Ha           -134.859737448 eV
  Total XC Energy     :       -145.168104757 Ha          -3950.225115669 eV
  ------------------------------------ 
  LDA X and C from self-consistent density 
  X Energy LDA        :       -132.800531067 Ha          -3613.686312670 eV
  C Energy LDA        :         -8.827984351 Ha           -240.221676532 eV
  ------------------------------------ 
  End decomposition of the XC Energy 
  ------------------------------------ 

------------------------------------------------------------

------------------------------------------------------------------------------
  Final output of selected total energy values:

  The following output summarizes some interesting total energy values
  at the end of a run (AFTER all relaxation, molecular dynamics, etc.).

  | Total energy of the DFT / Hartree-Fock s.c.f. calculation      :         -44220.636661991 eV
  | Final zero-broadening corrected energy (caution - metals only) :         -44220.636661991 eV
  | For reference only, the value of 1 Hartree used in FHI-aims is :             27.211384500 eV

  Before relying on these values, please be sure to understand exactly which
  total energy value is referred to by a given number. Different objects may
  all carry the same name 'total energy'. Definitions:

  Total energy of the DFT / Hartree-Fock s.c.f. calculation:
  | Note that this energy does not include ANY quantities calculated after the
  | s.c.f. cycle, in particular not ANY RPA, MP2, etc. many-body perturbation terms.

  Final zero-broadening corrected energy:
  | For metallic systems only, a broadening of the occupation numbers at the Fermi
  | level can be extrapolated back to zero broadening by an electron-gas inspired
  | formula. For all systems that are not real metals, this value can be
  | meaningless and should be avoided.

------------------------------------------------------------------------------
  Methods described in the following list of references were used in this FHI-aims run.
  If you publish the results, please make sure to cite these reference if they apply.
  FHI-aims is an academic code, and for our developers (often, Ph.D. students
  and postdocs), scientific credit in the community is essential.
  Thank you for helping us!

  For any use of FHI-aims, please cite:

    Volker Blum, Ralf Gehrke, Felix Hanke, Paula Havu, Ville Havu,
    Xinguo Ren, Karsten Reuter, and Matthias Scheffler
    'Ab initio molecular simulations with numeric atom-centered orbitals'
    Computer Physics Communications 180, 2175-2196 (2009)
    http://dx.doi.org/10.1016/j.cpc.2009.06.022


  The ELSI infrastructure was used in your run to solve the Kohn-Sham electronic structure.
  Please check out http://elsi-interchange.org to learn more.
  If scalability is important for your project, please acknowledge ELSI by citing:

    V. W-z. Yu, F. Corsetti, A. Garcia, W. P. Huhn, M. Jacquelin, W. Jia,
    B. Lange, L. Lin, J. Lu, W. Mi, A. Seifitokaldani, A. Vazquez-Mayagoitia,
    C. Yang, H. Yang, and V. Blum
    'ELSI: A unified software interface for Kohn-Sham electronic structure solvers'
    Computer Physics Communications 222, 267-285 (2018).
    http://dx.doi.org/10.1016/j.cpc.2017.09.007


  For the real-space grid partitioning and parallelization used in this calculation, please cite:

    Ville Havu, Volker Blum, Paula Havu, and Matthias Scheffler,
    'Efficient O(N) integration for all-electron electronic structure calculation'
    'using numerically tabulated basis functions'
    Journal of Computational Physics 228, 8367-8379 (2009).
    http://dx.doi.org/10.1016/j.jcp.2009.08.008

  Of course, there are many other important community references, e.g., those cited in the
  above references. Our list is limited to references that describe implementations in the
  FHI-aims code. The reason is purely practical (length of this list) - please credit others as well.

------------------------------------------------------------
          Leaving FHI-aims.
          Date     :  20220517, Time     :  120235.835

          Computational steps:
          | Number of self-consistency cycles          :           13
          | Number of SCF (re)initializations          :            1

          Detailed time accounting                     :  max(cpu_time)    wall_clock(cpu1)
          | Total time                                  :        2.160 s           2.230 s
          | Preparation time                            :        0.184 s           0.184 s
          | Boundary condition initalization            :        0.000 s           0.000 s
          | Grid partitioning                           :        0.040 s           0.040 s
          | Preloading free-atom quantities on grid     :        0.016 s           0.017 s
          | Free-atom superposition energy              :        0.005 s           0.005 s
          | Total time for integrations                 :        0.473 s           0.474 s
          | Total time for solution of K.-S. equations  :        0.233 s           0.232 s
          | Total time for density & force components   :        0.670 s           0.668 s
          | Total time for mixing                       :        0.073 s           0.036 s
          | Total time for Hartree multipole update     :        0.048 s           0.051 s
          | Total time for Hartree multipole sum        :        0.293 s           0.292 s
          | Total time for total energy evaluation      :        0.002 s           0.005 s
          | Total time NSC force correction             :        0.061 s           0.062 s
          | Total time for scaled ZORA corrections      :        0.000 s           0.000 s

          Partial memory accounting:
          | Residual value for overall tracked memory usage across tasks:     0.000000 MB (should be 0.000000 MB)
          | Peak values for overall tracked memory usage:
          |   Minimum:        2.982 MB (on task  1 after allocating hessian_basis_wave)
          |   Maximum:        3.178 MB (on task  2 after allocating hessian_basis_wave)
          |   Average:        3.085 MB
          | Largest tracked array allocation:
          |   Minimum:        1.450 MB (hessian_basis_wave on task  1)
          |   Maximum:        1.568 MB (hessian_basis_wave on task  2)
          |   Average:        1.514 MB
          Note:  These values currently only include a subset of arrays which are explicitly tracked.
          The "true" memory usage will be greater.

          Have a nice day.
------------------------------------------------------------
