********************************************************************************
*                       GENERAL UTILITY LATTICE PROGRAM                        *
*                                 Julian Gale                                  *
*                       Curtin Institute for Computation                       *
*                           Department of Chemistry                            *
*                    Curtin University, Western Australia                      *
********************************************************************************
* Version = 5.1.1 * Last modified =  24th November 2018                        *
********************************************************************************
*  optimise     - perform optimisation run                                     *
*  conp         - constant pressure calculation                                *
*  shell        - only shells and radii to be optimised                        *
*  phonon       - calculate phonons for final geometry                         *
*  eigenvectors - output phonon eigenvectors                                   *
********************************************************************************

  Job Started  at 14:40.26 25th May        2022                               

  Number of CPUs =     1

  Host name      = login03                                 


  Total number of configurations input =      1

********************************************************************************
*  Input for Configuration =   1                                               *
********************************************************************************

  Formula = Al3F9                                                       

  Number of irreducible atoms/shells =      21


  Total number atoms/shells =      21

  Dimensionality = 0               :  Cluster


  Charge on cluster =  -0.000000


  Initial cluster dipoles : x =      0.229042 e.Angs
                            y =      0.057765 e.Angs
                            z =     -0.496383 e.Angs

  Temperature of configuration =  0.000     K 

  Symmetry number =      1

  Cartesian coordinates of cluster :

--------------------------------------------------------------------------------
   No.  Atomic       x           y          z         Charge      Occupancy
        Label      (Angs)      (Angs)     (Angs)        (e)         (Frac)  
--------------------------------------------------------------------------------
      1 Al    c      0.2937     -2.3234     -1.8666     3.00000    1.000000    
      2 Al    c      2.0529     -0.5364     -0.8469     3.00000    1.000000    
      3 Al    c     -0.3170      0.3137     -1.8415     3.00000    1.000000    
      4 F     c      3.6237     -0.1804     -0.0286     0.59000    1.000000    
      5 F     c     -0.1682     -4.0325     -2.2265     0.59000    1.000000    
      6 F     c      2.0842     -1.8065     -2.2681     0.59000    1.000000    
      7 F     c      1.5167      0.6437     -2.2448     0.59000    1.000000    
      8 F     c     -1.4846      1.6519     -2.1724     0.59000    1.000000    
      9 F     c     -1.1621     -1.2796     -0.9783     0.59000    1.000000    
     10 F     c     -0.1177     -1.0167     -3.1922     0.59000    1.000000    
     11 F     c      0.4962      0.4049     -0.0171     0.59000    1.000000    
     12 F     c      1.0719     -2.0809     -0.0408     0.59000    1.000000    
     13 F     s      3.6237 *   -0.1804 *   -0.0286 *  -1.59000    1.000000    
     14 F     s     -0.1682 *   -4.0325 *   -2.2265 *  -1.59000    1.000000    
     15 F     s      2.0842 *   -1.8065 *   -2.2681 *  -1.59000    1.000000    
     16 F     s      1.5167 *    0.6437 *   -2.2448 *  -1.59000    1.000000    
     17 F     s     -1.4846 *    1.6519 *   -2.1724 *  -1.59000    1.000000    
     18 F     s     -1.1621 *   -1.2796 *   -0.9783 *  -1.59000    1.000000    
     19 F     s     -0.1177 *   -1.0167 *   -3.1922 *  -1.59000    1.000000    
     20 F     s      0.4962 *    0.4049 *   -0.0171 *  -1.59000    1.000000    
     21 F     s      1.0719 *   -2.0809 *   -0.0408 *  -1.59000    1.000000    
--------------------------------------------------------------------------------


  Brillouin zone sampling points :

--------------------------------------------------------------------------------
  Point number          x          y          z            Weight
--------------------------------------------------------------------------------
        1           0.000000   0.000000   0.000000     1.00000000
--------------------------------------------------------------------------------


********************************************************************************
*  General input information                                                   *
********************************************************************************

  Species output for all configurations : 

--------------------------------------------------------------------------------
  Species    Type    Atomic    Atomic    Charge       Radii (Angs)     Library
                     Number     Mass       (e)     Cova   Ionic  VDW   Symbol
--------------------------------------------------------------------------------
    Al       Core       13      26.98   3.000000   1.350  0.000  2.050          
    F        Core        9      19.00   0.590000   0.710  0.000  1.300          
    F        Shell       9       0.00  -1.590000   0.710  0.000  1.300          
--------------------------------------------------------------------------------


  Accuracy factor for short range sums = 12.000

  Time limit = Infinity

  Maximum range for interatomic potentials =    100000.000000 Angstroms

  General interatomic potentials :

--------------------------------------------------------------------------------
Atom  Types   Potential      Parameter       Value         Units   Cutoffs(Ang)
  1     2                                                            Min /  Max 
--------------------------------------------------------------------------------
Al   c F    s Buckingham    Buckingham A     3760.0008    eV        0.000 10.000
                            Buckingham rho  0.22200000    Ang       
                            Buckingham C     0.0000000    eV*Ang^6  
--------------------------------------------------------------------------------
F    s F    s Buck 4 range  Buck4 A          1127.7000    eV        0.000 12.000
                            Buck4 rho       0.27530000    Ang       
                            Buck4 C          15.830000    eV*Ang^6  
                            Buck4 minimum    2.7900000    Ang       
--------------------------------------------------------------------------------
F    c F    s Spring (c-s)  Spring k 2       20.770000    eV*Ang^-2 0.000  0.800
                            Spring k 4       0.0000000    eV*Ang^-4 
--------------------------------------------------------------------------------

********************************************************************************
*  Output for configuration   1                                                *
********************************************************************************


  Components of energy : 

--------------------------------------------------------------------------------
  Interatomic potentials     =          10.44909271 eV    
  Monopole - monopole (real) =        -177.15262685 eV    
--------------------------------------------------------------------------------
  Total lattice energy       =        -166.70353415 eV    
--------------------------------------------------------------------------------
  Total lattice energy       =          -16084.3427 kJ/mol
--------------------------------------------------------------------------------


  Number of variables =       27

  Maximum number of calculations  =          2000
  Maximum Hessian update interval =            10
  Maximum step size               =   1.000000000
  Maximum parameter tolerance     =   0.000001000
  Maximum function  tolerance     =   0.000010000
  Maximum gradient  tolerance     =   0.000000010
  Maximum gradient  component     =   0.010000000

  Symmetry not applied to optimisation

  Newton-Raphson optimiser to be used

  BFGS hessian update to be used

  Lower half triangular hessian to be used

  Minimiser to switch to RFO
  When gradient norm is less than     0.010000

  Shell only optimisation

  Start of cluster optimisation :

  Cycle:      0 Energy:      -166.703534  Gnorm:      1.541110  CPU:    0.004
  ** Hessian calculated **
  Cycle:      1 Energy:      -184.068215  Gnorm:      0.637903  CPU:    0.005
  ** Hessian calculated **
  Cycle:      2 Energy:      -185.619867  Gnorm:      0.030029  CPU:    0.007
  Cycle:      3 Energy:      -185.624886  Gnorm:      0.002915  CPU:    0.009
  ** Hessian has required structure
  Cycle:      4 Energy:      -185.624932  Gnorm:      0.000766  CPU:    0.010
  ** Hessian has required structure
  Cycle:      5 Energy:      -185.624936  Gnorm:      0.000386  CPU:    0.012
  ** Hessian has required structure
  Cycle:      6 Energy:      -185.624937  Gnorm:      0.000141  CPU:    0.013
  ** Hessian has required structure
  Cycle:      7 Energy:      -185.624938  Gnorm:      0.000060  CPU:    0.014
  ** Hessian has required structure
  Cycle:      8 Energy:      -185.624938  Gnorm:      0.000008  CPU:    0.016
  ** Hessian has required structure
  Cycle:      9 Energy:      -185.624938  Gnorm:      0.000008  CPU:    0.017
  ** Hessian has required structure
  Cycle:     10 Energy:      -185.624938  Gnorm:      0.000000  CPU:    0.019
  ** Hessian has required structure

  XYZ File written as 006/5/sp_mod_10/sp_mod_10_eig.xyz



  **** Optimisation achieved ****


  Final energy =    -185.62493767 eV
  Final Gnorm  =       0.00000000

  Components of energy : 

--------------------------------------------------------------------------------
  Interatomic potentials     =          37.58278578 eV    
  Monopole - monopole (real) =        -223.20772345 eV    
--------------------------------------------------------------------------------
  Total lattice energy       =        -185.62493767 eV    
--------------------------------------------------------------------------------
  Total lattice energy       =          -17909.9689 kJ/mol
--------------------------------------------------------------------------------

  Final cartesian coordinates of atoms :

--------------------------------------------------------------------------------
   No.  Atomic        x           y          z          Radius
        Label       (Angs)      (Angs)     (Angs)       (Angs) 
--------------------------------------------------------------------------------
     1  Al    c     0.293743   -2.323447   -1.866615    0.000000
     2  Al    c     2.052915   -0.536354   -0.846924    0.000000
     3  Al    c    -0.316967    0.313704   -1.841519    0.000000
     4  F     c     3.623716   -0.180376   -0.028557    0.000000
     5  F     c    -0.168233   -4.032510   -2.226532    0.000000
     6  F     c     2.084152   -1.806489   -2.268118    0.000000
     7  F     c     1.516744    0.643676   -2.244801    0.000000
     8  F     c    -1.484637    1.651948   -2.172438    0.000000
     9  F     c    -1.162057   -1.279625   -0.978291    0.000000
    10  F     c    -0.117696   -1.016705   -3.192192    0.000000
    11  F     c     0.496186    0.404937   -0.017103    0.000000
    12  F     c     1.071858   -2.080912   -0.040759    0.000000
    13  F     s     3.380810   -0.235344   -0.163446    0.000000
    14  F     s    -0.092779   -3.764066   -2.176887    0.000000
    15  F     s     1.919183   -1.735534   -2.107869    0.000000
    16  F     s     1.400425    0.504550   -2.086551    0.000000
    17  F     s    -1.298663    1.443144   -2.127334    0.000000
    18  F     s    -0.942016   -1.226939   -1.159982    0.000000
    19  F     s    -0.093874   -1.013467   -2.952711    0.000000
    20  F     s     0.574125    0.313265   -0.281162    0.000000
    21  F     s     1.100465   -1.959560   -0.302790    0.000000
--------------------------------------------------------------------------------


  Final Cartesian derivatives :

--------------------------------------------------------------------------------
   No.  Atomic          x             y             z           Radius
        Label       (eV/Angs)     (eV/Angs)    (eV/Angs)      (eV/Angs)
--------------------------------------------------------------------------------
      1 Al    c       0.000000      0.000000      0.000000      0.000000
      2 Al    c       0.000000      0.000000      0.000000      0.000000
      3 Al    c       0.000000      0.000000      0.000000      0.000000
      4 F     c       0.000000      0.000000      0.000000      0.000000
      5 F     c       0.000000      0.000000      0.000000      0.000000
      6 F     c       0.000000      0.000000      0.000000      0.000000
      7 F     c       0.000000      0.000000      0.000000      0.000000
      8 F     c       0.000000      0.000000      0.000000      0.000000
      9 F     c       0.000000      0.000000      0.000000      0.000000
     10 F     c       0.000000      0.000000      0.000000      0.000000
     11 F     c       0.000000      0.000000      0.000000      0.000000
     12 F     c       0.000000      0.000000      0.000000      0.000000
     13 F     s       0.000000     -0.000000      0.000000      0.000000
     14 F     s      -0.000000      0.000000      0.000000      0.000000
     15 F     s      -0.000000      0.000000      0.000000      0.000000
     16 F     s       0.000000      0.000000      0.000000      0.000000
     17 F     s       0.000000     -0.000000     -0.000000      0.000000
     18 F     s      -0.000000     -0.000000      0.000000      0.000000
     19 F     s      -0.000000      0.000000     -0.000000      0.000000
     20 F     s       0.000000     -0.000000     -0.000000      0.000000
     21 F     s       0.000000     -0.000000     -0.000000      0.000000
--------------------------------------------------------------------------------
  Maximum abs         0.000000      0.000000      0.000000      0.000000
--------------------------------------------------------------------------------


  Born effective charge tensors : 

-------------------------------------------------------------------------------
  Atom             x           y             z
-------------------------------------------------------------------------------
    1 Al    x       1.2199     -0.1797      0.0302
            y      -0.1882      0.8256      0.0455
            z       0.0230      0.0253      1.2640
-------------------------------------------------------------------------------
    2 Al    x       1.0150     -0.0628     -0.2618
            y      -0.0630      1.2830     -0.0579
            z      -0.2393     -0.0527      1.0116
-------------------------------------------------------------------------------
    3 Al    x       0.9988      0.2633      0.0530
            y       0.2720      1.0479     -0.0327
            z       0.0378     -0.0176      1.2628
-------------------------------------------------------------------------------
    4 F     x      -0.0736      0.1071      0.2531
            y       0.1072     -0.5222      0.0573
            z       0.2360      0.0533     -0.4048
-------------------------------------------------------------------------------
    5 F     x      -0.5025      0.1505      0.0240
            y       0.1570      0.0151      0.1059
            z       0.0295      0.1213     -0.5132
-------------------------------------------------------------------------------
    6 F     x      -0.3489      0.0129     -0.0331
            y      -0.0050     -0.3561      0.0104
            z      -0.0018     -0.0205     -0.3161
-------------------------------------------------------------------------------
    7 F     x      -0.3474     -0.0080     -0.0252
            y       0.0094     -0.3577     -0.0247
            z      -0.0103      0.0168     -0.3160
-------------------------------------------------------------------------------
    8 F     x      -0.2805     -0.2971      0.0618
            y      -0.3037     -0.2032     -0.0777
            z       0.0734     -0.0891     -0.5169
-------------------------------------------------------------------------------
    9 F     x      -0.4393      0.0165     -0.0008
            y       0.0163     -0.5068     -0.0018
            z       0.0218      0.0034     -0.3419
-------------------------------------------------------------------------------
   10 F     x      -0.3482      0.0016      0.0032
            y       0.0020     -0.3546      0.0004
            z      -0.0430     -0.0103     -0.3182
-------------------------------------------------------------------------------
   11 F     x      -0.4709      0.0517     -0.0503
            y       0.0432     -0.4110     -0.0179
            z      -0.0576     -0.0382     -0.4059
-------------------------------------------------------------------------------
   12 F     x      -0.4224     -0.0560     -0.0540
            y      -0.0473     -0.4601     -0.0069
            z      -0.0693      0.0082     -0.4054
-------------------------------------------------------------------------------




  Moment of inertia tensor (10^-46 x kgm^2): 

-------------------------------------------------------------------------------
                x           y           z           Principal axis system
-------------------------------------------------------------------------------
       x        129.80        2.70      -23.20          119.100333
       y          2.70      119.78       -5.85          119.100335
       z        -23.20       -5.85      169.38          180.760883
-------------------------------------------------------------------------------
  Centre of mass (Ang) =     0.659291    -0.853055    -1.480918
-------------------------------------------------------------------------------


  Vibrational Frequency Calculation : 

--------------------------------------------------------------------------------

  Frequencies (cm-1) and Eigenvectors : 

  Frequency     -15.1452  -15.1451  -13.4430   -0.0000   -0.0000    0.0000
  IR Intensity    0.0000    0.0000    0.0000    0.0000    0.0000    0.0000
     in X         0.0000    0.0000    0.0000    0.0000    0.0000    0.0000
     in Y         0.0000    0.0000    0.0000    0.0000    0.0000    0.0000
     in Z         0.0000    0.0000    0.0000    0.0000    0.0000    0.0000
  Raman Intsty    0.0000    0.0000    0.0000    0.0000    0.0000    0.0000

     1 x      -0.114835  0.061704 -0.224024  0.028205  0.195469  0.260932
     1 y      -0.022385  0.013138  0.080355 -0.058767 -0.254568  0.197055
     1 z       0.251849 -0.140567 -0.094018  0.320687 -0.063842  0.013162
     2 x       0.001925 -0.139182  0.057730  0.028205  0.195469  0.260932
     2 y       0.002551 -0.034891 -0.249288 -0.058767 -0.254568  0.197055
     2 z      -0.004820  0.283254 -0.002372  0.320687 -0.063842  0.013162
     3 x       0.109796  0.064397  0.166294  0.028205  0.195469  0.260932
     3 y       0.034292  0.019044  0.168933 -0.058767 -0.254568  0.197055
     3 z      -0.246784 -0.149038  0.096389  0.320687 -0.063842  0.013162
     4 x       0.001729 -0.234460  0.098892  0.023669  0.164034  0.218969
     4 y       0.010832 -0.058668 -0.427035 -0.049316 -0.213629  0.165364
     4 z      -0.008073  0.478065 -0.004063  0.269114 -0.053575  0.011045
     5 x      -0.196679  0.099020 -0.383757  0.023669  0.164034  0.218969
     5 y      -0.037100  0.024205  0.137650 -0.049316 -0.213629  0.165364
     5 z       0.423617 -0.239258 -0.161054  0.269114 -0.053575  0.011045
     6 x      -0.040505  0.126571 -0.135666  0.023669  0.164034  0.218969
     6 y      -0.227440  0.016738 -0.137821 -0.049316 -0.213629  0.165364
     6 z       0.196466  0.205410 -0.078637  0.269114 -0.053575  0.011045
     7 x       0.131288  0.126461  0.182765  0.023669  0.164034  0.218969
     7 y      -0.184051  0.030624 -0.065557 -0.049316 -0.213629  0.165364
     7 z      -0.207276  0.198638  0.076702  0.269114 -0.053575  0.011045
     8 x       0.187716  0.105050  0.284865  0.023669  0.164034  0.218969
     8 y       0.059857  0.028168  0.289385 -0.049316 -0.213629  0.165364
     8 z      -0.414973 -0.253563  0.165116  0.269114 -0.053575  0.011045
     9 x      -0.044699 -0.057658 -0.040427  0.023669  0.164034  0.218969
     9 y       0.197393 -0.007048  0.174571 -0.049316 -0.213629  0.165364
     9 z       0.006823 -0.289517  0.001661  0.269114 -0.053575  0.011045
    10 x       0.039864  0.295779 -0.047097  0.023669  0.164034  0.218969
    10 y      -0.195092  0.066315  0.203375 -0.049316 -0.213629  0.165364
    10 z       0.000505 -0.137586  0.001935  0.269114 -0.053575  0.011045
    11 x       0.038066 -0.223826  0.156877  0.023669  0.164034  0.218969
    11 y       0.198297 -0.037305 -0.056270 -0.049316 -0.213629  0.165364
    11 z      -0.188576  0.019549  0.065838  0.269114 -0.053575  0.011045
    12 x      -0.113069 -0.221349 -0.116452  0.023669  0.164034  0.218969
    12 y       0.160076 -0.059801 -0.118298 -0.049316 -0.213629  0.165364
    12 z       0.191196  0.025829 -0.067499  0.269114 -0.053575  0.011045


  Frequency     112.2413  112.2413  125.0771  125.0771  131.9973  136.3899
  IR Intensity    0.0009    0.0009    0.0130    0.0130    0.0413    0.0046
     in X         0.0006    0.0001    0.0103    0.0004    0.0072    0.0001
     in Y         0.0001    0.0008    0.0003    0.0126    0.0005    0.0045
     in Z         0.0002    0.0000    0.0024    0.0000    0.0337    0.0000
  Raman Intsty    0.0000    0.0000    0.0000    0.0000    0.0060    0.0000

     1 x      -0.062357 -0.117451 -0.073257  0.026822 -0.058017 -0.161987
     1 y      -0.028902 -0.028388 -0.024715  0.091875 -0.017528 -0.006475
     1 z       0.170730  0.221531  0.005028 -0.059947  0.123261  0.334409
     2 x       0.121867 -0.017677 -0.044520 -0.011203 -0.054317  0.015108
     2 y       0.033206  0.017346 -0.005593  0.059868 -0.013772  0.048663
     2 z      -0.282983  0.030035 -0.113938  0.007186  0.125395 -0.044317
     3 x      -0.042094  0.128654 -0.083564 -0.054917 -0.059299  0.134401
     3 y       0.001847  0.030416 -0.001964  0.070335 -0.011986  0.069499
     3 z       0.121005 -0.252298  0.012252  0.060471  0.123312 -0.282854
     4 x       0.083849  0.000052 -0.104416  0.174768  0.226174  0.002067
     4 y       0.017089 -0.040204 -0.069129 -0.724465  0.056638 -0.143035
     4 z      -0.198691  0.020584  0.052778 -0.009999 -0.447841  0.063851
     5 x      -0.082184 -0.054676  0.593281  0.274908  0.205801  0.263848
     5 y      -0.007994 -0.031929 -0.240079 -0.044319  0.035942  0.041878
     5 z       0.102689  0.165737  0.196796  0.219259 -0.459663 -0.445868
     6 x       0.089731 -0.305535 -0.078834 -0.000695 -0.051754 -0.157949
     6 y      -0.208208  0.362587 -0.002569  0.117188 -0.041527 -0.052393
     6 z       0.052597 -0.178416 -0.083039 -0.057201  0.162061  0.152979
     7 x       0.013687  0.115492 -0.077664 -0.041934 -0.064060  0.154016
     7 y       0.315755  0.399627 -0.018534  0.107380  0.011618  0.042376
     7 z       0.094311  0.170288 -0.075880  0.068559  0.162566 -0.193389
     8 x      -0.062187  0.077117  0.398861 -0.276411  0.198727 -0.243449
     8 y      -0.030466  0.004812  0.451496 -0.210374  0.066484 -0.099951
     8 z       0.065588 -0.183776  0.176599 -0.243259 -0.459370  0.368987
     9 x      -0.381023  0.039375 -0.181694 -0.004455 -0.052392 -0.039757
     9 y      -0.085634  0.012476 -0.037457  0.066996 -0.013665  0.116851
     9 z      -0.233726  0.024676 -0.069859  0.004675  0.161056  0.031693
    10 x       0.514155 -0.039480 -0.137629 -0.014778 -0.099511  0.019500
    10 y       0.110524 -0.075259 -0.026041  0.099853 -0.024397 -0.129310
    10 z       0.163432 -0.017837  0.017717 -0.000094  0.142024  0.031377
    11 x      -0.073794 -0.106738 -0.070615  0.011019 -0.075260  0.060310
    11 y      -0.256370 -0.350742 -0.064382  0.174613 -0.036899  0.053172
    11 z      -0.035533 -0.051072 -0.048322  0.041818  0.147794 -0.228261
    12 x      -0.122988  0.282107 -0.101364 -0.075593 -0.083201 -0.043718
    12 y       0.137976 -0.304455  0.045152  0.148491 -0.002612  0.037321
    12 z      -0.021097  0.050689 -0.051608 -0.032949  0.148121  0.210007


  Frequency     136.3899  155.9330  199.3518  244.8683  244.8683  267.6978
  IR Intensity    0.0046    0.0000    0.0000    0.0274    0.0274    0.0116
     in X         0.0037    0.0000    0.0000    0.0207    0.0019    0.0020
     in Y         0.0000    0.0000    0.0000    0.0031    0.0240    0.0001
     in Z         0.0008    0.0000    0.0000    0.0036    0.0015    0.0094
  Raman Intsty    0.0000    0.0000    0.0000    0.0000    0.0000    0.0008

     1 x      -0.025849 -0.274755  0.070626 -0.007712  0.070143 -0.053102
     1 y      -0.017652  0.098552 -0.025333 -0.004374  0.284749 -0.015954
     1 z       0.156915 -0.115310  0.029640 -0.004305  0.075798  0.112894
     2 x       0.194161  0.070803 -0.018200  0.230317  0.141983 -0.049833
     2 y       0.042470 -0.305741  0.078590  0.056062  0.026174 -0.012633
     2 z      -0.345910 -0.002909  0.000748  0.104001  0.063207  0.114790
     3 x      -0.066700  0.203951 -0.052426  0.163321 -0.094499 -0.054237
     3 y      -0.016566  0.207188 -0.053258 -0.200660  0.104530 -0.011053
     3 z       0.236835  0.118219 -0.030388  0.061043 -0.036382  0.112941
     4 x      -0.230960 -0.071386  0.045669  0.223977  0.161487  0.024371
     4 y      -0.039803  0.308256 -0.197205  0.101678 -0.046954  0.005981
     4 z       0.503937  0.002933 -0.001877  0.116774  0.070020 -0.035459
     5 x      -0.023141  0.277013 -0.177219 -0.085305  0.075520  0.016015
     5 y       0.065216 -0.099362  0.063567  0.023143  0.296503 -0.002508
     5 z      -0.241764  0.116258 -0.074375 -0.036626  0.067486 -0.040303
     6 x       0.013374 -0.231397 -0.078546 -0.133846  0.192062 -0.261659
     6 y      -0.068938 -0.235071 -0.079792  0.314248 -0.051175  0.373514
     6 z      -0.178993 -0.134128 -0.045528 -0.115418  0.132024 -0.203201
     7 x      -0.060192  0.311729  0.105814  0.141733 -0.053727 -0.071697
     7 y       0.062290 -0.111815 -0.037955 -0.042104 -0.359859 -0.446771
     7 z      -0.132841  0.130827  0.044408  0.062868 -0.169487 -0.211007
     8 x       0.071131 -0.205628  0.131550  0.145633 -0.150353  0.013114
     8 y      -0.040273 -0.208892  0.133638 -0.234566  0.056507  0.010019
     8 z      -0.348307 -0.119191  0.076252  0.038264 -0.061905 -0.040184
     9 x      -0.089110  0.020071  0.117493 -0.313241 -0.231177 -0.229556
     9 y      -0.039222 -0.086671 -0.507355 -0.151959  0.082746 -0.052165
     9 z       0.236129 -0.000825 -0.004828 -0.269627 -0.162396 -0.104600
    10 x      -0.079937 -0.080332 -0.027268 -0.308080 -0.229831  0.475492
    10 y      -0.003645  0.346885  0.117747 -0.156266  0.087875  0.109104
    10 z       0.252140  0.003301  0.001120 -0.072481 -0.042362  0.106168
    11 x       0.142873 -0.077887 -0.455936  0.138350 -0.165169  0.060294
    11 y      -0.020059  0.027937  0.163541 -0.037223 -0.479083  0.242285
    11 z      -0.045761 -0.032688 -0.191348  0.056611 -0.006271  0.063409
    12 x       0.134877  0.057816  0.338443 -0.269105  0.261020  0.160918
    12 y       0.074600  0.058733  0.343814  0.360570 -0.081628 -0.192225
    12 z      -0.101550  0.033512  0.196176  0.028091  0.050602  0.059274


  Frequency     296.1760  333.7066  333.7066  363.1647  363.1647  402.8939
  IR Intensity    0.0001    0.0122    0.0122    0.0000    0.0000    0.0019
     in X         0.0000    0.0083    0.0018    0.0000    0.0000    0.0003
     in Y         0.0000    0.0018    0.0103    0.0000    0.0000    0.0000
     in Z         0.0001    0.0022    0.0001    0.0000    0.0000    0.0015
  Raman Intsty    0.2068    0.0000    0.0000    0.0000    0.0000    1.2006

     1 x      -0.015738  0.122919  0.108555 -0.254051  0.009687 -0.048145
     1 y      -0.029379 -0.064404 -0.015431  0.066929 -0.204417 -0.235274
     1 z       0.012389  0.037805  0.061506 -0.119586 -0.103611 -0.086365
     2 x       0.016697 -0.043813  0.034640  0.137956 -0.185070  0.236667
     2 y       0.003570  0.025994 -0.180812  0.210007  0.194953  0.054058
     2 z       0.031189 -0.000041 -0.001776  0.020171 -0.011772  0.078724
     3 x      -0.026997  0.110035 -0.054181  0.022497  0.214148 -0.147020
     3 y       0.019242  0.125651 -0.015139 -0.229621  0.109682  0.191683
     3 z       0.012852  0.059662 -0.043256  0.061733  0.144933 -0.082302
     4 x       0.031778  0.003139 -0.005835  0.226160 -0.158099  0.377245
     4 y       0.007255 -0.003735  0.027076  0.026372 -0.069427  0.085448
     4 z       0.010896 -0.099254 -0.018730  0.093585 -0.070652  0.201175
     5 x      -0.006621 -0.050296  0.020686  0.027265 -0.072167 -0.113180
     5 y      -0.031753 -0.025194  0.042609 -0.047011 -0.283301 -0.412761
     5 z      -0.011362  0.040611 -0.062737  0.005042 -0.083442 -0.083096
     6 x       0.077283  0.307095  0.124791 -0.120809 -0.061230 -0.139999
     6 y      -0.180833  0.244177 -0.068270 -0.033461 -0.024065  0.058281
     6 z       0.183597  0.003493 -0.429745  0.281257  0.114588  0.139385
     7 x      -0.009300  0.385745  0.066865  0.028303  0.135392 -0.099549
     7 y       0.193049 -0.032646 -0.146314 -0.000803  0.029070 -0.116392
     7 z       0.187155 -0.157653  0.397817 -0.031352 -0.302188  0.137723
     8 x      -0.019952 -0.038440 -0.055135  0.183178  0.049445 -0.283435
     8 y       0.025811 -0.010553  0.025978 -0.200068 -0.114748  0.322428
     8 z      -0.010814  0.014551  0.074011  0.077147  0.016257 -0.076100
     9 x      -0.348766 -0.082835 -0.127812 -0.161855  0.028399  0.160536
     9 y      -0.077324 -0.114200  0.461609  0.162230  0.279834  0.038053
     9 z      -0.361787  0.102084  0.024136  0.351847 -0.260030 -0.092043
    10 x      -0.258707 -0.166024  0.056275  0.118206 -0.084806  0.016971
    10 y      -0.060317  0.031462 -0.374181  0.021273 -0.032523  0.001977
    10 z       0.042588  0.425523  0.077814 -0.239558  0.179487  0.205263
    11 x       0.189266 -0.292858 -0.313739 -0.311004 -0.168293  0.037359
    11 y       0.469247  0.092900  0.126590  0.091228 -0.108436 -0.087079
    11 z      -0.049921 -0.226574 -0.011714 -0.071972  0.415613 -0.163442
    12 x       0.376048 -0.290914  0.127832  0.122093  0.285167 -0.005403
    12 y      -0.337309 -0.286170  0.156794 -0.076142  0.204173  0.097574
    12 z      -0.057596 -0.218879 -0.070483 -0.421093 -0.044845 -0.161685


  Frequency     438.7052  438.7052  484.5503  491.3861  497.4913  497.4914
  IR Intensity    0.0288    0.0288    0.0024    0.0000    0.0019    0.0019
     in X         0.0051    0.0187    0.0004    0.0000    0.0002    0.0014
     in Y         0.0235    0.0050    0.0000    0.0000    0.0017    0.0002
     in Z         0.0002    0.0051    0.0019    0.0000    0.0000    0.0004
  Raman Intsty    0.0000    0.0000    8.3047    0.0000    0.0000    0.0000

     1 x      -0.119625 -0.017033  0.008749  0.353276  0.166515 -0.128760
     1 y       0.093743 -0.041548  0.074393 -0.126717  0.082520 -0.059094
     1 z       0.164760 -0.208680  0.042735  0.148262 -0.334447  0.245211
     2 x      -0.074513 -0.212139 -0.083392 -0.091038  0.015707  0.147827
     2 y       0.089958 -0.075912 -0.019210  0.393117  0.009289  0.037904
     2 z       0.041291  0.172314 -0.010674  0.003740 -0.050997 -0.447625
     3 x       0.043507 -0.059920  0.040737 -0.262239 -0.211358 -0.095468
     3 y       0.140158 -0.031812 -0.063734 -0.266400 -0.006786 -0.006597
     3 z      -0.237868 -0.114399  0.041421 -0.152002  0.381894  0.163928
     4 x      -0.050768 -0.219176 -0.230814 -0.001938 -0.026047 -0.225360
     4 y      -0.013420 -0.049139 -0.052262  0.008368 -0.004347 -0.051320
     4 z      -0.028641 -0.122487 -0.125077  0.000079 -0.012529 -0.109998
     5 x       0.052443 -0.046843  0.070206  0.007521  0.049935 -0.038630
     5 y       0.181280 -0.170786  0.253536 -0.002697  0.195689 -0.144231
     5 z       0.033581 -0.030507  0.049407  0.003156  0.045782 -0.034585
     6 x      -0.035641  0.194966 -0.225055 -0.250296 -0.356710  0.163970
     6 y      -0.096713  0.179739  0.075316 -0.254266 -0.010986  0.319320
     6 z      -0.002174  0.118609  0.256268 -0.145080  0.158145  0.253670
     7 x       0.179651  0.195223 -0.167970  0.337187  0.381232  0.208212
     7 y      -0.098353 -0.038231 -0.171188 -0.120945  0.096570 -0.247362
     7 z       0.051992  0.103873  0.253922  0.141510 -0.096842  0.277470
     8 x      -0.165752 -0.048878  0.174707 -0.005583 -0.149811 -0.066210
     8 y       0.184905  0.057328 -0.197719 -0.005670  0.176124  0.075455
     8 z      -0.039596 -0.011228  0.045113 -0.003236 -0.048593 -0.021754
     9 x       0.000472 -0.374506  0.258448 -0.033514  0.014206  0.137020
     9 y      -0.380235 -0.001262  0.062213  0.144721  0.009760  0.031852
     9 z       0.076039  0.340873 -0.248161  0.001377 -0.010102 -0.089104
    10 x       0.079077  0.037959 -0.003534 -0.086891  0.095756 -0.056785
    10 y      -0.284572  0.079567 -0.004142  0.375210 -0.436577  0.042755
    10 z      -0.002697  0.000803  0.349237  0.003570 -0.046651 -0.372260
    11 x       0.116263  0.346743  0.108275  0.130054  0.026650 -0.026532
    11 y       0.011709 -0.174448 -0.090343 -0.046650 -0.054603  0.042855
    11 z       0.439960 -0.221202 -0.335208  0.054581 -0.120291  0.086171
    12 x       0.003753  0.259003  0.056142 -0.096540 -0.000491 -0.004643
    12 y       0.109478  0.295111  0.134778 -0.098072 -0.072947 -0.036210
    12 z      -0.490549  0.000924 -0.333066 -0.055958  0.135311  0.056252


  Frequency     592.2004  627.5203  627.5204  804.5867  804.5867  908.6933
  IR Intensity    0.1892    0.1121    0.1121    0.0084    0.0084    0.0001
     in X         0.0329    0.0836    0.0090    0.0067    0.0002    0.0000
     in Y         0.0021    0.0078    0.1030    0.0001    0.0082    0.0000
     in Z         0.1543    0.0207    0.0000    0.0015    0.0000    0.0001
  Raman Intsty    0.0220    0.0000    0.0000    0.0000    0.0000    3.0116

     1 x       0.175718  0.478210  0.285704 -0.034485 -0.208759 -0.139891
     1 y       0.026425 -0.139496 -0.150305  0.295067 -0.517065 -0.486077
     1 z      -0.396109  0.178324  0.153305 -0.005342 -0.106731 -0.082111
     2 x       0.198556  0.012710  0.144526  0.524456 -0.072317  0.435517
     2 y       0.049625  0.045791 -0.617374  0.129554  0.125017  0.098464
     2 z      -0.382872  0.057990 -0.002037  0.312056 -0.023120  0.251420
     3 x       0.167790  0.391082 -0.140517  0.162055  0.394836 -0.339649
     3 y       0.060661  0.363533 -0.211396 -0.334863 -0.326420  0.376510
     3 z      -0.395783  0.202064 -0.131526  0.004591  0.098733 -0.073903
     4 x      -0.067677 -0.125899 -0.015643 -0.419314  0.033404 -0.224383
     4 y      -0.015699 -0.030701  0.029253 -0.095238  0.004822 -0.050847
     4 z       0.002811 -0.067718 -0.004218 -0.218755  0.017084 -0.117252
     5 x       0.001577 -0.044547  0.016075 -0.051246  0.112767  0.066161
     5 y       0.054654 -0.068845  0.120870 -0.198052  0.412746  0.244309
     5 z       0.042953 -0.025191  0.016443 -0.040560  0.087221  0.051159
     6 x      -0.175183 -0.222751 -0.144276 -0.016984  0.082326  0.037673
     6 y       0.064047 -0.081264  0.148351 -0.063645  0.016062 -0.010991
     6 z       0.189979  0.027312  0.234482 -0.063245 -0.030059 -0.045731
     7 x      -0.128405 -0.242013  0.031549 -0.055540 -0.073135  0.028816
     7 y      -0.137949 -0.051870  0.195723  0.046747 -0.029937  0.027256
     7 z       0.188057  0.058287 -0.225416 -0.056736  0.039299 -0.045367
     8 x       0.025619 -0.060775 -0.076381 -0.175643 -0.258915  0.167025
     8 y      -0.049164  0.028809  0.106546  0.204334  0.294483 -0.191242
     8 z       0.041965 -0.022014 -0.017401 -0.049210 -0.073465  0.047015
     9 x      -0.183141 -0.214608 -0.039455  0.029354 -0.016372 -0.009507
     9 y      -0.044157 -0.058627  0.104669  0.012035  0.059843 -0.002377
     9 z       0.183433  0.140067  0.010373 -0.027129  0.002700  0.018493
    10 x       0.006341 -0.028503 -0.049297  0.002942 -0.021332  0.003302
    10 y      -0.001064 -0.017770  0.203482  0.007320  0.090548  0.001337
    10 z       0.266161 -0.330765 -0.020108  0.086759 -0.005918 -0.060156
    11 x      -0.080375 -0.048486 -0.102557 -0.054226 -0.012822 -0.008491
    11 y       0.060239 -0.031932  0.110424  0.022672 -0.002147 -0.001346
    11 z       0.243000 -0.163246  0.170297 -0.004196 -0.044248  0.019081
    12 x      -0.044700 -0.063445  0.034754 -0.036322  0.018517 -0.008138
    12 y      -0.093815 -0.009338  0.147384 -0.043131  0.009733 -0.002868
    12 z       0.241534 -0.139118 -0.187979  0.002108  0.044469  0.019067




--------------------------------------------------------------------------------
  Vibrational properties (for cluster):  Temperature  =       0.000 K
--------------------------------------------------------------------------------
  Zero point energy            =        0.700415 eV
--------------------------------------------------------------------------------

  Phonon density of states : 

--------------------------------------------------------------------------------
 Frequency (cm-1) Density of States                                             
--------------------------------------------------------------------------------
    0.00000 |********************                                          0.032
   14.19833 |                                                              0.000
   28.39667 |                                                              0.000
   42.59500 |                                                              0.000
   56.79334 |                                                              0.000
   70.99167 |                                                              0.000
   85.19000 |                                                              0.000
   99.38834 |****************************************                      0.065
  113.58667 |****************************************                      0.065
  127.78501 |************************************************************  0.097
  141.98334 |********************                                          0.032
  156.18168 |                                                              0.000
  170.38001 |                                                              0.000
  184.57834 |                                                              0.000
  198.77668 |********************                                          0.032
  212.97501 |                                                              0.000
  227.17335 |                                                              0.000
  241.37168 |****************************************                      0.065
  255.57001 |********************                                          0.032
  269.76835 |                                                              0.000
  283.96668 |********************                                          0.032
  298.16502 |                                                              0.000
  312.36335 |                                                              0.000
  326.56168 |****************************************                      0.065
  340.76002 |                                                              0.000
  354.95835 |****************************************                      0.065
  369.15669 |                                                              0.000
  383.35502 |                                                              0.000
  397.55336 |********************                                          0.032
  411.75169 |                                                              0.000
  425.95002 |****************************************                      0.065
  440.14836 |                                                              0.000
  454.34669 |                                                              0.000
  468.54503 |                                                              0.000
  482.74336 |****************************************                      0.065
  496.94169 |****************************************                      0.065
  511.14003 |                                                              0.000
  525.33836 |                                                              0.000
  539.53670 |                                                              0.000
  553.73503 |                                                              0.000
  567.93336 |                                                              0.000
  582.13170 |********************                                          0.032
  596.33003 |                                                              0.000
  610.52837 |                                                              0.000
  624.72670 |****************************************                      0.065
  638.92503 |                                                              0.000
  653.12337 |                                                              0.000
  667.32170 |                                                              0.000
  681.52004 |                                                              0.000
  695.71837 |                                                              0.000
  709.91671 |                                                              0.000
  724.11504 |                                                              0.000
  738.31337 |                                                              0.000
  752.51171 |                                                              0.000
  766.71004 |                                                              0.000
  780.90838 |                                                              0.000
  795.10671 |****************************************                      0.065
  809.30504 |                                                              0.000
  823.50338 |                                                              0.000
  837.70171 |                                                              0.000
  851.90005 |                                                              0.000
  866.09838 |                                                              0.000
  880.29671 |                                                              0.000
  894.49505 |********************                                          0.032
--------------------------------------------------------------------------------



  Time to end of optimisation =       0.0284 seconds


  Peak dynamic memory used =       0.65 MB 


  Timing analysis for GULP :

--------------------------------------------------------------------------------
  Task / Subroutine                                          Time (Seconds)
--------------------------------------------------------------------------------
  Calculation of real space energy and derivatives                0.0017
  Calculation of phonons                                          0.0016
  Calculation and manipulation of Hessian matrix                  0.0011
--------------------------------------------------------------------------------
  Total CPU time                                                  0.0284
--------------------------------------------------------------------------------


  Job Finished at 14:40.26 25th May        2022                               

