********************************************************************************
*                       GENERAL UTILITY LATTICE PROGRAM                        *
*                                 Julian Gale                                  *
*                       Curtin Institute for Computation                       *
*                           Department of Chemistry                            *
*                    Curtin University, Western Australia                      *
********************************************************************************
* Version = 5.1.1 * Last modified =  24th November 2018                        *
********************************************************************************
*  optimise     - perform optimisation run                                     *
*  conp         - constant pressure calculation                                *
*  shell        - only shells and radii to be optimised                        *
*  phonon       - calculate phonons for final geometry                         *
*  eigenvectors - output phonon eigenvectors                                   *
********************************************************************************

  Job Started  at 14:38.59 25th May        2022                               

  Number of CPUs =     1

  Host name      = login03                                 


  Total number of configurations input =      1

********************************************************************************
*  Input for Configuration =   1                                               *
********************************************************************************

  Formula = Al3F9                                                       

  Number of irreducible atoms/shells =      21


  Total number atoms/shells =      21

  Dimensionality = 0               :  Cluster


  Charge on cluster =  -0.000000


  Initial cluster dipoles : x =     -0.374527 e.Angs
                            y =      1.895236 e.Angs
                            z =      2.403786 e.Angs

  Temperature of configuration =  0.000     K 

  Symmetry number =      1

  Cartesian coordinates of cluster :

--------------------------------------------------------------------------------
   No.  Atomic       x           y          z         Charge      Occupancy
        Label      (Angs)      (Angs)     (Angs)        (e)         (Frac)  
--------------------------------------------------------------------------------
      1 Al    c      0.3006     -0.2888      2.0496     3.00000    1.000000    
      2 Al    c      2.1956     -1.7189     -0.4178     3.00000    1.000000    
      3 Al    c     -0.7752     -1.7571     -0.8506     3.00000    1.000000    
      4 F     c      3.5491     -0.4186     -1.1516     0.59000    1.000000    
      5 F     c     -1.8955     -0.4885     -1.9447     0.59000    1.000000    
      6 F     c      2.7708     -3.7006     -0.4933     0.59000    1.000000    
      7 F     c     -1.2549     -3.7523     -1.0797     0.59000    1.000000    
      8 F     c      2.0713     -1.5196      1.0449     0.59000    1.000000    
      9 F     c      0.8283     -1.5200     -1.4638     0.59000    1.000000    
     10 F     c      0.1477     -1.0929      3.1697     0.59000    1.000000    
     11 F     c      0.3991      0.8631      1.2721     0.59000    1.000000    
     12 F     c     -1.0784     -1.5601      0.5860     0.59000    1.000000    
     13 F     s      3.5491 *   -0.4186 *   -1.1516 *  -1.59000    1.000000    
     14 F     s     -1.8955 *   -0.4885 *   -1.9447 *  -1.59000    1.000000    
     15 F     s      2.7708 *   -3.7006 *   -0.4933 *  -1.59000    1.000000    
     16 F     s     -1.2549 *   -3.7523 *   -1.0797 *  -1.59000    1.000000    
     17 F     s      2.0713 *   -1.5196 *    1.0449 *  -1.59000    1.000000    
     18 F     s      0.8283 *   -1.5200 *   -1.4638 *  -1.59000    1.000000    
     19 F     s      0.1477 *   -1.0929 *    3.1697 *  -1.59000    1.000000    
     20 F     s      0.3991 *    0.8631 *    1.2721 *  -1.59000    1.000000    
     21 F     s     -1.0784 *   -1.5601 *    0.5860 *  -1.59000    1.000000    
--------------------------------------------------------------------------------


  Brillouin zone sampling points :

--------------------------------------------------------------------------------
  Point number          x          y          z            Weight
--------------------------------------------------------------------------------
        1           0.000000   0.000000   0.000000     1.00000000
--------------------------------------------------------------------------------


********************************************************************************
*  General input information                                                   *
********************************************************************************

  Species output for all configurations : 

--------------------------------------------------------------------------------
  Species    Type    Atomic    Atomic    Charge       Radii (Angs)     Library
                     Number     Mass       (e)     Cova   Ionic  VDW   Symbol
--------------------------------------------------------------------------------
    Al       Core       13      26.98   3.000000   1.350  0.000  2.050          
    F        Core        9      19.00   0.590000   0.710  0.000  1.300          
    F        Shell       9       0.00  -1.590000   0.710  0.000  1.300          
--------------------------------------------------------------------------------


  Accuracy factor for short range sums = 12.000

  Time limit = Infinity

  Maximum range for interatomic potentials =    100000.000000 Angstroms

  General interatomic potentials :

--------------------------------------------------------------------------------
Atom  Types   Potential      Parameter       Value         Units   Cutoffs(Ang)
  1     2                                                            Min /  Max 
--------------------------------------------------------------------------------
Al   c F    s Buckingham    Buckingham A     3760.0008    eV        0.000 10.000
                            Buckingham rho  0.22200000    Ang       
                            Buckingham C     0.0000000    eV*Ang^6  
--------------------------------------------------------------------------------
F    s F    s Buck 4 range  Buck4 A          1127.7000    eV        0.000 12.000
                            Buck4 rho       0.27530000    Ang       
                            Buck4 C          15.830000    eV*Ang^6  
                            Buck4 minimum    2.7900000    Ang       
--------------------------------------------------------------------------------
F    c F    s Spring (c-s)  Spring k 2       20.770000    eV*Ang^-2 0.000  0.800
                            Spring k 4       0.0000000    eV*Ang^-4 
--------------------------------------------------------------------------------

********************************************************************************
*  Output for configuration   1                                                *
********************************************************************************


  Components of energy : 

--------------------------------------------------------------------------------
  Interatomic potentials     =          28.18533740 eV    
  Monopole - monopole (real) =        -189.99568262 eV    
--------------------------------------------------------------------------------
  Total lattice energy       =        -161.81034522 eV    
--------------------------------------------------------------------------------
  Total lattice energy       =          -15612.2248 kJ/mol
--------------------------------------------------------------------------------


  Number of variables =       27

  Maximum number of calculations  =          2000
  Maximum Hessian update interval =            10
  Maximum step size               =   1.000000000
  Maximum parameter tolerance     =   0.000001000
  Maximum function  tolerance     =   0.000010000
  Maximum gradient  tolerance     =   0.000000010
  Maximum gradient  component     =   0.010000000

  Symmetry not applied to optimisation

  Newton-Raphson optimiser to be used

  BFGS hessian update to be used

  Lower half triangular hessian to be used

  Minimiser to switch to RFO
  When gradient norm is less than     0.010000

  Shell only optimisation

  Start of cluster optimisation :

  Cycle:      0 Energy:      -161.810345  Gnorm:      1.012258  CPU:    0.004
  ** Hessian calculated **
  Cycle:      1 Energy:      -174.570026  Gnorm:      0.369079  CPU:    0.005
  ** Hessian calculated **
  Cycle:      2 Energy:      -175.840775  Gnorm:      0.023973  CPU:    0.007
  Cycle:      3 Energy:      -175.845260  Gnorm:      0.006018  CPU:    0.008
  ** Hessian has required structure
  Cycle:      4 Energy:      -175.845304  Gnorm:      0.005953  CPU:    0.010
  ** Hessian has required structure
  Cycle:      5 Energy:      -175.845325  Gnorm:      0.005388  CPU:    0.011
  ** Hessian has required structure
  Cycle:      6 Energy:      -175.845327  Gnorm:      0.005373  CPU:    0.013
  ** Hessian has required structure
  Cycle:      7 Energy:      -175.845328  Gnorm:      0.005352  CPU:    0.014
  ** Hessian has required structure
  Cycle:      8 Energy:      -175.845329  Gnorm:      0.005310  CPU:    0.015
  ** Hessian has required structure
  Cycle:      9 Energy:      -175.845330  Gnorm:      0.005307  CPU:    0.017
  ** Hessian has required structure
  Cycle:     10 Energy:      -175.845336  Gnorm:      0.005202  CPU:    0.018
  ** Hessian has required structure
  Cycle:     11 Energy:      -175.845355  Gnorm:      0.004984  CPU:    0.019
  ** Hessian has required structure
  Cycle:     12 Energy:      -175.845570  Gnorm:      0.000009  CPU:    0.021
  ** Hessian has required structure
  Cycle:     13 Energy:      -175.845570  Gnorm:      0.000000  CPU:    0.022
  ** Hessian has required structure
  Cycle:     14 Energy:      -175.845570  Gnorm:      0.000000  CPU:    0.024
  ** Hessian has required structure
  Cycle:     15 Energy:      -175.845570  Gnorm:      0.000000  CPU:    0.025
  ** Hessian has required structure
  Cycle:     16 Energy:      -175.845570  Gnorm:      0.000000  CPU:    0.026
  ** Hessian has required structure
  Cycle:     17 Energy:      -175.845570  Gnorm:      0.000000  CPU:    0.028
  ** Hessian has required structure
  Cycle:     18 Energy:      -175.845570  Gnorm:      0.000000  CPU:    0.029
  ** Hessian has required structure
  Cycle:     19 Energy:      -175.845570  Gnorm:      0.000000  CPU:    0.031
  ** Hessian has required structure
  Cycle:     20 Energy:      -175.845570  Gnorm:      0.000000  CPU:    0.032
  ** Hessian has required structure
  Cycle:     21 Energy:      -175.845570  Gnorm:      0.000000  CPU:    0.034
  ** Hessian calculated **

  XYZ File written as 002/5/sp_mod_80/sp_mod_80_eig.xyz



  **** Optimisation achieved ****


  Final energy =    -175.84556995 eV
  Final Gnorm  =       0.00000007

  Components of energy : 

--------------------------------------------------------------------------------
  Interatomic potentials     =          43.92057424 eV    
  Monopole - monopole (real) =        -219.76614418 eV    
--------------------------------------------------------------------------------
  Total lattice energy       =        -175.84556995 eV    
--------------------------------------------------------------------------------
  Total lattice energy       =          -16966.4095 kJ/mol
--------------------------------------------------------------------------------

  Final cartesian coordinates of atoms :

--------------------------------------------------------------------------------
   No.  Atomic        x           y          z          Radius
        Label       (Angs)      (Angs)     (Angs)       (Angs) 
--------------------------------------------------------------------------------
     1  Al    c     0.300598   -0.288786    2.049592    0.000000
     2  Al    c     2.195599   -1.718902   -0.417831    0.000000
     3  Al    c    -0.775213   -1.757055   -0.850625    0.000000
     4  F     c     3.549142   -0.418580   -1.151570    0.000000
     5  F     c    -1.895462   -0.488503   -1.944750    0.000000
     6  F     c     2.770751   -3.700575   -0.493258    0.000000
     7  F     c    -1.254927   -3.752275   -1.079726    0.000000
     8  F     c     2.071345   -1.519626    1.044896    0.000000
     9  F     c     0.828250   -1.520019   -1.463819    0.000000
    10  F     c     0.147749   -1.092903    3.169675    0.000000
    11  F     c     0.399064    0.863091    1.272145    0.000000
    12  F     c    -1.078435   -1.560077    0.586030    0.000000
    13  F     s     3.278296   -0.658243   -1.005380    0.000000
    14  F     s    -1.671634   -0.721814   -1.726495    0.000000
    15  F     s     2.642202   -3.304716   -0.471389    0.000000
    16  F     s    -1.147955   -3.353391   -1.023546    0.000000
    17  F     s     1.832155   -1.365126    1.046305    0.000000
    18  F     s     0.795185   -1.562570   -1.233103    0.000000
    19  F     s     0.140391   -1.058174    3.217121    0.000000
    20  F     s     0.397094    0.891818    1.283138    0.000000
    21  F     s    -0.853550   -1.399617    0.655046    0.000000
--------------------------------------------------------------------------------


  Final Cartesian derivatives :

--------------------------------------------------------------------------------
   No.  Atomic          x             y             z           Radius
        Label       (eV/Angs)     (eV/Angs)    (eV/Angs)      (eV/Angs)
--------------------------------------------------------------------------------
      1 Al    c       0.000000      0.000000      0.000000      0.000000
      2 Al    c       0.000000      0.000000      0.000000      0.000000
      3 Al    c       0.000000      0.000000      0.000000      0.000000
      4 F     c       0.000000      0.000000      0.000000      0.000000
      5 F     c       0.000000      0.000000      0.000000      0.000000
      6 F     c       0.000000      0.000000      0.000000      0.000000
      7 F     c       0.000000      0.000000      0.000000      0.000000
      8 F     c       0.000000      0.000000      0.000000      0.000000
      9 F     c       0.000000      0.000000      0.000000      0.000000
     10 F     c       0.000000      0.000000      0.000000      0.000000
     11 F     c       0.000000      0.000000      0.000000      0.000000
     12 F     c       0.000000      0.000000      0.000000      0.000000
     13 F     s      -0.000000      0.000000     -0.000000      0.000000
     14 F     s       0.000000      0.000000     -0.000000      0.000000
     15 F     s       0.000000     -0.000001     -0.000000      0.000000
     16 F     s      -0.000000     -0.000001     -0.000000      0.000000
     17 F     s      -0.000000     -0.000000      0.000000      0.000000
     18 F     s       0.000000      0.000000     -0.000000      0.000000
     19 F     s      -0.000000     -0.000000      0.000000      0.000000
     20 F     s      -0.000000      0.000000     -0.000000      0.000000
     21 F     s       0.000000     -0.000000      0.000000      0.000000
--------------------------------------------------------------------------------
  Maximum abs         0.000000      0.000001      0.000000      0.000000
--------------------------------------------------------------------------------


  Born effective charge tensors : 

-------------------------------------------------------------------------------
  Atom             x           y             z
-------------------------------------------------------------------------------
    1 Al    x       2.5780     -0.1876      0.1214
            y      -0.2072      1.2621      1.5398
            z       0.1231      1.4054      1.6242
-------------------------------------------------------------------------------
    2 Al    x       1.0238      0.0399      0.1976
            y       0.0300      0.8694     -0.1439
            z       0.0475     -0.0527      0.5519
-------------------------------------------------------------------------------
    3 Al    x       1.0526     -0.0188     -0.0449
            y       0.0172      0.8685     -0.1489
            z       0.1030     -0.0606      0.5240
-------------------------------------------------------------------------------
    4 F     x      -0.3914      0.1399     -0.0163
            y       0.1199     -0.3655     -0.0754
            z      -0.0660     -0.0772     -0.4637
-------------------------------------------------------------------------------
    5 F     x      -0.4146     -0.1132      0.0325
            y      -0.0943     -0.3715     -0.1059
            z       0.0823     -0.1121     -0.4345
-------------------------------------------------------------------------------
    6 F     x      -0.5211     -0.0252      0.0528
            y      -0.0207     -0.3034     -0.0332
            z       0.0023      0.0012     -0.4976
-------------------------------------------------------------------------------
    7 F     x      -0.5053      0.0185     -0.0542
            y       0.0242     -0.3022     -0.0281
            z      -0.0045      0.0074     -0.5145
-------------------------------------------------------------------------------
    8 F     x      -0.6634      0.1408     -0.1041
            y       0.1063     -0.4072      0.0643
            z      -0.0210     -0.0028      0.0090
-------------------------------------------------------------------------------
    9 F     x      -0.0049      0.0092      0.0322
            y       0.0074     -0.2816     -0.0257
            z       0.0323     -0.0382     -0.2187
-------------------------------------------------------------------------------
   10 F     x      -0.7483      0.0772     -0.0996
            y       0.0577     -0.4434     -0.4244
            z      -0.0979     -0.5579     -0.0407
-------------------------------------------------------------------------------
   11 F     x      -0.7691      0.0595     -0.0273
            y       0.0861     -0.1112     -0.6492
            z      -0.0296     -0.4667     -0.5277
-------------------------------------------------------------------------------
   12 F     x      -0.6364     -0.1403     -0.0902
            y      -0.1266     -0.4138      0.0305
            z      -0.1715     -0.0457     -0.0115
-------------------------------------------------------------------------------




  Moment of inertia tensor (10^-46 x kgm^2): 

-------------------------------------------------------------------------------
                x           y           z           Principal axis system
-------------------------------------------------------------------------------
       x        154.24        3.27       -2.40          153.934375
       y          3.27      200.99      -26.61          156.796373
       z         -2.40      -26.61      172.75          217.249587
-------------------------------------------------------------------------------
  Centre of mass (Ang) =     0.601906    -1.397843     0.079098
-------------------------------------------------------------------------------


  Vibrational Frequency Calculation : 

--------------------------------------------------------------------------------

  Frequencies (cm-1) and Eigenvectors : 

  Frequency    -496.3041 -479.4180 -325.3619 -322.3607 -198.6323 -184.7071
  IR Intensity    0.2789    0.3809    0.0022    0.0002    0.0287    0.0084
     in X         0.2730    0.0049    0.0000    0.0002    0.0281    0.0000
     in Y         0.0000    0.1816    0.0008    0.0000    0.0000    0.0083
     in Z         0.0058    0.1944    0.0014    0.0000    0.0006    0.0000
  Raman Intsty    0.0000    0.6496    0.0188    0.0000    0.0000    0.1088

     1 x       0.774868 -0.083079 -0.003701  0.016620  0.033078 -0.008336
     1 y       0.009952  0.529956 -0.030000  0.000213  0.000427 -0.214381
     1 z       0.112885  0.523547  0.028049  0.002421  0.004818  0.076128
     2 x      -0.043533 -0.012611 -0.004802 -0.005697 -0.196871  0.024235
     2 y       0.003784  0.003255  0.032953 -0.021368 -0.237163  0.271089
     2 z       0.028379  0.008128  0.008735 -0.002390 -0.022172 -0.056307
     3 x      -0.033519  0.009683  0.001280 -0.006678 -0.200914 -0.013981
     3 y      -0.004773  0.003541  0.033031  0.021209  0.232049  0.270599
     3 z      -0.039604  0.011376  0.009621  0.000588 -0.035777 -0.061873
     4 x      -0.007775 -0.000265  0.001304 -0.001893 -0.115766  0.017783
     4 y      -0.001861 -0.002584  0.012736 -0.008914 -0.196737  0.212093
     4 z       0.024278 -0.012202  0.010347 -0.000576 -0.083020  0.020483
     5 x      -0.000571  0.003800 -0.004521 -0.002203 -0.139547 -0.028219
     5 y       0.001754 -0.002532  0.012661  0.008861  0.193454  0.211504
     5 z      -0.025493 -0.011610  0.009498 -0.000020  0.045826  0.013785
     6 x      -0.004638  0.002898  0.001012 -0.002492 -0.129858  0.033033
     6 y       0.013581 -0.002849  0.013406 -0.006079 -0.152655  0.184324
     6 z       0.032308 -0.016824 -0.013016  0.014646 -0.014720 -0.116366
     7 x       0.005114  0.002094  0.002407  0.001637 -0.132457 -0.003094
     7 y      -0.013575 -0.002859  0.013424  0.006068  0.149283  0.183861
     7 z      -0.032239 -0.016941 -0.012813 -0.014771 -0.023492 -0.121627
     8 x       0.014961  0.074255  0.020036 -0.024149  0.436861 -0.094439
     8 y       0.064909 -0.013889 -0.132495  0.108275  0.306534 -0.480114
     8 z       0.007631  0.020600  0.036424 -0.025650 -0.019467  0.058329
     9 x      -0.007388 -0.000182 -0.001178 -0.003538 -0.109381  0.001618
     9 y      -0.000095 -0.000177  0.009550 -0.000045 -0.001406  0.148723
     9 z      -0.001076  0.001263  0.007247 -0.000515 -0.015935 -0.024236
    10 x      -0.426943  0.032868 -0.068301  0.716938  0.051165  0.003010
    10 y      -0.005484 -0.415693  0.560883  0.009209  0.000660 -0.253753
    10 z      -0.062198 -0.188962  0.419376  0.104446  0.007454  0.001719
    11 x      -0.422445  0.063694  0.084104 -0.661625  0.152862 -0.017909
    11 y      -0.005426 -0.183203 -0.399955 -0.008499  0.001964 -0.118869
    11 z      -0.061543 -0.421059 -0.542040 -0.096389  0.022268  0.133417
    12 x       0.018143 -0.076672 -0.026255 -0.027732  0.420717  0.085931
    12 y      -0.064484 -0.015828 -0.133089 -0.108942 -0.295511 -0.477799
    12 z      -0.002808 -0.001387  0.029680  0.018092  0.144399  0.084607


  Frequency    -164.6798  -50.8268  -22.3618   -0.0000   -0.0000   -0.0000
  IR Intensity    0.0096    0.0011    0.0023    0.0000    0.0000    0.0000
     in X         0.0094    0.0000    0.0023    0.0000    0.0000    0.0000
     in Y         0.0000    0.0007    0.0000    0.0000    0.0000    0.0000
     in Z         0.0002    0.0004    0.0000    0.0000    0.0000    0.0000
  Raman Intsty    0.0000    0.4979    0.0000    0.0000    0.0000    0.0000

     1 x      -0.122997  0.007625 -0.281232  0.204464  0.116610  0.227344
     1 y      -0.001581  0.038944 -0.003612 -0.135308  0.296412 -0.030346
     1 z      -0.017918 -0.055778 -0.040971  0.216738  0.075041 -0.233415
     2 x       0.122740  0.043645  0.202751  0.204464  0.116610  0.227344
     2 y      -0.254355  0.080231 -0.149708 -0.135308  0.296412 -0.030346
     2 z       0.169120  0.031095 -0.201792  0.216738  0.075041 -0.233415
     3 x       0.159446 -0.052705  0.132931  0.204464  0.116610  0.227344
     3 y       0.257982  0.078994  0.154018 -0.135308  0.296412 -0.030346
     3 z      -0.128011  0.017060  0.250695  0.216738  0.075041 -0.233415
     4 x       0.105274 -0.068424  0.152387  0.171583  0.097857  0.190783
     4 y      -0.186385  0.150282 -0.132237 -0.113548  0.248743 -0.025466
     4 z       0.141786  0.021519 -0.214015  0.181882  0.062973 -0.195878
     5 x       0.136623  0.055640  0.081629  0.171583  0.097857  0.190783
     5 y       0.189494  0.151876  0.135242 -0.113548  0.248743 -0.025466
     5 z      -0.106546  0.039594  0.248107  0.181882  0.062973 -0.195878
     6 x       0.052317  0.217564  0.140557  0.171583  0.097857  0.190783
     6 y      -0.169235  0.099315 -0.128115 -0.113548  0.248743 -0.025466
     6 z       0.185836  0.130816 -0.242612  0.181882  0.062973 -0.195878
     7 x       0.098882 -0.248267  0.062242  0.171583  0.097857  0.190783
     7 y       0.171180  0.093333  0.130719 -0.113548  0.248743 -0.025466
     7 z      -0.163811  0.062954  0.272156  0.181882  0.062973 -0.195878
     8 x      -0.335628 -0.228866  0.099772  0.171583  0.097857  0.190783
     8 y       0.330013  0.026915 -0.108085 -0.113548  0.248743 -0.025466
     8 z      -0.018986 -0.010584 -0.168454  0.181882  0.062973 -0.195878
     9 x       0.201010  0.029667  0.044475  0.171583  0.097857  0.190783
     9 y       0.002583 -0.796706  0.000573 -0.113548  0.248743 -0.025466
     9 z       0.029284 -0.133408  0.006480  0.181882  0.062973 -0.195878
    10 x      -0.136361  0.010006 -0.314703  0.171583  0.097857  0.190783
    10 y      -0.001753  0.002653 -0.004042 -0.113548  0.248743 -0.025466
    10 z      -0.019865 -0.068922 -0.045847  0.181882  0.062973 -0.195878
    11 x       0.006875  0.012765 -0.376066  0.171583  0.097857  0.190783
    11 y       0.000087  0.003486 -0.004830 -0.113548  0.248743 -0.025466
    11 z       0.001002 -0.087931 -0.054786  0.181882  0.062973 -0.195878
    12 x      -0.318687  0.221624  0.044822  0.171583  0.097857  0.190783
    12 y      -0.338422  0.032701  0.109941 -0.113548  0.248743 -0.025466
    12 z      -0.076335  0.055045  0.189519  0.181882  0.062973 -0.195878


  Frequency      94.3669  108.5842  129.2026  160.6374  184.4522  207.0040
  IR Intensity    0.0045    0.0273    0.0267    0.0176    0.0012    0.0000
     in X         0.0044    0.0005    0.0261    0.0002    0.0000    0.0000
     in Y         0.0000    0.0061    0.0000    0.0113    0.0009    0.0000
     in Z         0.0001    0.0208    0.0006    0.0062    0.0003    0.0000
  Raman Intsty    0.0000    2.9355    0.0000    0.0111    0.4293    0.0000

     1 x       0.271867  0.055791 -0.316888 -0.031463 -0.005295 -0.007313
     1 y       0.003492 -0.103824 -0.004070  0.366478 -0.172906 -0.000094
     1 z       0.039607 -0.373800 -0.046166  0.183663  0.051591 -0.001067
     2 x      -0.068420  0.000416 -0.015894 -0.043178 -0.202124  0.007995
     2 y      -0.260328  0.010124 -0.013278 -0.082884  0.073307  0.010907
     2 z      -0.003820  0.099799  0.241817 -0.057983 -0.031123  0.022164
     3 x      -0.073190 -0.029123  0.053420  0.059994  0.200694  0.014257
     3 y       0.258509  0.009745  0.013760 -0.081559  0.078481 -0.010623
     3 z      -0.016811  0.095497 -0.236349 -0.042952  0.027560 -0.018922
     4 x       0.006961  0.079179  0.022692  0.066098 -0.193348 -0.127185
     4 y      -0.246653 -0.019992 -0.004921 -0.128054  0.111211 -0.123383
     4 z       0.080488  0.202065  0.266318  0.054263  0.020058 -0.451067
     5 x       0.023427 -0.133003  0.097587 -0.075589  0.176732 -0.253640
     5 y       0.247043 -0.022716  0.006466 -0.129874  0.115964  0.118495
     5 z      -0.076062  0.171155 -0.248794  0.033622  0.073971  0.395600
     6 x      -0.123502 -0.082532 -0.046878 -0.141958 -0.453175  0.117417
     6 y      -0.238139  0.000662 -0.037708 -0.104883 -0.019157  0.017432
     6 z      -0.058947  0.154502  0.165979 -0.104617  0.094141  0.480115
     7 x      -0.141134  0.034984  0.001485  0.168493  0.407823  0.249901
     7 y       0.234741  0.002172  0.037125 -0.100895 -0.008099 -0.012716
     7 z       0.020394  0.171623 -0.172590 -0.059391  0.219574 -0.426613
     8 x      -0.126962 -0.350870  0.283992 -0.426642  0.015063 -0.004918
     8 y      -0.442939  0.058833 -0.198407 -0.183599  0.110132 -0.132346
     8 z       0.025349  0.021473  0.285774 -0.082686 -0.017871  0.041648
     9 x      -0.022525 -0.020478  0.149551  0.031692  0.074298  0.022408
     9 y      -0.000290  0.286025  0.001921  0.034935 -0.089143  0.000285
     9 z      -0.003282  0.115350  0.021787 -0.220623 -0.502144  0.003264
    10 x       0.218514  0.054640 -0.200131 -0.018842 -0.007917 -0.001672
    10 y       0.002807 -0.140122 -0.002571  0.242743 -0.126307 -0.000021
    10 z       0.031834 -0.362703 -0.029157  0.107939  0.065476 -0.000245
    11 x       0.135558  0.057237 -0.324029 -0.022778  0.000642 -0.023949
    11 y       0.001741 -0.132377 -0.004162  0.301384 -0.179218 -0.000307
    11 z       0.019749 -0.381209 -0.047207  0.129784  0.011391 -0.003489
    12 x      -0.125555  0.328568  0.348631  0.436979 -0.012104  0.003836
    12 y       0.439695  0.067560  0.206532 -0.172508  0.109783  0.132334
    12 z      -0.062136  0.120456 -0.193612  0.043128 -0.021829 -0.041806


  Frequency     209.6000  216.3525  219.6377  234.8026  273.2079  281.4658
  IR Intensity    0.0023    0.0046    0.0015    0.0295    0.0080    0.0647
     in X         0.0000    0.0001    0.0014    0.0001    0.0001    0.0634
     in Y         0.0010    0.0003    0.0000    0.0255    0.0014    0.0000
     in Z         0.0012    0.0042    0.0000    0.0039    0.0065    0.0013
  Raman Intsty    0.0225    0.2175    0.0000    0.2313    0.1171    0.0000

     1 x      -0.011167 -0.037768  0.007942  0.012998 -0.002340  0.043874
     1 y      -0.015953 -0.252387  0.000103  0.074631  0.022451  0.000563
     1 z       0.078060  0.281496  0.001156 -0.095799  0.014081  0.006392
     2 x       0.008373  0.050379 -0.048675  0.021613 -0.109100  0.273943
     2 y       0.047930  0.082209 -0.233468  0.198604 -0.094366 -0.072116
     2 z      -0.010091 -0.067036  0.045165 -0.016952 -0.105141 -0.023912
     3 x      -0.006349 -0.031214 -0.039624 -0.020867  0.136897  0.253836
     3 y       0.047741  0.081162  0.232334  0.198058 -0.091207  0.078894
     3 z      -0.012237 -0.078923 -0.058028 -0.023140 -0.069304  0.100800
     4 x      -0.115202  0.288310 -0.415543  0.446459  0.007515 -0.158353
     4 y      -0.116088 -0.126732  0.200608 -0.246131 -0.016513  0.393584
     4 z      -0.510290  0.020149  0.083954 -0.000646  0.240047 -0.089608
     5 x       0.258857 -0.278798 -0.369145 -0.421386 -0.075262 -0.167385
     5 y      -0.111281 -0.134016 -0.210686 -0.257275 -0.017577 -0.397768
     5 z      -0.455785 -0.062469 -0.198270 -0.127075  0.227989  0.042153
     6 x       0.050212  0.098903  0.454709 -0.193442  0.356683 -0.332143
     6 y       0.042689  0.110088 -0.054886  0.114260  0.022402 -0.287805
     6 z       0.390788 -0.114477 -0.096563  0.204555  0.270597  0.064748
     7 x      -0.160654 -0.064872  0.406740  0.124115 -0.419500 -0.306999
     7 y       0.039980  0.107985  0.065950  0.118338  0.012434  0.279596
     7 z       0.360057 -0.138336  0.222062  0.250817  0.157522 -0.157859
     8 x      -0.158935 -0.200425 -0.010205  0.199352  0.115687  0.030400
     8 y      -0.039968  0.307181 -0.034941 -0.118004 -0.061390 -0.002239
     8 z      -0.018948 -0.141227  0.017803  0.056838 -0.085246 -0.061209
     9 x      -0.008364  0.009258  0.024648  0.017344  0.074286  0.234792
     9 y       0.190354  0.040968  0.000316 -0.222799  0.276683  0.003015
     9 z       0.040636 -0.067160  0.003591 -0.099411 -0.534308  0.034205
    10 x      -0.009228 -0.039946  0.007812  0.013320 -0.001896  0.001954
    10 y      -0.023739 -0.188492  0.000101  0.059179  0.017442  0.000025
    10 z       0.065434  0.290814  0.001137 -0.096647  0.011480  0.000285
    11 x      -0.004480 -0.014857  0.002320  0.002111 -0.002868  0.004923
    11 y      -0.041055 -0.323548  0.000031  0.114011  0.024869  0.000063
    11 z       0.034372  0.130505  0.000338 -0.024538  0.017493  0.000717
    12 x       0.158689  0.224594 -0.005579 -0.204249 -0.084981  0.011609
    12 y      -0.035885  0.312640  0.034736 -0.123189 -0.063968  0.002778
    12 z       0.027323 -0.079310 -0.020102 -0.001959 -0.114480  0.067329


  Frequency     309.5373  327.1564  491.1211  533.2312  643.0868  650.5436
  IR Intensity    0.0163    0.0180    0.0073    0.0119    0.0039    0.0568
     in X         0.0159    0.0004    0.0002    0.0117    0.0038    0.0000
     in Y         0.0000    0.0000    0.0004    0.0000    0.0000    0.0552
     in Z         0.0003    0.0176    0.0068    0.0002    0.0001    0.0016
  Raman Intsty    0.0000    0.7627    1.9720    0.0000    0.0000    0.0005

     1 x       0.037436 -0.013999  0.003801  0.000775 -0.004551 -0.000508
     1 y       0.000481  0.018988 -0.017891  0.000010 -0.000058  0.000518
     1 z       0.005454  0.094418 -0.024513  0.000113 -0.000663  0.003440
     2 x       0.060044  0.214348  0.073724 -0.164233 -0.117361  0.059266
     2 y       0.053837 -0.048970  0.037775  0.103740 -0.453055 -0.483895
     2 z       0.308249 -0.231432  0.174042  0.067780  0.058361  0.082197
     3 x       0.146815 -0.138121 -0.121235 -0.135411 -0.107193 -0.068058
     3 y      -0.051180 -0.053496  0.035271 -0.107588  0.450152 -0.485548
     3 z      -0.278114 -0.282780  0.145640 -0.111433 -0.091071  0.063652
     4 x      -0.115526  0.141270  0.250747  0.262097  0.257629  0.173080
     4 y      -0.125670  0.336048  0.240015  0.201291  0.273302  0.216613
     4 z      -0.292600  0.084926 -0.188677 -0.140936 -0.139001 -0.104555
     5 x      -0.197316 -0.168030 -0.192459  0.215980  0.214055 -0.141462
     5 y       0.121653  0.332076  0.234323 -0.195152 -0.267235  0.212583
     5 z       0.247024  0.039866 -0.253243  0.210583  0.207712 -0.150385
     6 x      -0.078156 -0.123571  0.093187  0.152684 -0.073907 -0.105506
     6 y       0.065552 -0.239195 -0.366186 -0.409907  0.322528  0.383143
     6 z      -0.355094  0.254848 -0.064156 -0.033907  0.009459  0.006089
     7 x      -0.174529  0.051712 -0.061774  0.126309 -0.059999  0.089718
     7 y      -0.068797 -0.236943 -0.368175  0.413490 -0.324233  0.385663
     7 z       0.318282  0.280383 -0.086731  0.074551 -0.028965  0.034530
     8 x      -0.077347  0.027955 -0.030830 -0.056740 -0.019690 -0.009502
     8 y       0.057623 -0.029618  0.059045  0.055046 -0.033599 -0.027927
     8 z       0.302278 -0.275661  0.304983  0.242992  0.069971  0.062513
     9 x       0.298043 -0.036786  0.048295 -0.372281 -0.048255  0.013792
     9 y       0.003827 -0.014260  0.080528 -0.004781 -0.000619  0.019405
     9 z       0.043420  0.253762 -0.338607 -0.054234 -0.007032 -0.096379
    10 x       0.027783 -0.012777  0.002814  0.006013  0.000242 -0.001455
    10 y       0.000357 -0.000531 -0.000297  0.000077  0.000003 -0.002553
    10 z       0.004047  0.087752 -0.019288  0.000876  0.000035  0.010214
    11 x       0.012368 -0.006523  0.001052  0.005744  0.002688  0.000444
    11 y       0.000159 -0.018800 -0.003662  0.000074  0.000034 -0.004410
    11 z       0.001802  0.046436 -0.006900  0.000837  0.000392 -0.002656
    12 x       0.013570  0.052596 -0.058946  0.016337  0.000249 -0.008026
    12 y      -0.058442 -0.029301  0.058684 -0.055565  0.033348 -0.027910
    12 z      -0.311570 -0.272070  0.300886 -0.248879 -0.072800  0.062730


  Frequency     708.5494  721.3551  740.8698  871.5603  877.4738 1096.6947
  IR Intensity    0.0376    0.0025    0.0004    0.0137    0.0026    0.0048
     in X         0.0368    0.0000    0.0000    0.0003    0.0026    0.0000
     in Y         0.0000    0.0011    0.0003    0.0000    0.0000    0.0041
     in Z         0.0008    0.0014    0.0000    0.0134    0.0001    0.0007
  Raman Intsty    0.0000    0.1756    0.2757    0.0969    0.0000    0.0003

     1 x      -0.017374  0.019861  0.002489  0.000408 -0.010368 -0.072022
     1 y      -0.000223 -0.133451 -0.018955  0.016581 -0.000134 -0.547178
     1 z      -0.002531 -0.124563 -0.015416 -0.004262 -0.001510  0.542617
     2 x      -0.413523  0.025594 -0.617769 -0.010877  0.023066  0.008974
     2 y       0.088158  0.004412 -0.031226 -0.056080  0.041243 -0.005261
     2 z      -0.003738  0.001750 -0.041050 -0.517592  0.512389 -0.020373
     3 x      -0.395050 -0.025132  0.604394  0.159491  0.169293 -0.002654
     3 y      -0.098543  0.003760 -0.015530 -0.053894 -0.038770 -0.005410
     3 z      -0.114056 -0.005640  0.136997 -0.492802 -0.484335 -0.022066
     4 x       0.121690 -0.008789  0.189521 -0.028941  0.026122 -0.000743
     4 y       0.077962 -0.007275  0.138185 -0.026398  0.025591 -0.000708
     4 z      -0.046058  0.003499 -0.079935  0.047660 -0.046661  0.000207
     5 x       0.105415  0.007606 -0.162257  0.014798  0.012360  0.000670
     5 y      -0.075045 -0.007064  0.133668 -0.025837 -0.025095 -0.000690
     5 z       0.079143  0.005887 -0.131183  0.054035  0.052264  0.000412
     6 x       0.059717 -0.002722  0.074832 -0.003955  0.003915 -0.001304
     6 y      -0.102239  0.000612 -0.054739  0.024346 -0.018323  0.002250
     6 z      -0.005144 -0.000240 -0.002956  0.037017 -0.033903  0.002529
     7 x       0.053177  0.002661 -0.069479 -0.007383 -0.006381  0.000471
     7 y       0.103688  0.000681 -0.056593  0.024303  0.018290  0.002273
     7 z       0.021591  0.000544 -0.023980  0.036520  0.033541  0.002787
     8 x       0.004807  0.002912 -0.019402 -0.071072  0.066894 -0.005670
     8 y      -0.034059  0.003910 -0.016320  0.082905 -0.080978  0.019116
     8 z      -0.201859  0.008554 -0.063812  0.453188 -0.429470  0.004569
     9 x       0.688480  0.001657 -0.038556 -0.013908 -0.260661 -0.000011
     9 y       0.008842  0.002802 -0.069113 -0.023513 -0.003347  0.000246
     9 z       0.100300 -0.011620  0.270737  0.097484 -0.037977  0.000056
    10 x       0.002347 -0.074211 -0.001442 -0.002400  0.003293  0.050533
    10 y       0.000030 -0.414480 -0.013675 -0.007550  0.000043  0.257280
    10 z       0.000342  0.545946  0.011104  0.017139  0.000479 -0.369551
    11 x       0.002431  0.051999  0.002550 -0.001449 -0.001959  0.030698
    11 y       0.000031  0.566297  0.032483 -0.019977 -0.000025  0.365750
    11 z       0.000354 -0.406855 -0.020369  0.011709 -0.000286 -0.242966
    12 x      -0.053834 -0.005329  0.037203 -0.063270 -0.060451  0.003648
    12 y       0.033429  0.003804 -0.015593  0.083010  0.081056  0.019236
    12 z       0.194717  0.007353 -0.055567  0.454350  0.430381  0.005926




--------------------------------------------------------------------------------
  Vibrational properties (for cluster):  Temperature  =       0.000 K
--------------------------------------------------------------------------------
  Zero point energy            =        0.637934 eV
--------------------------------------------------------------------------------

  Phonon density of states : 

--------------------------------------------------------------------------------
 Frequency (cm-1) Density of States                                             
--------------------------------------------------------------------------------
    0.00000 |                                                              0.000
   17.13586 |                                                              0.000
   34.27171 |                                                              0.000
   51.40757 |                                                              0.000
   68.54342 |                                                              0.000
   85.67928 |***************                                               0.042
  102.81514 |***************                                               0.042
  119.95099 |***************                                               0.042
  137.08685 |                                                              0.000
  154.22270 |***************                                               0.042
  171.35856 |***************                                               0.042
  188.49442 |                                                              0.000
  205.63027 |************************************************************  0.167
  222.76613 |***************                                               0.042
  239.90199 |                                                              0.000
  257.03784 |***************                                               0.042
  274.17370 |***************                                               0.042
  291.30955 |                                                              0.000
  308.44541 |***************                                               0.042
  325.58127 |***************                                               0.042
  342.71712 |                                                              0.000
  359.85298 |                                                              0.000
  376.98883 |                                                              0.000
  394.12469 |                                                              0.000
  411.26055 |                                                              0.000
  428.39640 |                                                              0.000
  445.53226 |                                                              0.000
  462.66811 |                                                              0.000
  479.80397 |***************                                               0.042
  496.93983 |                                                              0.000
  514.07568 |                                                              0.000
  531.21154 |***************                                               0.042
  548.34739 |                                                              0.000
  565.48325 |                                                              0.000
  582.61911 |                                                              0.000
  599.75496 |                                                              0.000
  616.89082 |                                                              0.000
  634.02667 |******************************                                0.083
  651.16253 |                                                              0.000
  668.29839 |                                                              0.000
  685.43424 |                                                              0.000
  702.57010 |***************                                               0.042
  719.70596 |***************                                               0.042
  736.84181 |***************                                               0.042
  753.97767 |                                                              0.000
  771.11352 |                                                              0.000
  788.24938 |                                                              0.000
  805.38524 |                                                              0.000
  822.52109 |                                                              0.000
  839.65695 |                                                              0.000
  856.79280 |***************                                               0.042
  873.92866 |***************                                               0.042
  891.06452 |                                                              0.000
  908.20037 |                                                              0.000
  925.33623 |                                                              0.000
  942.47208 |                                                              0.000
  959.60794 |                                                              0.000
  976.74380 |                                                              0.000
  993.87965 |                                                              0.000
 1011.01551 |                                                              0.000
 1028.15136 |                                                              0.000
 1045.28722 |                                                              0.000
 1062.42308 |                                                              0.000
 1079.55893 |***************                                               0.042
--------------------------------------------------------------------------------



  Time to end of optimisation =       0.0438 seconds


  Peak dynamic memory used =       0.65 MB 


  Timing analysis for GULP :

--------------------------------------------------------------------------------
  Task / Subroutine                                          Time (Seconds)
--------------------------------------------------------------------------------
  Calculation of real space energy and derivatives                0.0032
  Calculation of phonons                                          0.0018
  Calculation and manipulation of Hessian matrix                  0.0022
--------------------------------------------------------------------------------
  Total CPU time                                                  0.0439
--------------------------------------------------------------------------------


  Job Finished at 14:38.59 25th May        2022                               

