12
Properties=species:S:1:pos:R:3:forces:R:3 energy=-185.62606387 pbc="F F F"
Al    0.510887772    -2.243621411    -2.313730261    0.530771    0.886382    -0.541987
Al    1.97434033    -0.542259056    -0.6160986239999999    -0.387553    -0.253222    0.124276
Al    -0.430048206    0.31711750299999997    -1.6012996830000001    -0.014033    -0.429981    0.324195
F    3.714782488    -0.253628216    -0.153425623    0.23266    0.049595    -0.066702
F    -0.505512974    -3.8957100930000004    -1.333324236    -0.397068    -0.807461    0.255022
F    2.3060802380000003    -1.7485356760000001    -2.4527549889999998    -0.012216    0.071655    0.021187
F    1.4008912949999999    0.521171539    -2.08526302    0.006222    0.040114    0.038156
F    -1.486286622    1.602115331    -2.365397711    -0.073696    0.190159    -0.219813
F    -1.0324756860000002    -1.391513852    -1.2255205690000002    0.037288    0.094688    0.001601
F    -0.086748974    -0.891705709    -3.445251981    0.037279    0.052385    0.043991
F    0.41763039599999996    0.42111199800000004    0.204304598    0.000653    0.010274    0.016878
F    1.101297534    -2.1515152100000003    -0.340673173    0.039693    0.095409    0.003195
