********************************************************************************
*                       GENERAL UTILITY LATTICE PROGRAM                        *
*                                 Julian Gale                                  *
*                       Curtin Institute for Computation                       *
*                           Department of Chemistry                            *
*                    Curtin University, Western Australia                      *
********************************************************************************
* Version = 5.1.1 * Last modified =  24th November 2018                        *
********************************************************************************
*  optimise     - perform optimisation run                                     *
*  conp         - constant pressure calculation                                *
*  shell        - only shells and radii to be optimised                        *
*  phonon       - calculate phonons for final geometry                         *
*  eigenvectors - output phonon eigenvectors                                   *
********************************************************************************

  Job Started  at 14:40.10 25th May        2022                               

  Number of CPUs =     1

  Host name      = login03                                 


  Total number of configurations input =      1

********************************************************************************
*  Input for Configuration =   1                                               *
********************************************************************************

  Formula = Al3F9                                                       

  Number of irreducible atoms/shells =      21


  Total number atoms/shells =      21

  Dimensionality = 0               :  Cluster


  Charge on cluster =  -0.000000


  Initial cluster dipoles : x =      2.327009 e.Angs
                            y =     -0.230676 e.Angs
                            z =     -2.483934 e.Angs

  Temperature of configuration =  0.000     K 

  Symmetry number =      1

  Cartesian coordinates of cluster :

--------------------------------------------------------------------------------
   No.  Atomic       x           y          z         Charge      Occupancy
        Label      (Angs)      (Angs)     (Angs)        (e)         (Frac)  
--------------------------------------------------------------------------------
      1 Al    c     -1.2489      2.6513     -1.7259     3.00000    1.000000    
      2 Al    c     -0.5029      0.1304     -2.3794     3.00000    1.000000    
      3 Al    c     -2.1494     -0.4528     -0.5713     3.00000    1.000000    
      4 F     c     -0.7743      3.6823     -0.1433     0.59000    1.000000    
      5 F     c     -3.0339      3.1729     -2.2974     0.59000    1.000000    
      6 F     c     -1.4089     -1.6814     -1.6860     0.59000    1.000000    
      7 F     c     -2.7100      1.2623      0.3382     0.59000    1.000000    
      8 F     c     -3.2483     -1.2840      0.6038     0.59000    1.000000    
      9 F     c      0.6235     -0.5348     -3.6454     0.59000    1.000000    
     10 F     c     -0.6277      1.9858     -2.1128     0.59000    1.000000    
     11 F     c     -2.4993      0.4653     -2.2554     0.59000    1.000000    
     12 F     c     -0.3516      0.1488     -0.3475     0.59000    1.000000    
     13 F     s     -0.7743 *    3.6823 *   -0.1433 *  -1.59000    1.000000    
     14 F     s     -3.0339 *    3.1729 *   -2.2974 *  -1.59000    1.000000    
     15 F     s     -1.4089 *   -1.6814 *   -1.6860 *  -1.59000    1.000000    
     16 F     s     -2.7100 *    1.2623 *    0.3382 *  -1.59000    1.000000    
     17 F     s     -3.2483 *   -1.2840 *    0.6038 *  -1.59000    1.000000    
     18 F     s      0.6235 *   -0.5348 *   -3.6454 *  -1.59000    1.000000    
     19 F     s     -0.6277 *    1.9858 *   -2.1128 *  -1.59000    1.000000    
     20 F     s     -2.4993 *    0.4653 *   -2.2554 *  -1.59000    1.000000    
     21 F     s     -0.3516 *    0.1488 *   -0.3475 *  -1.59000    1.000000    
--------------------------------------------------------------------------------


  Brillouin zone sampling points :

--------------------------------------------------------------------------------
  Point number          x          y          z            Weight
--------------------------------------------------------------------------------
        1           0.000000   0.000000   0.000000     1.00000000
--------------------------------------------------------------------------------


********************************************************************************
*  General input information                                                   *
********************************************************************************

  Species output for all configurations : 

--------------------------------------------------------------------------------
  Species    Type    Atomic    Atomic    Charge       Radii (Angs)     Library
                     Number     Mass       (e)     Cova   Ionic  VDW   Symbol
--------------------------------------------------------------------------------
    Al       Core       13      26.98   3.000000   1.350  0.000  2.050          
    F        Core        9      19.00   0.590000   0.710  0.000  1.300          
    F        Shell       9       0.00  -1.590000   0.710  0.000  1.300          
--------------------------------------------------------------------------------


  Accuracy factor for short range sums = 12.000

  Time limit = Infinity

  Maximum range for interatomic potentials =    100000.000000 Angstroms

  General interatomic potentials :

--------------------------------------------------------------------------------
Atom  Types   Potential      Parameter       Value         Units   Cutoffs(Ang)
  1     2                                                            Min /  Max 
--------------------------------------------------------------------------------
Al   c F    s Buckingham    Buckingham A     3760.0008    eV        0.000 10.000
                            Buckingham rho  0.22200000    Ang       
                            Buckingham C     0.0000000    eV*Ang^6  
--------------------------------------------------------------------------------
F    s F    s Buck 4 range  Buck4 A          1127.7000    eV        0.000 12.000
                            Buck4 rho       0.27530000    Ang       
                            Buck4 C          15.830000    eV*Ang^6  
                            Buck4 minimum    2.7900000    Ang       
--------------------------------------------------------------------------------
F    c F    s Spring (c-s)  Spring k 2       20.770000    eV*Ang^-2 0.000  0.800
                            Spring k 4       0.0000000    eV*Ang^-4 
--------------------------------------------------------------------------------

********************************************************************************
*  Output for configuration   1                                                *
********************************************************************************


  Components of energy : 

--------------------------------------------------------------------------------
  Interatomic potentials     =          51.49816694 eV    
  Monopole - monopole (real) =        -185.22803521 eV    
--------------------------------------------------------------------------------
  Total lattice energy       =        -133.72986828 eV    
--------------------------------------------------------------------------------
  Total lattice energy       =          -12902.8880 kJ/mol
--------------------------------------------------------------------------------


  Number of variables =       27

  Maximum number of calculations  =          2000
  Maximum Hessian update interval =            10
  Maximum step size               =   1.000000000
  Maximum parameter tolerance     =   0.000001000
  Maximum function  tolerance     =   0.000010000
  Maximum gradient  tolerance     =   0.000000010
  Maximum gradient  component     =   0.010000000

  Symmetry not applied to optimisation

  Newton-Raphson optimiser to be used

  BFGS hessian update to be used

  Lower half triangular hessian to be used

  Minimiser to switch to RFO
  When gradient norm is less than     0.010000

  Shell only optimisation

  Start of cluster optimisation :

  Cycle:      0 Energy:      -133.729868  Gnorm:      5.436408  CPU:    0.004
  ** Hessian calculated **
  Cycle:      1 Energy:      -164.964622  Gnorm:      2.461319  CPU:    0.006
  ** Hessian calculated **
  Cycle:      2 Energy:      -171.888398  Gnorm:      0.448886  CPU:    0.008
  ** Hessian calculated **
  Cycle:      3 Energy:      -173.088934  Gnorm:      0.081305  CPU:    0.010
  Cycle:      4 Energy:      -173.115409  Gnorm:      0.031775  CPU:    0.012
  Cycle:      5 Energy:      -173.122558  Gnorm:      0.002917  CPU:    0.013
  ** Hessian has required structure
  Cycle:      6 Energy:      -173.122586  Gnorm:      0.001617  CPU:    0.015
  ** Hessian has required structure
  Cycle:      7 Energy:      -173.122610  Gnorm:      0.000664  CPU:    0.017
  ** Hessian has required structure
  Cycle:      8 Energy:      -173.122614  Gnorm:      0.000485  CPU:    0.018
  ** Hessian has required structure
  Cycle:      9 Energy:      -173.122616  Gnorm:      0.000218  CPU:    0.020
  ** Hessian has required structure
  Cycle:     10 Energy:      -173.122616  Gnorm:      0.000115  CPU:    0.021
  ** Hessian has required structure
  Cycle:     11 Energy:      -173.122616  Gnorm:      0.000082  CPU:    0.023
  ** Hessian has required structure
  Cycle:     12 Energy:      -173.122616  Gnorm:      0.000039  CPU:    0.024
  ** Hessian has required structure
  Cycle:     13 Energy:      -173.122616  Gnorm:      0.000000  CPU:    0.026
  ** Hessian has required structure
  Cycle:     14 Energy:      -173.122616  Gnorm:      0.000000  CPU:    0.028
  ** Hessian has required structure
  Cycle:     15 Energy:      -173.122616  Gnorm:      0.000000  CPU:    0.029
  ** Hessian has required structure
  Cycle:     16 Energy:      -173.122616  Gnorm:      0.000000  CPU:    0.030
  ** Hessian has required structure
  Cycle:     17 Energy:      -173.122616  Gnorm:      0.000000  CPU:    0.032
  ** Hessian has required structure
  Cycle:     18 Energy:      -173.122616  Gnorm:      0.000000  CPU:    0.033
  ** Hessian has required structure
  Cycle:     19 Energy:      -173.122616  Gnorm:      0.000000  CPU:    0.035
  ** Hessian has required structure
  Cycle:     20 Energy:      -173.122616  Gnorm:      0.000000  CPU:    0.037
  ** Hessian calculated **

  XYZ File written as 005/5/sp_mod_-90/sp_mod_-90_eig.xyz



  **** Optimisation achieved ****


  Final energy =    -173.12261619 eV
  Final Gnorm  =       0.00000005

  Components of energy : 

--------------------------------------------------------------------------------
  Interatomic potentials     =          45.93114686 eV    
  Monopole - monopole (real) =        -219.05376305 eV    
--------------------------------------------------------------------------------
  Total lattice energy       =        -173.12261619 eV    
--------------------------------------------------------------------------------
  Total lattice energy       =          -16703.6860 kJ/mol
--------------------------------------------------------------------------------

  Final cartesian coordinates of atoms :

--------------------------------------------------------------------------------
   No.  Atomic        x           y          z          Radius
        Label       (Angs)      (Angs)     (Angs)       (Angs) 
--------------------------------------------------------------------------------
     1  Al    c    -1.248894    2.651276   -1.725922    0.000000
     2  Al    c    -0.502908    0.130380   -2.379358    0.000000
     3  Al    c    -2.149361   -0.452801   -0.571274    0.000000
     4  F     c    -0.774298    3.682291   -0.143294    0.000000
     5  F     c    -3.033854    3.172904   -2.297368    0.000000
     6  F     c    -1.408886   -1.681430   -1.685997    0.000000
     7  F     c    -2.710031    1.262314    0.338160    0.000000
     8  F     c    -3.248316   -1.283953    0.603836    0.000000
     9  F     c     0.623517   -0.534850   -3.645360    0.000000
    10  F     c    -0.627659    1.985803   -2.112750    0.000000
    11  F     c    -2.499342    0.465328   -2.255410    0.000000
    12  F     c    -0.351629    0.148831   -0.347545    0.000000
    13  F     s    -0.802972    3.482113   -0.473106    0.000000
    14  F     s    -2.665547    3.072729   -2.253078    0.000000
    15  F     s    -1.401456   -1.433527   -1.659027    0.000000
    16  F     s    -2.559873    1.073455    0.112613    0.000000
    17  F     s    -3.070549   -1.236793    0.399924    0.000000
    18  F     s     0.441600   -0.425992   -3.449887    0.000000
    19  F     s    -0.403656    1.711485   -2.317552    0.000000
    20  F     s    -2.194552    0.442095   -2.157001    0.000000
    21  F     s    -0.491417    0.135859   -0.622493    0.000000
--------------------------------------------------------------------------------


  Final Cartesian derivatives :

--------------------------------------------------------------------------------
   No.  Atomic          x             y             z           Radius
        Label       (eV/Angs)     (eV/Angs)    (eV/Angs)      (eV/Angs)
--------------------------------------------------------------------------------
      1 Al    c       0.000000      0.000000      0.000000      0.000000
      2 Al    c       0.000000      0.000000      0.000000      0.000000
      3 Al    c       0.000000      0.000000      0.000000      0.000000
      4 F     c       0.000000      0.000000      0.000000      0.000000
      5 F     c       0.000000      0.000000      0.000000      0.000000
      6 F     c       0.000000      0.000000      0.000000      0.000000
      7 F     c       0.000000      0.000000      0.000000      0.000000
      8 F     c       0.000000      0.000000      0.000000      0.000000
      9 F     c       0.000000      0.000000      0.000000      0.000000
     10 F     c       0.000000      0.000000      0.000000      0.000000
     11 F     c       0.000000      0.000000      0.000000      0.000000
     12 F     c       0.000000      0.000000      0.000000      0.000000
     13 F     s      -0.000000      0.000000     -0.000000      0.000000
     14 F     s      -0.000000     -0.000001     -0.000000      0.000000
     15 F     s       0.000000     -0.000000      0.000000      0.000000
     16 F     s      -0.000000      0.000000     -0.000000      0.000000
     17 F     s      -0.000000      0.000000     -0.000000      0.000000
     18 F     s      -0.000000      0.000000      0.000000      0.000000
     19 F     s      -0.000000      0.000000     -0.000000      0.000000
     20 F     s      -0.000000      0.000000      0.000000      0.000000
     21 F     s       0.000000      0.000000     -0.000000      0.000000
--------------------------------------------------------------------------------
  Maximum abs         0.000000      0.000001      0.000000      0.000000
--------------------------------------------------------------------------------


  Born effective charge tensors : 

-------------------------------------------------------------------------------
  Atom             x           y             z
-------------------------------------------------------------------------------
    1 Al    x       0.8142      0.8409     -0.0692
            y       0.6913      2.0132     -0.5967
            z      -0.0917     -0.7909      1.1827
-------------------------------------------------------------------------------
    2 Al    x       1.1953     -0.1086     -0.0570
            y       0.1052      1.0091     -0.1575
            z      -0.0344      0.0285      1.1222
-------------------------------------------------------------------------------
    3 Al    x       0.8611     -0.1354      0.2686
            y      -0.1520      0.7295     -0.0651
            z       0.2668     -0.0068      0.8703
-------------------------------------------------------------------------------
    4 F     x      -0.4199      0.0334      0.1216
            y       0.0463     -0.4284      0.2343
            z       0.1062      0.1701     -0.1944
-------------------------------------------------------------------------------
    5 F     x      -0.1133     -0.0876      0.1260
            y      -0.1510     -0.5692     -0.0185
            z       0.1501      0.0128     -0.4101
-------------------------------------------------------------------------------
    6 F     x      -0.3542     -0.1678      0.0259
            y      -0.1903     -0.5265      0.2691
            z       0.0022      0.1589     -0.2802
-------------------------------------------------------------------------------
    7 F     x      -0.5191     -0.0354      0.1346
            y      -0.0416     -0.5155      0.0819
            z       0.1367      0.0661     -0.6020
-------------------------------------------------------------------------------
    8 F     x      -0.3489      0.1488     -0.2071
            y       0.1653     -0.3830     -0.1619
            z      -0.2078     -0.1382     -0.3128
-------------------------------------------------------------------------------
    9 F     x      -0.3193     -0.1656     -0.2516
            y      -0.1323     -0.4242      0.1632
            z      -0.2450      0.1692     -0.2411
-------------------------------------------------------------------------------
   10 F     x      -0.1335     -0.2104     -0.1631
            y      -0.2536      0.0934      0.2113
            z      -0.1715      0.2063     -0.3471
-------------------------------------------------------------------------------
   11 F     x      -0.3074     -0.1234      0.0493
            y      -0.0976     -0.5727      0.0440
            z       0.0236      0.0233     -0.4095
-------------------------------------------------------------------------------
   12 F     x      -0.3549      0.0112      0.0221
            y       0.0103     -0.4255     -0.0040
            z       0.0648      0.1006     -0.3780
-------------------------------------------------------------------------------




  Moment of inertia tensor (10^-46 x kgm^2): 

-------------------------------------------------------------------------------
                x           y           z           Principal axis system
-------------------------------------------------------------------------------
       x        175.03        0.11       28.23          114.867293
       y          0.11      115.03        2.57          143.103288
       z         28.23        2.57      167.84          199.929803
-------------------------------------------------------------------------------
  Centre of mass (Ang) =    -1.475878     0.793681    -1.371526
-------------------------------------------------------------------------------


  Vibrational Frequency Calculation : 

--------------------------------------------------------------------------------

  Frequencies (cm-1) and Eigenvectors : 

  Frequency    -749.5015 -724.0792 -144.6832  -79.4379  -50.7487  -24.1658
  IR Intensity    0.1156    0.0576    0.0094    0.0002    0.0041    0.0004
     in X         0.0062    0.0244    0.0022    0.0000    0.0015    0.0003
     in Y         0.0545    0.0332    0.0033    0.0001    0.0025    0.0001
     in Z         0.0549    0.0000    0.0039    0.0000    0.0002    0.0000
  Raman Intsty    0.0001    0.0020    0.0529    0.0001    0.0016    0.0008

     1 x      -0.085335 -0.463100 -0.109475 -0.240216 -0.210107 -0.237283
     1 y      -0.396316 -0.354658 -0.050996 -0.026805 -0.036229  0.079910
     1 z       0.526423 -0.166569  0.348970 -0.210494 -0.138656  0.139246
     2 x       0.014125  0.065052 -0.002167  0.262269 -0.014556  0.093503
     2 y       0.083535  0.085522  0.017901 -0.038223 -0.019459  0.138848
     2 z      -0.050084  0.020948 -0.135054  0.235387 -0.037963 -0.028972
     3 x      -0.000520  0.014752  0.044920 -0.003981  0.214416  0.140338
     3 y      -0.008545 -0.008711 -0.016318  0.067229  0.018630 -0.175317
     3 z      -0.011570  0.015265 -0.172291 -0.007536  0.181591 -0.104899
     4 x       0.013848 -0.058376 -0.034978 -0.189008 -0.160662 -0.231184
     4 y      -0.003095 -0.064376  0.067725  0.021420 -0.031881  0.075695
     4 z       0.058069 -0.086675  0.182318 -0.202516 -0.116679  0.123514
     5 x       0.030668 -0.097018 -0.053266 -0.222572 -0.145586 -0.221218
     5 y      -0.020894  0.006818 -0.072900 -0.111729  0.067047  0.013889
     5 z       0.044197 -0.042815  0.160486 -0.162534 -0.125964  0.137088
     6 x       0.005867 -0.016012 -0.018645  0.255268 -0.325869  0.268300
     6 y       0.000653  0.010712 -0.152023 -0.055301  0.040324  0.073193
     6 z       0.006045 -0.013396  0.004980  0.287113 -0.203720 -0.243471
     7 x       0.015482 -0.003949  0.277349 -0.021176  0.278640 -0.030942
     7 y       0.014289  0.003720  0.275509  0.136476  0.075360 -0.245953
     7 z      -0.009763 -0.016294 -0.404751 -0.162293  0.094224  0.059348
     8 x      -0.000504 -0.002927 -0.030850 -0.020470  0.308667  0.201144
     8 y       0.007385  0.001554  0.342069  0.155957  0.095484 -0.383121
     8 z       0.004314  0.001432  0.069052  0.054114  0.334276 -0.194388
     9 x       0.004976 -0.009114  0.016796  0.309103 -0.015697  0.197841
     9 y      -0.009587  0.002518  0.059674 -0.065549 -0.045736  0.373792
     9 z       0.005356 -0.004284 -0.104773  0.294980 -0.017087 -0.056433
    10 x       0.002911  0.610531 -0.113149 -0.233630 -0.216846 -0.233197
    10 y       0.351960  0.333984 -0.080051 -0.037422 -0.052282  0.040388
    10 z      -0.644025  0.322565  0.340364 -0.185718 -0.128871  0.131347
    11 x       0.006799  0.037884 -0.023691  0.102724  0.026868  0.004713
    11 y       0.006157  0.045708 -0.210347 -0.198439  0.192430 -0.006877
    11 z       0.009375 -0.012262 -0.201783 -0.085317  0.217071  0.027877
    12 x       0.005429 -0.004269  0.059944 -0.001775  0.262695  0.048645
    12 y       0.036036 -0.009545 -0.170773  0.151963 -0.296588  0.007230
    12 z      -0.027403  0.007066 -0.095495  0.141488 -0.059177  0.008714


  Frequency      -0.0000    0.0000    0.0000   12.1444   76.7845  117.4397
  IR Intensity    0.0000    0.0000    0.0000    0.0049    0.0073    0.0375
     in X         0.0000    0.0000    0.0000    0.0014    0.0046    0.0007
     in Y         0.0000    0.0000    0.0000    0.0017    0.0001    0.0356
     in Z         0.0000    0.0000    0.0000    0.0018    0.0027    0.0012
  Raman Intsty    0.0000    0.0000    0.0000    0.0039    0.0006    0.3876

     1 x       0.079929 -0.078815  0.307390  0.025078 -0.064133 -0.073762
     1 y      -0.312428  0.035975  0.090463  0.028964  0.006767 -0.284806
     1 z       0.055580  0.315568  0.066460 -0.019731 -0.059352  0.044969
     2 x       0.079929 -0.078815  0.307390 -0.136892 -0.033006  0.057802
     2 y      -0.312428  0.035975  0.090463  0.021396  0.000223 -0.215718
     2 z       0.055580  0.315568  0.066460 -0.108818 -0.027140 -0.032380
     3 x       0.079929 -0.078815  0.307390  0.004154  0.213334  0.036815
     3 y      -0.312428  0.035975  0.090463 -0.009733 -0.009191  0.309725
     3 z       0.055580  0.315568  0.066460  0.024248  0.184841  0.001204
     4 x       0.067075 -0.066140  0.257956  0.016795 -0.054464 -0.079937
     4 y      -0.262184  0.030189  0.075915  0.030524  0.109063 -0.484413
     4 z       0.046641  0.264819  0.055772 -0.021357 -0.121264  0.197620
     5 x       0.067075 -0.066140  0.257956 -0.003170 -0.113667  0.034544
     5 y      -0.262184  0.030189  0.075915 -0.061494 -0.147632  0.040230
     5 z       0.046641  0.264819  0.055772 -0.011373 -0.014202 -0.010961
     6 x       0.067075 -0.066140  0.257956  0.151251  0.278766  0.173713
     6 y      -0.262184  0.030189  0.075915 -0.037536 -0.055514  0.312490
     6 z       0.046641  0.264819  0.055772  0.155006  0.270946 -0.065883
     7 x       0.067075 -0.066140  0.257956 -0.256804  0.310589 -0.079112
     7 y      -0.262184  0.030189  0.075915 -0.005903 -0.013181  0.238148
     7 z       0.046641  0.264819  0.055772 -0.155745  0.254212 -0.021955
     8 x       0.067075 -0.066140  0.257956  0.585474 -0.207362  0.094578
     8 y      -0.262184  0.030189  0.075915 -0.102862  0.066040  0.017329
     8 z       0.046641  0.264819  0.055772  0.497758 -0.152200 -0.143546
     9 x       0.067075 -0.066140  0.257956 -0.202989 -0.420804 -0.051204
     9 y      -0.262184  0.030189  0.075915  0.013643  0.057749 -0.052819
     9 z       0.046641  0.264819  0.055772 -0.167354 -0.401686 -0.199922
    10 x       0.067075 -0.066140  0.257956  0.049766 -0.041454 -0.105855
    10 y      -0.262184  0.030189  0.075915  0.035888  0.011319 -0.284880
    10 z       0.046641  0.264819  0.055772  0.000119 -0.041269  0.068814
    11 x       0.067075 -0.066140  0.257956 -0.109422 -0.058774 -0.006723
    11 y      -0.262184  0.030189  0.075915 -0.191611 -0.186087  0.213522
    11 z       0.046641  0.264819  0.055772 -0.100980  0.140631  0.048130
    12 x       0.067075 -0.066140  0.257956 -0.102608  0.168707 -0.004855
    12 y      -0.262184  0.030189  0.075915  0.270940  0.160868  0.227757
    12 z       0.046641  0.264819  0.055772 -0.071786 -0.052365  0.111266


  Frequency     153.4314  165.3235  189.2852  194.9087  226.5734  257.0262
  IR Intensity    0.0169    0.0073    0.0107    0.0263    0.0708    0.0435
     in X         0.0087    0.0012    0.0031    0.0004    0.0240    0.0017
     in Y         0.0024    0.0037    0.0075    0.0173    0.0294    0.0414
     in Z         0.0058    0.0025    0.0001    0.0086    0.0174    0.0004
  Raman Intsty    0.0356    0.0038    0.0000    0.0796    0.0452    0.0045

     1 x       0.054769  0.033113 -0.035326  0.121248  0.165817  0.071921
     1 y       0.095742  0.046746  0.100136 -0.155891  0.101222  0.141566
     1 z       0.021685  0.029192  0.090261  0.187398 -0.096293 -0.109608
     2 x       0.207419 -0.273769  0.095465 -0.061834  0.181847 -0.043176
     2 y       0.079874  0.058183  0.125505 -0.155287  0.112764  0.044726
     2 z       0.226946 -0.267497  0.012313  0.020559 -0.079277  0.170173
     3 x      -0.066224  0.125433  0.072027 -0.051192 -0.023181 -0.126507
     3 y      -0.120790 -0.028471 -0.014053  0.109413  0.077759  0.192512
     3 z      -0.038313  0.097945 -0.093863  0.001564 -0.059938 -0.008102
     4 x      -0.336742 -0.310711 -0.217322 -0.253751 -0.365681 -0.031032
     4 y      -0.120766 -0.166543  0.222359  0.514745 -0.118051 -0.163235
     4 z       0.280754  0.264045  0.064568 -0.141502  0.215584  0.119776
     5 x       0.253144  0.173834 -0.009808  0.174830 -0.144850 -0.069586
     5 y       0.204056  0.076080  0.155083 -0.482248 -0.495499 -0.162332
     5 z      -0.460043 -0.369666  0.062872 -0.323658  0.274933  0.050546
     6 x       0.021421  0.015911  0.112694 -0.002245 -0.211539 -0.239943
     6 y      -0.132377 -0.040840  0.039351  0.161067 -0.044068 -0.007105
     6 z       0.094968  0.056045 -0.068943 -0.123451  0.022834  0.148168
     7 x      -0.107397  0.185059  0.046908 -0.018896 -0.114388  0.371031
     7 y      -0.069388 -0.041676 -0.007422  0.134148 -0.150827  0.347143
     7 z      -0.137781  0.163383 -0.097722  0.028563  0.179536 -0.048008
     8 x      -0.054383 -0.045638  0.106867  0.066436 -0.010031  0.194511
     8 y       0.027228  0.024300 -0.153822 -0.079521  0.211410 -0.490659
     8 z       0.077430 -0.020824 -0.153563 -0.039564  0.067571 -0.201945
     9 x      -0.240211  0.268186 -0.296130  0.047155  0.049729 -0.110883
     9 y       0.173037 -0.070081 -0.753548  0.056654 -0.045352  0.107890
     9 z      -0.224815  0.282978  0.144145 -0.002405 -0.104710  0.090179
    10 x       0.012727  0.064684 -0.054473  0.097976  0.101232  0.084271
    10 y       0.083098  0.045956  0.065182 -0.120395  0.040399  0.137753
    10 z      -0.035225  0.064017  0.086451  0.115490 -0.066404 -0.110108
    11 x       0.205279 -0.231867  0.099321 -0.053087  0.276122 -0.058140
    11 y       0.001329 -0.165509  0.109994  0.099468  0.135258 -0.136700
    11 z      -0.011104 -0.003588 -0.045003  0.080807 -0.136248 -0.188871
    12 x       0.012644  0.017846  0.054448 -0.068217  0.032741 -0.023731
    12 y      -0.231550  0.247203  0.070687 -0.043487  0.119075 -0.084151
    12 z       0.165194 -0.269133 -0.003185  0.156046 -0.172457  0.077746


  Frequency     264.4583  267.3924  285.2722  303.4979  309.2665  382.5091
  IR Intensity    0.0035    0.0345    0.0100    0.0346    0.0176    0.0387
     in X         0.0033    0.0000    0.0000    0.0075    0.0098    0.0125
     in Y         0.0000    0.0340    0.0030    0.0151    0.0030    0.0094
     in Z         0.0002    0.0005    0.0070    0.0121    0.0047    0.0167
  Raman Intsty    0.0585    0.0734    0.2408    0.0204    0.0000    0.0159

     1 x      -0.053743 -0.002105 -0.198380  0.089341  0.022248  0.021727
     1 y       0.036056  0.211710 -0.014851 -0.038705 -0.030013  0.039954
     1 z       0.022572 -0.028275  0.209937 -0.071304 -0.036698 -0.022382
     2 x       0.103698 -0.147862  0.189247 -0.006322 -0.055528  0.120397
     2 y       0.059028  0.198531  0.141864 -0.034618  0.013386 -0.052539
     2 z       0.177928  0.027699 -0.057681  0.093622 -0.039115  0.102920
     3 x      -0.166564  0.155561  0.041586  0.210142 -0.190697  0.074137
     3 y      -0.126365 -0.082921  0.038875 -0.247642 -0.153620  0.120806
     3 z      -0.234559  0.055038  0.042177  0.202947 -0.184003 -0.327264
     4 x       0.189617  0.277384  0.395175 -0.133651 -0.030193 -0.035335
     4 y      -0.111671 -0.229490  0.020812  0.009240 -0.036899 -0.003130
     4 z       0.038611  0.169170  0.013924 -0.039314 -0.029629  0.023937
     5 x      -0.032621 -0.144145 -0.043985  0.056721 -0.015018  0.010163
     5 y      -0.114257 -0.464240 -0.111590  0.026284 -0.053359  0.032745
     5 z      -0.171908 -0.198883 -0.373796  0.136604  0.024507  0.038661
     6 x       0.077064  0.196530 -0.376146 -0.283826  0.213184 -0.131198
     6 y       0.107115  0.109452 -0.190656 -0.076417 -0.281682 -0.441833
     6 z      -0.369879 -0.151523  0.168379 -0.284851  0.273420 -0.088610
     7 x       0.419927 -0.176343 -0.101618  0.120964  0.300821 -0.144049
     7 y      -0.154639  0.027933 -0.002747  0.018402  0.001903  0.080904
     7 z       0.285289 -0.298635  0.083728 -0.426074 -0.175624  0.143538
     8 x       0.051891 -0.068315  0.026326 -0.158736  0.016133  0.312904
     8 y       0.200644  0.083030 -0.173658 -0.073073 -0.093032  0.249349
     8 z       0.195998 -0.046003 -0.105091  0.019553  0.083270 -0.307956
     9 x      -0.129952 -0.141136  0.038410 -0.042035  0.038082  0.007961
     9 y      -0.047413 -0.048532 -0.045984  0.095679  0.058928 -0.023181
     9 z       0.031572  0.184516 -0.091242  0.001533  0.023622 -0.026891
    10 x      -0.059230 -0.006254 -0.232779  0.060069  0.000446  0.057545
    10 y       0.030651  0.181866 -0.044874 -0.056257 -0.055189  0.062519
    10 z       0.019999 -0.018201  0.209048 -0.058263 -0.004636 -0.021770
    11 x      -0.043028 -0.117103  0.251442  0.121799 -0.023155 -0.303706
    11 y      -0.059818  0.076109  0.073433 -0.079014  0.611752 -0.145691
    11 z      -0.171343  0.240642 -0.001624  0.203363  0.289886  0.417649
    12 x      -0.334713  0.172715  0.004503 -0.090648 -0.233401 -0.031990
    12 y       0.186663 -0.126174  0.277586  0.517631  0.050451  0.059360
    12 z       0.182248  0.054017 -0.135019  0.179014 -0.175210  0.115451


  Frequency     402.5567  417.4452  462.4039  494.5932  543.0433  555.9855
  IR Intensity    0.0079    0.0238    0.0182    0.0053    0.0194    0.0729
     in X         0.0028    0.0037    0.0019    0.0033    0.0121    0.0357
     in Y         0.0017    0.0032    0.0124    0.0015    0.0058    0.0051
     in Z         0.0033    0.0170    0.0039    0.0005    0.0016    0.0321
  Raman Intsty    0.0392    0.4496    0.1348    5.1653    0.2269    0.0022

     1 x       0.019908 -0.006811 -0.004816  0.015800 -0.059067 -0.023759
     1 y       0.084269  0.097807 -0.074891  0.059381  0.001381  0.024948
     1 z      -0.029639 -0.043013  0.012243 -0.024329  0.055269  0.050901
     2 x       0.258776 -0.182892 -0.150889  0.141315  0.236193 -0.234273
     2 y       0.068273  0.059233 -0.020602 -0.020098  0.406381  0.169405
     2 z      -0.059998 -0.385882  0.122949  0.007740 -0.008148 -0.300326
     3 x      -0.229611  0.266535  0.068779 -0.041985  0.171219 -0.343612
     3 y      -0.058213 -0.049187 -0.111143 -0.149056 -0.094783  0.026920
     3 z       0.015486  0.167071  0.016041  0.007183  0.083661 -0.311591
     4 x      -0.001936  0.007060 -0.031405  0.020585 -0.128247 -0.075917
     4 y       0.002738 -0.019198 -0.042690  0.039125 -0.258093 -0.169380
     4 z       0.055838  0.038764 -0.091386  0.089990 -0.419601 -0.253470
     5 x      -0.016813 -0.099639  0.061649 -0.054768  0.484722  0.140677
     5 y       0.006385  0.008059  0.006464 -0.009957 -0.151984 -0.021208
     5 z       0.012721 -0.011983  0.027100 -0.012919  0.163668  0.044531
     6 x       0.085881  0.076895  0.210369  0.053772 -0.054141  0.006086
     6 y       0.186241 -0.167913 -0.318037 -0.267019  0.056477 -0.008416
     6 z      -0.145265  0.030272 -0.287492 -0.148774  0.069767  0.024704
     7 x      -0.031064 -0.028642 -0.180734 -0.091928 -0.051568  0.048091
     7 y       0.351553  0.193623  0.433897  0.282440  0.056968  0.002096
     7 z       0.060086  0.119102  0.263515  0.130968  0.025635  0.063118
     8 x      -0.154820  0.028698 -0.009519 -0.241370 -0.010310 -0.043553
     8 y      -0.169618  0.028291 -0.005024 -0.189175 -0.014061 -0.066149
     8 z       0.181598 -0.064574  0.000951  0.256982 -0.016309  0.101497
     9 x       0.165575  0.162621 -0.269709  0.206572 -0.040022 -0.000263
     9 y      -0.149712 -0.117455  0.182309 -0.135254 -0.002748  0.004478
     9 z      -0.207947 -0.148584  0.308262 -0.247072  0.023907  0.047769
    10 x       0.017431 -0.006056 -0.018745  0.025581 -0.165700 -0.051808
    10 y       0.067487  0.089135 -0.079447  0.057692 -0.005443  0.026505
    10 z       0.001537 -0.043889  0.007466 -0.022075  0.096134  0.075759
    11 x       0.096575  0.239726  0.318983 -0.399265 -0.285059  0.292145
    11 y      -0.317795  0.039532  0.041893  0.219333  0.040265 -0.141399
    11 z       0.456417 -0.059640 -0.139767 -0.247600 -0.083624  0.202837
    12 x      -0.219304 -0.472218  0.022695  0.343628 -0.164777  0.401484
    12 y      -0.089686 -0.182595  0.026870  0.133624 -0.094337  0.109796
    12 z      -0.326623  0.452532 -0.268865  0.211708 -0.015423  0.361783


  Frequency     665.9750  681.8029  698.1448  819.8907  920.6748 1353.4784
  IR Intensity    0.0196    0.0321    0.0186    0.0269    0.0067    0.0037
     in X         0.0097    0.0041    0.0015    0.0140    0.0046    0.0011
     in Y         0.0067    0.0154    0.0106    0.0009    0.0000    0.0020
     in Z         0.0032    0.0125    0.0065    0.0120    0.0021    0.0006
  Raman Intsty    0.0476    0.0001    0.0735    0.0015    1.4139    0.0095

     1 x       0.306033 -0.308252 -0.002510 -0.041040  0.001282 -0.437951
     1 y      -0.159309 -0.121727 -0.226254  0.154040 -0.110840  0.486737
     1 z       0.083995 -0.367291 -0.172660  0.049351 -0.026119  0.274255
     2 x       0.162049 -0.031358  0.235151  0.168734 -0.411512  0.038721
     2 y       0.243747  0.008465  0.320898 -0.457992  0.318789 -0.044658
     2 z      -0.138691 -0.082994 -0.275983 -0.173337  0.439894 -0.033266
     3 x       0.061425 -0.019866  0.051205  0.420154  0.364539 -0.009740
     3 y      -0.412761 -0.357602  0.447319  0.052001  0.122782 -0.004581
     3 z      -0.159506 -0.133206  0.001814 -0.435006 -0.391635  0.014687
     4 x      -0.044325  0.141109  0.062980 -0.015782  0.007056 -0.001505
     4 y      -0.020129  0.262275  0.158319 -0.041431  0.021046 -0.037073
     4 z      -0.056566  0.416604  0.217390 -0.041804  0.021510 -0.043550
     5 x      -0.426485  0.375519 -0.010088  0.030669 -0.006966  0.061169
     5 y       0.135750 -0.097592  0.015461 -0.013831  0.011399 -0.023767
     5 z      -0.130136  0.146833  0.011692  0.008476  0.001121  0.010130
     6 x      -0.130990 -0.080222  0.077567 -0.100590 -0.041354 -0.000641
     6 y       0.245578  0.188455 -0.210418  0.137388  0.052280  0.001250
     6 z       0.196235  0.159415 -0.121061  0.133568  0.064435 -0.000831
     7 x      -0.065732 -0.026488  0.033701 -0.044339 -0.031089  0.000826
     7 y       0.184018  0.146507 -0.137996  0.023278  0.001276 -0.003422
     7 z       0.094104  0.083007 -0.050157  0.049361  0.037705 -0.000764
     8 x       0.056144  0.084323 -0.182524 -0.230278 -0.144100  0.001645
     8 y       0.052552  0.075925 -0.157423 -0.163043 -0.109402  0.000344
     8 z      -0.057731 -0.081311  0.193479  0.245898  0.153458 -0.002302
     9 x      -0.125026 -0.030192 -0.194262 -0.169976  0.195900 -0.007807
     9 y       0.081187  0.028601  0.109303  0.095690 -0.112886 -0.002576
     9 z       0.142381  0.043166  0.223094  0.187100 -0.217694  0.006865
    10 x       0.184164 -0.115263  0.028543 -0.034498  0.049026  0.430844
    10 y      -0.280825 -0.076249 -0.284410  0.233495 -0.186475 -0.471351
    10 z      -0.015116 -0.139665 -0.087120  0.039574 -0.048994 -0.274556
    11 x      -0.108087  0.014888 -0.094280 -0.009855  0.075508  0.003425
    11 y      -0.003825  0.000617 -0.074231  0.024084 -0.041811  0.009709
    11 z       0.003016  0.010097  0.057166  0.038314  0.021207 -0.000376
    12 x       0.029357  0.064692 -0.059879 -0.078188 -0.049534 -0.000611
    12 y      -0.003065  0.032561 -0.064430  0.004603 -0.029540  0.005546
    12 z       0.079065  0.057165  0.087976  0.005628 -0.059132  0.000711




--------------------------------------------------------------------------------
  Vibrational properties (for cluster):  Temperature  =       0.000 K
--------------------------------------------------------------------------------
  Zero point energy            =        0.695637 eV
--------------------------------------------------------------------------------

  Phonon density of states : 

--------------------------------------------------------------------------------
 Frequency (cm-1) Density of States                                             
--------------------------------------------------------------------------------
    0.00000 |************************************************************  0.103
   21.14810 |                                                              0.000
   42.29620 |                                                              0.000
   63.44430 |********************                                          0.034
   84.59241 |                                                              0.000
  105.74051 |********************                                          0.034
  126.88861 |                                                              0.000
  148.03671 |****************************************                      0.069
  169.18481 |********************                                          0.034
  190.33291 |********************                                          0.034
  211.48101 |********************                                          0.034
  232.62911 |                                                              0.000
  253.77722 |************************************************************  0.103
  274.92532 |********************                                          0.034
  296.07342 |****************************************                      0.069
  317.22152 |                                                              0.000
  338.36962 |                                                              0.000
  359.51772 |                                                              0.000
  380.66582 |********************                                          0.034
  401.81393 |****************************************                      0.069
  422.96203 |                                                              0.000
  444.11013 |********************                                          0.034
  465.25823 |                                                              0.000
  486.40633 |********************                                          0.034
  507.55443 |                                                              0.000
  528.70253 |********************                                          0.034
  549.85063 |********************                                          0.034
  570.99874 |                                                              0.000
  592.14684 |                                                              0.000
  613.29494 |                                                              0.000
  634.44304 |                                                              0.000
  655.59114 |********************                                          0.034
  676.73924 |********************                                          0.034
  697.88734 |********************                                          0.034
  719.03545 |                                                              0.000
  740.18355 |                                                              0.000
  761.33165 |                                                              0.000
  782.47975 |                                                              0.000
  803.62785 |********************                                          0.034
  824.77595 |                                                              0.000
  845.92405 |                                                              0.000
  867.07215 |                                                              0.000
  888.22026 |                                                              0.000
  909.36836 |********************                                          0.034
  930.51646 |                                                              0.000
  951.66456 |                                                              0.000
  972.81266 |                                                              0.000
  993.96076 |                                                              0.000
 1015.10886 |                                                              0.000
 1036.25697 |                                                              0.000
 1057.40507 |                                                              0.000
 1078.55317 |                                                              0.000
 1099.70127 |                                                              0.000
 1120.84937 |                                                              0.000
 1141.99747 |                                                              0.000
 1163.14557 |                                                              0.000
 1184.29368 |                                                              0.000
 1205.44178 |                                                              0.000
 1226.58988 |                                                              0.000
 1247.73798 |                                                              0.000
 1268.88608 |                                                              0.000
 1290.03418 |                                                              0.000
 1311.18228 |                                                              0.000
 1332.33038 |********************                                          0.034
--------------------------------------------------------------------------------



  Time to end of optimisation =       0.0471 seconds


  Peak dynamic memory used =       0.65 MB 


  Timing analysis for GULP :

--------------------------------------------------------------------------------
  Task / Subroutine                                          Time (Seconds)
--------------------------------------------------------------------------------
  Calculation of real space energy and derivatives                0.0035
  Calculation of phonons                                          0.0017
  Calculation and manipulation of Hessian matrix                  0.0019
--------------------------------------------------------------------------------
  Total CPU time                                                  0.0472
--------------------------------------------------------------------------------


  Job Finished at 14:40.10 25th May        2022                               

