12
Properties=species:S:1:pos:R:3:forces:R:3 energy=-187.24475565 pbc="F F F"
Al    0.288340193    -0.21115415800000004    2.126886739    0.0    -0.0    -0.0
Al    2.156872365    -1.701441872    -0.39242549699999996    -0.0    1e-06    0.0
Al    -0.745794981    -1.738719758    -0.815292143    0.0    1e-06    0.0
F    3.567387707    -0.39914179299999997    -1.16126818    0.0    -0.0    0.0
F    -1.9106658539999999    -0.469494888    -1.959320597    -0.0    -0.0    0.0
F    2.7792293949999998    -3.735133694    -0.493606643    -0.0    1e-06    0.0
F    -1.262081566    -3.787034202    -1.08235172    -0.0    1e-06    0.0
F    2.115000997    -1.5457873930000001    1.0034144020000002    -0.0    -0.0    -0.0
F    0.827360164    -1.522900882    -1.4574556650000001    0.0    0.0    -0.0
F    0.157457752    -1.073038563    3.101277289    -0.0    1e-06    0.0
F    0.397258571    0.7950742989999999    1.2905331359999999    0.0    -0.0    -0.0
F    -1.107771868    -1.5871763829999999    0.5339148140000001    0.0    -0.0    -0.0
