------------------------------------------------------------
          Invoking FHI-aims ...

          When using FHI-aims, please cite the following reference:

            Volker Blum, Ralf Gehrke, Felix Hanke, Paula Havu,
            Ville Havu, Xinguo Ren, Karsten Reuter, and Matthias Scheffler,
            'Ab Initio Molecular Simulations with Numeric Atom-Centered Orbitals',
            Computer Physics Communications 180, 2175-2196 (2009)

          In addition, many other developments in FHI-aims are likely important for
          your particular application. A partial list of references is given at the end of
          this file. Thank you for giving credit to the authors of these developments.

          For any questions about FHI-aims, please visit our slack channel at

            https://fhi-aims.slack.com

          and our main development and support site at

            https://aims-git.rz-berlin.mpg.de .

          The latter site, in particular, has a wiki to collect information, as well
          as an issue tracker to log discussions, suggest improvements, and report issues
          or bugs. https://aims-git.rz-berlin.mpg.de is also the main development site
          of the project and all new and updated code versions can be obtained there.
          Please send an email to aims-coordinators@fhi-berlin.mpg.de and we will add
          you to these sites. They are for you and everyone is welcome there.

------------------------------------------------------------



  Date     :  20220517, Time     :  111026.484
  Time zero on CPU 1             :   0.451410000000000E-01  s.
  Internal wall clock time zero  :           422017826.484  s.

  FHI-aims created a unique identifier for this run for later identification
  aims_uuid : 3EEF31C2-1EA2-416E-A74C-2248EB65201D

  Build configuration of the current instance of FHI-aims
  -------------------------------------------------------
  FHI-aims version      : 210914
  Commit number         : GITDIR-NOTFOUND
  CMake host system     : Linux-3.10.0-693.17.1.el7.x86_64
  CMake version         : 3.21.1
  Fortran compiler      : /shared/ucl/apps/intel/2018.Update3/impi/2018.3.222/intel64/bin/mpiifort (Intel) version 18.0.3.20180410
  Fortran compiler flags: -O3 -ip -fp-model precise
  C compiler            : /shared/ucl/apps/intel/2018.Update3/compilers_and_libraries_2018.3.222/linux/bin/intel64/icc (Intel) version 18.0.3.20180410
  C compiler flags      : -O3 -ip -fp-model precise -std=gnu99
  ELPA2 kernel          : AVX2
  Using MPI
  Using ScaLAPACK
  Using LibXC
  Using i-PI
  Using RLSY
  Linking against: /shared/ucl/apps/intel/2019.Update5/compilers_and_libraries_2019.5.281/linux/mkl/lib/intel64/libmkl_intel_lp64.so
                   /shared/ucl/apps/intel/2019.Update5/compilers_and_libraries_2019.5.281/linux/mkl/lib/intel64/libmkl_sequential.so
                   /shared/ucl/apps/intel/2019.Update5/compilers_and_libraries_2019.5.281/linux/mkl/lib/intel64/libmkl_core.so
                   /shared/ucl/apps/intel/2019.Update5/compilers_and_libraries_2019.5.281/linux/mkl/lib/intel64/libmkl_blacs_intelmpi_lp64.so
                   /shared/ucl/apps/intel/2019.Update5/compilers_and_libraries_2019.5.281/linux/mkl/lib/intel64/libmkl_scalapack_lp64.so

  Using       24 parallel tasks.
  Task        0 on host node-k98i-010 reporting.
  Task        1 on host node-k98i-010 reporting.
  Task        2 on host node-k98i-010 reporting.
  Task        3 on host node-k98i-010 reporting.
  Task        4 on host node-k98i-010 reporting.
  Task        5 on host node-k98i-010 reporting.
  Task        6 on host node-k98i-010 reporting.
  Task        7 on host node-k98i-010 reporting.
  Task        8 on host node-k98i-010 reporting.
  Task        9 on host node-k98i-010 reporting.
  Task       10 on host node-k98i-010 reporting.
  Task       11 on host node-k98i-010 reporting.
  Task       12 on host node-k98i-010 reporting.
  Task       13 on host node-k98i-010 reporting.
  Task       14 on host node-k98i-010 reporting.
  Task       15 on host node-k98i-010 reporting.
  Task       16 on host node-k98i-010 reporting.
  Task       17 on host node-k98i-010 reporting.
  Task       18 on host node-k98i-010 reporting.
  Task       19 on host node-k98i-010 reporting.
  Task       20 on host node-k98i-010 reporting.
  Task       21 on host node-k98i-010 reporting.
  Task       22 on host node-k98i-010 reporting.
  Task       23 on host node-k98i-010 reporting.

  Performing system and environment tests:
  | Environment variable OMP_NUM_THREADS correctly set to 1.
  | Checking for ScaLAPACK...
  | Testing pdtran()...
  | All pdtran() tests passed.

  Obtaining array dimensions for all initial allocations:
  
  -----------------------------------------------------------------------
  Parsing control.in (first pass over file, find array dimensions only).
  The contents of control.in will be repeated verbatim below
  unless switched off by setting 'verbatim_writeout .false.' .
  in the first line of control.in .
  -----------------------------------------------------------------------
  
  #########################################################################################  Physical model
  #########################################################################################
  xc                 pbesol
  spin               none
  relativistic       atomic_zora scalar
  charge             0.0
  #  SCF convergence
  occupation_type    gaussian 0.01
  mixer              pulay
  n_max_pulay        10
  charge_mix_param   0.5
  sc_accuracy_rho    1E-5
  sc_accuracy_eev    1E-3
  sc_accuracy_etot   1E-6
  sc_accuracy_forces 1E-4
  sc_iter_limit      1500
  #  Relaxation
  #relax_geometry   bfgs 1.e-3
  
  ################################################################################
  #
  #  FHI-aims code project
  #  VB, Fritz-Haber Institut, 2009
  #
  #  Suggested "light" defaults for Al atom (to be pasted into control.in file)
  #  Be sure to double-check any results obtained with these settings for post-processing,
  #  e.g., with the "tight" defaults and larger basis sets.
  #
  ################################################################################
    species        Al
  #     global species definitions
      nucleus             13
      mass                26.9815386
  #
      l_hartree           4
  #
      cut_pot             3.5          1.5  1.0
      basis_dep_cutoff    1e-4
  #
      radial_base         41 5.0
      radial_multiplier   1
      angular_grids       specified
        division   0.6594  110
        division   0.8170  194
        division   0.9059  302
  #      division   1.0363  434
  #      division   1.1443  590
  #      division   1.2621  770
  #      division   2.8177  974
  #      outer_grid   974
        outer_grid   302
  ################################################################################
  #
  #  Definition of "minimal" basis
  #
  ################################################################################
  #     valence basis states
      valence      3  s   2.
      valence      3  p   1.
  #     ion occupancy
      ion_occ      3  s   1.
      ion_occ      2  p   6.
  ################################################################################
  #
  #  Suggested additional basis functions. For production calculations,
  #  uncomment them one after another (the most important basis functions are
  #  listed first).
  #
  #  Constructed for dimers: 2.0 A, 2.5 A, 3.0 A, 3.75 A, 4.5 A
  #
  ################################################################################
  #  "First tier" - improvements: -199.47 meV to -10.63 meV
       ionic 3 d auto
       ionic 3 p auto
  #     hydro 4 f 4.7
       ionic 3 s auto
  #  "Second tier" - improvements: -5.35 meV to -1.57 meV
  #     hydro 5 g 7
  #     hydro 3 d 6
  #     hydro 2 s 11.6
  #     hydro 2 p 0.9
  #  "Third tier" - improvements: -0.63 meV to -0.20 meV
  #     hydro 5 f 7.6
  #     hydro 4 p 7.2
  #     hydro 4 s 3.7
  #     hydro 4 d 7.6
  #  "Fourth tier" - improvements: -0.17 meV to -0.08 meV
  #     hydro 4 d 13.6
  #     hydro 5 g 11.2
  #     hydro 4 d 0.9
  #     hydro 1 s 0.4
  #     hydro 4 p 0.1
  #     hydro 5 f 9.8
  #  Further basis functions that fell out of the optimization - noise level...
  #     hydro 4 p 5
  
  ################################################################################
  #
  #  FHI-aims code project
  #  VB, Fritz-Haber Institut, 2009
  #
  #  Suggested "light" defaults for F atom (to be pasted into control.in file)
  #  Be sure to double-check any results obtained with these settings for post-processing,
  #  e.g., with the "tight" defaults and larger basis sets.
  #
  ################################################################################
    species        F
  #     global species definitions
      nucleus             9
      mass                18.9984032
  #
      l_hartree           4
  #
      cut_pot             3.5  1.5  1.0
      basis_dep_cutoff    1e-4
  #
      radial_base         37 5.0
      radial_multiplier   1
      angular_grids specified
        division   0.4014  110
        division   0.5291  194
        division   0.6019  302
  #      division   0.6814  434
  #      division   0.7989  590
  #      division   0.8965  770
  #      division   1.3427  974
  #      outer_grid   974
        outer_grid   302
  ################################################################################
  #
  #  Definition of "minimal" basis
  #
  ################################################################################
  #     valence basis states
      valence      2  s   2.
      valence      2  p   5.
  #     ion occupancy
      ion_occ      2  s   1.
      ion_occ      2  p   4.
  ################################################################################
  #
  #  Suggested additional basis functions. For production calculations,
  #  uncomment them one after another (the most important basis functions are
  #  listed first).
  #
  #  Constructed for dimers: 1.2 A, 1.418 A, 1.75 A, 2.25 A, 3.25 A
  #
  ################################################################################
  #  "First tier" - improvements: -149.44 meV to -45.88 meV
       hydro 2 p 1.7
       hydro 3 d 7.4
       hydro 3 s 6.8
  #  "Second tier" - improvements: -12.96 meV to -1.56 meV
  #     hydro 4 f 11.2
  #     ionic 2 p auto
  #     hydro 1 s 0.75
  #     hydro 4 d 8.8
  #     hydro 5 g 16.8
  #  "Third tier" - improvements: -0.58 meV to -0.05 meV
  #     hydro 3 p 6.2
  #     hydro 3 s 3.2
  #     hydro 4 f 9.6
  #     hydro 3 s 19.6
  #     hydro 4 d 8.6
  #     hydro 5 g 14.4
  # Further basis functions: -0.05 meV and below
  #     hydro 3 p 4.2
  
  -----------------------------------------------------------------------
  Completed first pass over input file control.in .
  -----------------------------------------------------------------------
  
  
  -----------------------------------------------------------------------
  Parsing geometry.in (first pass over file, find array dimensions only).
  The contents of geometry.in will be repeated verbatim below
  unless switched off by setting 'verbatim_writeout .false.' .
  in the first line of geometry.in .
  -----------------------------------------------------------------------
  
  atom 1.130358662 0.226539716 2.524329837 Al
  atom 1.401977000 1.043231800 -0.149261800 Al
  atom -0.471369985 1.013380564 -2.241755473 Al
  atom -1.578139004 -0.477682744 -2.267595077 F
  atom 2.051035592 -0.378267554 0.916373313 F
  atom 0.136343584 1.719474454 -3.843611994 F
  atom -0.302539426 1.970934281 -0.620352895 F
  atom 2.543939753 2.472189509 -0.297130044 F
  atom 1.155927823 0.061448528 -1.747096377 F
  atom 0.403128071 1.624277223 1.479425502 F
  atom 2.630675330 0.494148219 3.578494209 F
  atom 0.112974559 -1.308433459 2.764456186 F
  
  -----------------------------------------------------------------------
  Completed first pass over input file geometry.in .
  -----------------------------------------------------------------------
  

  Basic array size parameters:
  | Number of species                 :        2
  | Number of atoms                   :       12
  | Max. basis fn. angular momentum   :        2
  | Max. atomic/ionic basis occupied n:        3
  | Max. number of basis fn. types    :        3
  | Max. radial fns per species/type  :        5
  | Max. logarithmic grid size        :     1340
  | Max. radial integration grid size :       41
  | Max. angular integration grid size:      302
  | Max. angular grid division number :        8
  | Radial grid for Hartree potential :     1340
  | Number of spin channels           :        1

------------------------------------------------------------
          Reading file control.in.
------------------------------------------------------------
  XC: Using PBEsol gradient-corrected functionals.
  Spin treatment: No spin polarisation.
  Scalar relativistic treatment of kinetic energy: on-site free-atom approximation to ZORA.
  Charge =   0.000000E+00: Neutral system requested explicitly.
  Occupation type: Gaussian broadening, width =   0.100000E-01 eV.
  Using pulay charge density mixing.
  Pulay mixing - number of memorized iterations:   10
  Charge density mixing - mixing parameter:     0.5000
  Convergence accuracy of self-consistent charge density:  0.1000E-04
  Convergence accuracy of sum of eigenvalues:  0.1000E-02
  Convergence accuracy of total energy:  0.1000E-05
  Convergence accuracy of forces:  0.1000E-03
  Maximum number of s.-c. iterations  :  1500
 
  Reading configuration options for species Al                  .
  | Found nuclear charge :  13.0000
  | Found atomic mass :    26.9815386000000      amu
  | Found l_max for Hartree potential  :   4
  | Found cutoff potl. onset [A], width [A], scale factor :    3.50000    1.50000    1.00000
  | Threshold for basis-dependent cutoff potential is   0.100000E-03
  | Found data for basic radial integration grid :    41 points, outermost radius =    5.000 A
  | Found multiplier for basic radial grid :   1
  | Found angular grid specification: user-specified.
  | Specified grid contains     4 separate shells.
  | Check grid settings after all constraints further below.
  | Found free-atom valence shell :  3 s   2.000
  | Found free-atom valence shell :  3 p   1.000
  | Found free-ion valence shell :  3 s   1.000
  | Found free-ion valence shell :  2 p   6.000
  | Found ionic basis function :  3 d , default cutoff radius.
  | Found ionic basis function :  3 p , default cutoff radius.
  | Found ionic basis function :  3 s , default cutoff radius.
  Species Al                  : Missing cutoff potential type.
  Defaulting to exp(1/x)/(1-x)^2 type cutoff potential.
  Species Al: No 'logarithmic' tag. Using default grid for free atom:
  | Default logarithmic grid data [bohr] : 0.1000E-03 0.1000E+03 0.1012E+01
  | Will include ionic basis functions of  2.0-fold positive Al                   ion.
  Species Al: On-site basis accuracy parameter (for Gram-Schmidt orthonormalisation) not specified.
  Using default value basis_acc =  0.1000000E-03.
  Species Al                  : Using default innermost maximum threshold i_radial=  2 for radial functions.
  Species Al                  : Default cutoff onset for free atom density etc. : 0.35000000E+01 AA.
  Species Al                  : Basic radial grid will be enhanced according to radial_multiplier =   1, to contain    41 grid points.
 
  Reading configuration options for species F                   .
  | Found nuclear charge :   9.0000
  | Found atomic mass :    18.9984032000000      amu
  | Found l_max for Hartree potential  :   4
  | Found cutoff potl. onset [A], width [A], scale factor :    3.50000    1.50000    1.00000
  | Threshold for basis-dependent cutoff potential is   0.100000E-03
  | Found data for basic radial integration grid :    37 points, outermost radius =    5.000 A
  | Found multiplier for basic radial grid :   1
  | Found angular grid specification: user-specified.
  | Specified grid contains     4 separate shells.
  | Check grid settings after all constraints further below.
  | Found free-atom valence shell :  2 s   2.000
  | Found free-atom valence shell :  2 p   5.000
  | Found free-ion valence shell :  2 s   1.000
  | Found free-ion valence shell :  2 p   4.000
  | Found hydrogenic basis function :  2 p   1.700
  | Found hydrogenic basis function :  3 d   7.400
  | Found hydrogenic basis function :  3 s   6.800
  Species F                   : Missing cutoff potential type.
  Defaulting to exp(1/x)/(1-x)^2 type cutoff potential.
  Species F : No 'logarithmic' tag. Using default grid for free atom:
  | Default logarithmic grid data [bohr] : 0.1000E-03 0.1000E+03 0.1012E+01
  Species F : On-site basis accuracy parameter (for Gram-Schmidt orthonormalisation) not specified.
  Using default value basis_acc =  0.1000000E-03.
  Species F                   : Using default innermost maximum threshold i_radial=  2 for radial functions.
  Species F                   : Default cutoff onset for free atom density etc. : 0.35000000E+01 AA.
  Species F                   : Basic radial grid will be enhanced according to radial_multiplier =   1, to contain    37 grid points.
 
  Finished reading input file 'control.in'.
 
------------------------------------------------------------


------------------------------------------------------------
          Reading geometry description geometry.in.
------------------------------------------------------------
  | The smallest distance between any two atoms is         1.83517413 AA.
  | The first atom of this pair is atom number                      2 .
  | The second atom of this pair is atom number                     8 .
  Input structure read successfully.
  The structure contains       12 atoms,  and a total of        120.000 electrons.

  Input geometry:
  | No unit cell requested.
  | Atomic structure:
  |       Atom                x [A]            y [A]            z [A]
  |    1: Species Al            1.13035866        0.22653972        2.52432984
  |    2: Species Al            1.40197700        1.04323180       -0.14926180
  |    3: Species Al           -0.47136998        1.01338056       -2.24175547
  |    4: Species F            -1.57813900       -0.47768274       -2.26759508
  |    5: Species F             2.05103559       -0.37826755        0.91637331
  |    6: Species F             0.13634358        1.71947445       -3.84361199
  |    7: Species F            -0.30253943        1.97093428       -0.62035290
  |    8: Species F             2.54393975        2.47218951       -0.29713004
  |    9: Species F             1.15592782        0.06144853       -1.74709638
  |   10: Species F             0.40312807        1.62427722        1.47942550
  |   11: Species F             2.63067533        0.49414822        3.57849421
  |   12: Species F             0.11297456       -1.30843346        2.76445619

 
  Finished reading input file 'control.in'.
 

------------------------------------------------------------
          Reading geometry description geometry.in.
------------------------------------------------------------
 
  Consistency checks for stacksize environment parameter are next.
 
  | Maximum stacksize for task 0: unlimited
  | Maximum stacksize for task 1: unlimited
  | Maximum stacksize for task 2: unlimited
  | Maximum stacksize for task 3: unlimited
  | Maximum stacksize for task 4: unlimited
  | Maximum stacksize for task 5: unlimited
  | Maximum stacksize for task 6: unlimited
  | Maximum stacksize for task 7: unlimited
  | Maximum stacksize for task 8: unlimited
  | Maximum stacksize for task 9: unlimited
  | Maximum stacksize for task 10: unlimited
  | Maximum stacksize for task 11: unlimited
  | Maximum stacksize for task 12: unlimited
  | Maximum stacksize for task 13: unlimited
  | Maximum stacksize for task 14: unlimited
  | Maximum stacksize for task 15: unlimited
  | Maximum stacksize for task 16: unlimited
  | Maximum stacksize for task 17: unlimited
  | Maximum stacksize for task 18: unlimited
  | Maximum stacksize for task 19: unlimited
  | Maximum stacksize for task 20: unlimited
  | Maximum stacksize for task 21: unlimited
  | Maximum stacksize for task 22: unlimited
  | Maximum stacksize for task 23: unlimited
  | Current stacksize for task 0: unlimited
  | Current stacksize for task 1: unlimited
  | Current stacksize for task 2: unlimited
  | Current stacksize for task 3: unlimited
  | Current stacksize for task 4: unlimited
  | Current stacksize for task 5: unlimited
  | Current stacksize for task 6: unlimited
  | Current stacksize for task 7: unlimited
  | Current stacksize for task 8: unlimited
  | Current stacksize for task 9: unlimited
  | Current stacksize for task 10: unlimited
  | Current stacksize for task 11: unlimited
  | Current stacksize for task 12: unlimited
  | Current stacksize for task 13: unlimited
  | Current stacksize for task 14: unlimited
  | Current stacksize for task 15: unlimited
  | Current stacksize for task 16: unlimited
  | Current stacksize for task 17: unlimited
  | Current stacksize for task 18: unlimited
  | Current stacksize for task 19: unlimited
  | Current stacksize for task 20: unlimited
  | Current stacksize for task 21: unlimited
  | Current stacksize for task 22: unlimited
  | Current stacksize for task 23: unlimited
 
  Consistency checks for the contents of control.in are next.
 
  MPI_IN_PLACE appears to work with this MPI implementation.
  | Keeping use_mpi_in_place .true. (see manual).
  Target number of points in a grid batch is not set. Defaulting to  100
  Method for grid partitioning is not set. Defaulting to parallel hash+maxmin partitioning.
  Batch size limit is not set. Defaulting to    200
  By default, will store active basis functions for each batch.
  If in need of memory, prune_basis_once .false. can be used to disable this option.
  communication_type for Hartree potential was not specified.
  Defaulting to calc_hartree .
  Pulay mixer: Number of initial linear mixing iterations not set.
  Defaulting to    0 iterations.
  Work space size for distributed Hartree potential not set.
  Defaulting to   0.200000E+03 MB.
  Algorithm-dependent basis array size parameters:
  | n_max_pulay                         :       10
  Presetting      1001 iterations before the initial mixing cycle
  is restarted anyway using the sc_init_iter criterion / keyword.
  Presetting a factor      1.000 between actual scf density residual
  and density convergence criterion sc_accuracy_rho below which sc_init_iter
  takes no effect.
  Geometry relaxation not requested: no relaxation will be performed.
  Forces evaluation will include force correction term due to incomplete self-consistency (default).
  Handling of forces: Unphysical translation and rotation will be removed from forces.
  No accuracy limit for integral partition fn. given. Defaulting to  0.1000E-14.
  No threshold value for u(r) in integrations given. Defaulting to  0.1000E-05.
  No accuracy for occupation numbers given. Defaulting to  0.1000E-12.
  No threshold value for occupation numbers given. Defaulting to  0.0000E+00.
  No accuracy for fermi level given. Defaulting to  0.1000E-19.
  Maximum # of iterations to find E_F not set. Defaulting to  200.
  Preferred method for the eigenvalue solver ('KS_method') not specified in 'control.in'.
  Calling BLACS routine to test compilation state
  Since ScaLAPACK support is enabled, defaulting to ELPA (via ELSI).
  Will not use alltoall communication since running on < 1024 CPUs.
  Threshold for basis singularities not set.
  Default threshold for basis singularities:  0.1000E-04
  partition_type (choice of integration weights) for integrals was not specified.
  | Using a version of the partition function of Stratmann and coworkers ('stratmann_sparse').
  | At each grid point, the set of atoms used to build the partition table is smoothly restricted to
  | only those atoms whose free-atom density would be non-zero at that grid point.
  Partitioning for Hartree potential was not defined. Using partition_type for integrals.
  | Adjusted default value of keyword multip_moments_threshold to:       0.10000000E-11
  | This value may affect high angular momentum components of the Hartree potential in periodic systems.
  No q(lm)/r^(l+1) cutoff set for long-range Hartree potential.
  | Using default value of  0.100000E-09 .
  | Verify using the multipole_threshold keyword.
  Defaulting to new monopole extrapolation.
  Density update method: automatic selection selected.
  Charge integration errors on the 3D integration grid will be compensated
  by explicit normalization and distribution of residual charges.
  Use the "compensate_multipole_errors" flag to change this behaviour.
  Set 'collect_eigenvectors' to be '.true.' for use_density_matrix .false.
 
  Consistency checks for the contents of geometry.in are next.
 
  Number of empty states per atom not set in control.in - providing a guess from actual geometry.
  | Total number of empty states used during s.c.f. cycle:       36
  If you use a very high smearing, use empty_states (per atom!) in control.in to increase this value.

  Structure-dependent array size parameters: 
  | Maximum number of distinct radial functions  :       14
  | Maximum number of basis functions            :      180
  | Number of Kohn-Sham states (occupied + empty):       96
------------------------------------------------------------

------------------------------------------------------------
          Preparing all fixed parts of the calculation.
------------------------------------------------------------
  Determining machine precision:
    2.225073858507201E-308
  Setting up grids for atomic and cluster calculations.

  Creating wave function, potential, and density for free atoms.

  Species: Al

  List of occupied orbitals and eigenvalues:
    n    l              occ      energy [Ha]    energy [eV]
    1    0           2.0000       -55.621123     -1513.5278
    2    0           2.0000        -3.957030      -107.6763
    3    0           2.0000        -0.272233        -7.4078
    2    1           6.0000        -2.540949       -69.1427
    3    1           1.0000        -0.083300        -2.2667


  Species: F

  List of occupied orbitals and eigenvalues:
    n    l              occ      energy [Ha]    energy [eV]
    1    0           2.0000       -24.399611      -663.9472
    2    0           2.0000        -1.098702       -29.8972
    2    1           5.0000        -0.408210       -11.1080


  Adding cutoff potential to free-atom effective potential.
  Creating fixed part of basis set: Ionic, confined, hydrogenic.
 
  Al                   ion:

  List of free ionic orbitals and eigenvalues:
    n    l      energy [Ha]    energy [eV]
    1    0       -56.418846     -1535.2349
    2    0        -4.732717      -128.7838
    3    0        -0.872690       -23.7471
    2    1        -3.317230       -90.2664


  List of ionic basis orbitals and eigenvalues:
    n    l      energy [Ha]    energy [eV]    outer radius [A]
    3    2        -0.346815        -9.4373       4.594041
    3    1        -0.631870       -17.1940       4.538221
    3    0        -0.872657       -23.7462       4.538221

 
  F                    hydrogenic:
 
  List of hydrogenic basis orbitals: 
    n    l      effective z      eigenvalue [eV]  inner max. [A]     outer max. [A]     outer radius [A]   
    2    1         1.700000        -9.7616           1.243167           1.243167           4.598524
    3    2         7.400000       -82.7828           0.642437           0.642437           3.305741
    3    0         6.800000       -69.9026           0.057798           1.022307           3.781556
 
  Creating atomic-like basis functions for current effective potential.

  Species Al                  :

  List of atomic basis orbitals and eigenvalues:
    n    l      energy [Ha]    energy [eV]    outer radius [A]
    1    0       -55.621123     -1513.5278       0.850197
    2    0        -3.957030      -107.6763       3.144911
    3    0        -0.272233        -7.4078       4.594041
    2    1        -2.540949       -69.1427       3.731966
    3    1        -0.083300        -2.2667       4.594041


  Species F                   :

  List of atomic basis orbitals and eigenvalues:
    n    l      energy [Ha]    energy [eV]    outer radius [A]
    1    0       -24.399611      -663.9472       1.258458
    2    0        -1.098702       -29.8972       4.325857
    2    1        -0.408210       -11.1080       4.487453

  Assembling full basis from fixed parts.
  | Species Al :   atomic orbital   1 s accepted.
  | Species Al :   atomic orbital   2 s accepted.
  | Species Al :    ionic orbital   3 s accepted.
  | Species Al :   atomic orbital   3 s accepted.
  | Species Al :   atomic orbital   2 p accepted.
  | Species Al :    ionic orbital   3 p accepted.
  | Species Al :   atomic orbital   3 p accepted.
  | Species Al :    ionic orbital   3 d accepted.
  | Species F :   atomic orbital   1 s accepted.
  | Species F :    hydro orbital   3 s accepted.
  | Species F :   atomic orbital   2 s accepted.
  | Species F :   atomic orbital   2 p accepted.
  | Species F :    hydro orbital   2 p accepted.
  | Species F :    hydro orbital   3 d accepted.
 
  Basis size parameters after reduction:
  | Total number of radial functions:       14
  | Total number of basis functions :      180
 
  Per-task memory consumption for arrays in subroutine allocate_ext:
  |           4.807768MB.
  Testing on-site integration grid accuracy.
  |  Species  Function  <phi|h_atom|phi> (log., in eV)  <phi|h_atom|phi> (rad., in eV)
           1        1              -1513.5277717935              -1513.5271881332
           1        2               -107.6762691836               -107.6762662489
           1        3                 -6.9467474784                 -6.9471269649
           1        4                  5.5771951849                  5.4862107220 ***
           1        5                -69.1427313144                -69.1427312731
           1        6                 -1.5197375330                 -1.5230432022
           1        7                  6.8210948310                  6.5529872240 ***
           1        8                  4.3216540965                  4.2851170187 ***
           2        9               -663.9471986398               -663.9470363334
           2       10                 16.8514011578                 16.8512525338
           2       11                -28.4490593856                -28.4490661472
           2       12                -11.1080115307                -11.1080620173
           2       13                  7.1940182175                  7.1685154137
           2       14                 44.8544281765                 44.8543763625
 * Note: Onsite integrals marked "***" above are less accurate than
 * onsite_accuracy_threshold =    0.03000 eV. Usually, this is harmless.
 * When in doubt, tighten the "radial" and/or "radial_multiplier" flags to check.

  Preparing densities etc. for the partition functions (integrals / Hartree potential).

  Preparations completed.
  max(cpu_time)          :      0.183 s.
  Wall clock time (cpu1) :      0.187 s.
------------------------------------------------------------

------------------------------------------------------------
          Begin self-consistency loop: Initialization.

          Date     :  20220517, Time     :  111026.728
------------------------------------------------------------

  Initializing index lists of integration centers etc. from given atomic structure:
  | Number of centers in hartree potential         :        12
  | Number of centers in hartree multipole         :        12
  | Number of centers in electron density summation:        12
  | Number of centers in basis integrals           :        12
  | Number of centers in integrals                 :        12
  | Number of centers in hamiltonian               :        12
  * Using 24 tasks for Scalapack Eigenvalue solver.
  Detailed listing of tasks and assigned k-points:
  (for non-periodic systems, the "k-point" denotes an internal label only)
   Task     0 k-point     1 on node-k98i-010
   Task     1 k-point     1 on node-k98i-010
   Task     2 k-point     1 on node-k98i-010
   Task     3 k-point     1 on node-k98i-010
   Task     4 k-point     1 on node-k98i-010
   Task     5 k-point     1 on node-k98i-010
   Task     6 k-point     1 on node-k98i-010
   Task     7 k-point     1 on node-k98i-010
   Task     8 k-point     1 on node-k98i-010
   Task     9 k-point     1 on node-k98i-010
   Task    10 k-point     1 on node-k98i-010
   Task    11 k-point     1 on node-k98i-010
   Task    12 k-point     1 on node-k98i-010
   Task    13 k-point     1 on node-k98i-010
   Task    14 k-point     1 on node-k98i-010
   Task    15 k-point     1 on node-k98i-010
   Task    16 k-point     1 on node-k98i-010
   Task    17 k-point     1 on node-k98i-010
   Task    18 k-point     1 on node-k98i-010
   Task    19 k-point     1 on node-k98i-010
   Task    20 k-point     1 on node-k98i-010
   Task    21 k-point     1 on node-k98i-010
   Task    22 k-point     1 on node-k98i-010
   Task    23 k-point     1 on node-k98i-010
  Tasks:    24 split into      6 X      4 BLACS grid
  Calculating block size based on n_basis =          180  max_nprow =            6  max_npcol =            4
  ScaLAPACK block size set to:           16
  Allocating        0.012 MB for ovlp
  Allocating        0.012 MB for ham
  Allocating        0.012 MB for eigenvec
  Required Scalapack workspace - INTEGER:            1  REAL:             1
  Partitioning the integration grid into batches with parallel hashing+maxmin method.
  | Number of batches:     1080
  | Maximal batch size:     200
  | Minimal batch size:      26
  | Average batch size:      85.111
  | Standard deviation of batch sizes:      25.698

  Integration load balanced across    24 MPI tasks.
  Work distribution over tasks is as follows:
  Task     0 has       3822 integration points.
  Task     1 has       3768 integration points.
  Task     2 has       3811 integration points.
  Task     3 has       3766 integration points.
  Task     4 has       3842 integration points.
  Task     5 has       3935 integration points.
  Task     6 has       3817 integration points.
  Task     7 has       3931 integration points.
  Task     8 has       3774 integration points.
  Task     9 has       3829 integration points.
  Task    10 has       3799 integration points.
  Task    11 has       3846 integration points.
  Task    12 has       3773 integration points.
  Task    13 has       3842 integration points.
  Task    14 has       3865 integration points.
  Task    15 has       3836 integration points.
  Task    16 has       3908 integration points.
  Task    17 has       3873 integration points.
  Task    18 has       3825 integration points.
  Task    19 has       3804 integration points.
  Task    20 has       3836 integration points.
  Task    21 has       3821 integration points.
  Task    22 has       3819 integration points.
  Task    23 has       3778 integration points.
  Initializing partition tables, free-atom densities, potentials, etc. across the integration grid (initialize_grid_storage).
  | initialize_grid_storage: Actual outermost partition radius vs. multipole_radius_free
  | (-- VB: in principle, multipole_radius_free should be larger, hence this output)
  | Species        1: Confinement radius =              4.999999999999999 AA, multipole_radius_free =              5.004487022111096 AA.
  | Species        1: outer_partition_radius set to              5.004487022111096 AA .
  | Species        2: Confinement radius =              4.999999999999999 AA, multipole_radius_free =              5.009370088163274 AA.
  | Species        2: outer_partition_radius set to              5.009370088163274 AA .
  | The sparse table of interatomic distances needs          1.64 kbyte instead of         1.15 kbyte of memory.
  | Using the partition_type stratmann_smoother will reduce your memory usage.
  | Net number of integration points:    91920
  | of which are non-zero points    :    85926
  Renormalizing the initial density to the exact electron count on the 3D integration grid.
  | Initial density: Formal number of electrons (from input files) :     120.0000000000
  | Integrated number of electrons on 3D grid     :     119.9999601496
  | Charge integration error                      :      -0.0000398504
  | Normalization factor for density and gradient :       1.0000003321
  Renormalizing the free-atom superposition density to the exact electron count on the 3D integration grid.
  | Formal number of electrons (from input files) :     120.0000000000
  | Integrated number of electrons on 3D grid     :     119.9999601496
  | Charge integration error                      :      -0.0000398504
  | Normalization factor for density and gradient :       1.0000003321
  Obtaining max. number of non-zero basis functions in each batch (get_n_compute_maxes).
  | Maximal number of non-zero basis functions:      160 in task     0
  | Maximal number of non-zero basis functions:      161 in task     1
  | Maximal number of non-zero basis functions:      164 in task     2
  | Maximal number of non-zero basis functions:      159 in task     3
  | Maximal number of non-zero basis functions:      166 in task     4
  | Maximal number of non-zero basis functions:      164 in task     5
  | Maximal number of non-zero basis functions:      159 in task     6
  | Maximal number of non-zero basis functions:      161 in task     7
  | Maximal number of non-zero basis functions:      165 in task     8
  | Maximal number of non-zero basis functions:      160 in task     9
  | Maximal number of non-zero basis functions:      163 in task    10
  | Maximal number of non-zero basis functions:      158 in task    11
  | Maximal number of non-zero basis functions:      163 in task    12
  | Maximal number of non-zero basis functions:      155 in task    13
  | Maximal number of non-zero basis functions:      154 in task    14
  | Maximal number of non-zero basis functions:      162 in task    15
  | Maximal number of non-zero basis functions:      164 in task    16
  | Maximal number of non-zero basis functions:      157 in task    17
  | Maximal number of non-zero basis functions:      158 in task    18
  | Maximal number of non-zero basis functions:      165 in task    19
  | Maximal number of non-zero basis functions:      163 in task    20
  | Maximal number of non-zero basis functions:      162 in task    21
  | Maximal number of non-zero basis functions:      159 in task    22
  | Maximal number of non-zero basis functions:      164 in task    23
  Selecting the method for density update.
  Loop over occupied states selected for charge density update.
  Allocating        0.132 MB for KS_eigenvector
  Integrating Hamiltonian matrix: batch-based integration.
  Time summed over all CPUs for integration: real work        0.689 s, elapsed        0.721 s
  Integrating overlap matrix.
  Time summed over all CPUs for integration: real work        0.262 s, elapsed        0.312 s
  Deallocating overlap matrix.

  Updating Kohn-Sham eigenvalues and eigenvectors using ELSI and the ELPA eigensolver.
  Overlap matrix is not singular
  | Lowest and highest eigenvalues :  0.3875E-02,  0.4855E+01
  Finished singularity check of overlap matrix
  | Time :     0.015 s
  Starting ELPA eigensolver
  Finished Cholesky decomposition
  | Time :     0.004 s
  Finished transformation to standard eigenproblem
  | Time :     0.001 s
  Finished solving standard eigenproblem
  | Time :     0.009 s
  Finished back-transformation of eigenvectors
  | Time :     0.003 s

  Obtaining occupation numbers and chemical potential using ELSI.
  | Chemical potential (Fermi level):    -7.90134465 eV
  Writing Kohn-Sham eigenvalues.

  State    Occupation    Eigenvalue [Ha]    Eigenvalue [eV]
      1       2.00000         -55.485029        -1509.82445
      2       2.00000         -55.483225        -1509.77536
      3       2.00000         -55.483224        -1509.77535
      4       2.00000         -24.358756         -662.83546
      5       2.00000         -24.358755         -662.83546
      6       2.00000         -24.355470         -662.74606
      7       2.00000         -24.355470         -662.74605
      8       2.00000         -24.338400         -662.28156
      9       2.00000         -24.336460         -662.22876
     10       2.00000         -24.336460         -662.22876
     11       2.00000         -24.336038         -662.21729
     12       2.00000         -24.336038         -662.21729
     13       2.00000          -3.950405         -107.49600
     14       2.00000          -3.947908         -107.42805
     15       2.00000          -3.947907         -107.42803
     16       2.00000          -2.542953          -69.19727
     17       2.00000          -2.542280          -69.17896
     18       2.00000          -2.541559          -69.15933
     19       2.00000          -2.540301          -69.12512
     20       2.00000          -2.540294          -69.12492
     21       2.00000          -2.539944          -69.11539
     22       2.00000          -2.539942          -69.11534
     23       2.00000          -2.538862          -69.08595
     24       2.00000          -2.538860          -69.08591
     25       2.00000          -1.188380          -32.33746
     26       2.00000          -1.178436          -32.06688
     27       2.00000          -1.176323          -32.00939
     28       2.00000          -1.163034          -31.64777
     29       2.00000          -1.145950          -31.18289
     30       2.00000          -1.143840          -31.12548
     31       2.00000          -1.143787          -31.12403
     32       2.00000          -1.141738          -31.06826
     33       2.00000          -1.141735          -31.06819
     34       2.00000          -0.554783          -15.09641
     35       2.00000          -0.547351          -14.89417
     36       2.00000          -0.533884          -14.52771
     37       2.00000          -0.531414          -14.46051
     38       2.00000          -0.514723          -14.00633
     39       2.00000          -0.501651          -13.65061
     40       2.00000          -0.490424          -13.34511
     41       2.00000          -0.488722          -13.29881
     42       2.00000          -0.488252          -13.28601
     43       2.00000          -0.483819          -13.16540
     44       2.00000          -0.480055          -13.06297
     45       2.00000          -0.478304          -13.01530
     46       2.00000          -0.477329          -12.98878
     47       2.00000          -0.471709          -12.83585
     48       2.00000          -0.471483          -12.82970
     49       2.00000          -0.469355          -12.77181
     50       2.00000          -0.456849          -12.43149
     51       2.00000          -0.450871          -12.26882
     52       2.00000          -0.449586          -12.23386
     53       2.00000          -0.448156          -12.19495
     54       2.00000          -0.447235          -12.16987
     55       2.00000          -0.446574          -12.15189
     56       2.00000          -0.445737          -12.12912
     57       2.00000          -0.443365          -12.06457
     58       2.00000          -0.442988          -12.05433
     59       2.00000          -0.442522          -12.04163
     60       2.00000          -0.441580          -12.01601
     61       0.00000          -0.145167           -3.95020
     62       0.00000          -0.122449           -3.33200
     63       0.00000          -0.082724           -2.25103
     64       0.00000          -0.031318           -0.85222
     65       0.00000          -0.016439           -0.44733
     66       0.00000          -0.003346           -0.09105
     67       0.00000           0.011853            0.32253
     68       0.00000           0.027313            0.74324
     69       0.00000           0.031796            0.86520
     70       0.00000           0.068492            1.86377
     71       0.00000           0.074792            2.03520
     72       0.00000           0.109092            2.96853
     73       0.00000           0.141729            3.85665
     74       0.00000           0.154963            4.21676
     75       0.00000           0.169018            4.59922
     76       0.00000           0.170654            4.64374
     77       0.00000           0.180696            4.91698
     78       0.00000           0.182394            4.96319
     79       0.00000           0.191554            5.21244
     80       0.00000           0.201941            5.49510
     81       0.00000           0.202898            5.52113
     82       0.00000           0.217159            5.90919
     83       0.00000           0.224534            6.10989
     84       0.00000           0.234616            6.38421
     85       0.00000           0.247209            6.72690
     86       0.00000           0.250170            6.80746
     87       0.00000           0.268567            7.30807
     88       0.00000           0.273624            7.44570
     89       0.00000           0.277274            7.54501
     90       0.00000           0.287260            7.81674
     91       0.00000           0.301166            8.19513
     92       0.00000           0.301486            8.20385
     93       0.00000           0.333629            9.07850
     94       0.00000           0.338478            9.21045
     95       0.00000           0.361051            9.82470
     96       0.00000           0.364113            9.90802

  Highest occupied state (VBM) at    -12.01600630 eV
  | Occupation number:      2.00000000

  Lowest unoccupied state (CBM) at    -3.95020358 eV
  | Occupation number:      0.00000000

  Overall HOMO-LUMO gap:      8.06580271 eV.
  Calculating total energy contributions from superposition of free atom densities.

  Total energy components:
  | Sum of eigenvalues            :        -887.19296766 Ha      -24141.74896879 eV
  | XC energy correction          :        -144.29328090 Ha       -3926.41994744 eV
  | XC potential correction       :         187.87556593 Ha        5112.35426258 eV
  | Free-atom electrostatic energy:        -781.72489974 Ha      -21271.81682005 eV
  | Hartree energy correction     :           0.00000000 Ha           0.00000000 eV
  | Entropy correction            :           0.00000000 Ha           0.00000000 eV
  | ---------------------------
  | Total energy                  :       -1625.33558238 Ha      -44227.63147370 eV
  | Total energy, T -> 0          :       -1625.33558238 Ha      -44227.63147370 eV  <-- do not rely on this value for anything but (periodic) metals
  | Electronic free energy        :       -1625.33558238 Ha      -44227.63147370 eV

  Derived energy quantities:
  | Kinetic energy                :        1627.52366616 Ha       44287.17226267 eV
  | Electrostatic energy          :       -3108.56596763 Ha      -84588.38378893 eV
  | Energy correction for multipole
  | error in Hartree potential    :           0.00000000 Ha           0.00000000 eV
  | Sum of eigenvalues per atom                           :       -2011.81241407 eV
  | Total energy (T->0) per atom                          :       -3685.63595614 eV  <-- do not rely on this value for anything but (periodic) metals
  | Electronic free energy per atom                       :       -3685.63595614 eV
  Initialize hartree_potential_storage
  Max. number of atoms included in rho_multipole:           12

  End scf initialization - timings             :  max(cpu_time)    wall_clock(cpu1)
  | Time for scf. initialization                :        0.165 s           0.165 s
  | Boundary condition initialization           :        0.000 s           0.000 s
  | Integration                                 :        0.050 s           0.050 s
  | Solution of K.-S. eqns.                     :        0.035 s           0.035 s
  | Grid partitioning                           :        0.043 s           0.044 s
  | Preloading free-atom quantities on grid     :        0.016 s           0.017 s
  | Free-atom superposition energy              :        0.007 s           0.007 s
  | Total energy evaluation                     :        0.000 s           0.000 s

  Partial memory accounting:
  | Current value for overall tracked memory usage:
  |   Minimum:        0.273 MB (on task 23)
  |   Maximum:        0.292 MB (on task  0)
  |   Average:        0.287 MB
  | Peak value for overall tracked memory usage:
  |   Minimum:        1.305 MB (on task 14 after allocating wave)
  |   Maximum:        1.390 MB (on task  4 after allocating wave)
  |   Average:        1.351 MB
  | Largest tracked array allocation so far:
  |   Minimum:        0.240 MB (H_times_psi on task 17)
  |   Maximum:        0.416 MB (all_coords on task 10)
  |   Average:        0.269 MB
  Note:  These values currently only include a subset of arrays which are explicitly tracked.
  The "true" memory usage will be greater.
------------------------------------------------------------
  Evaluating new KS density.
  Integration grid: deviation in total charge (<rho> - N_e) =   4.263256E-14

  Time for density update prior                :  max(cpu_time)    wall_clock(cpu1)
  | self-consistency iterative process          :        0.028 s           0.028 s

------------------------------------------------------------
          Begin self-consistency iteration #    1

  Date     :  20220517, Time     :  111026.923
------------------------------------------------------------
  Pulay mixing of updated and previous charge densities.
  Renormalizing the density to the exact electron count on the 3D integration grid.
  | Formal number of electrons (from input files) :     120.0000000000
  | Integrated number of electrons on 3D grid     :     120.0000000000
  | Charge integration error                      :      -0.0000000000
  | Normalization factor for density and gradient :       1.0000000000

  Evaluating partitioned Hartree potential by multipole expansion.
  | Original multipole sum: apparent total charge =  -0.399713E-13
  | Sum of charges compensated after spline to logarithmic grids =   0.149198E-03
  | Analytical far-field extrapolation by fixed multipoles:
  | Hartree multipole sum: apparent total charge =  -0.400451E-13
  Summing up the Hartree potential.
  Time summed over all CPUs for potential: real work        0.381 s, elapsed        0.408 s
  | RMS charge density error from multipole expansion :   0.105924E-01

  Integrating Hamiltonian matrix: batch-based integration.
  Time summed over all CPUs for integration: real work        0.638 s, elapsed        0.680 s

  Updating Kohn-Sham eigenvalues and eigenvectors using ELSI and the ELPA eigensolver.
  Starting ELPA eigensolver
  Finished transformation to standard eigenproblem
  | Time :     0.005 s
  Finished solving standard eigenproblem
  | Time :     0.018 s
  Finished back-transformation of eigenvectors
  | Time :     0.012 s

  Obtaining occupation numbers and chemical potential using ELSI.
  | Chemical potential (Fermi level):    -7.73539420 eV
  Writing Kohn-Sham eigenvalues.

  State    Occupation    Eigenvalue [Ha]    Eigenvalue [eV]
      1       2.00000         -55.660405        -1514.59669
      2       2.00000         -55.651242        -1514.34735
      3       2.00000         -55.651232        -1514.34708
      4       2.00000         -24.221109         -659.08991
      5       2.00000         -24.221099         -659.08964
      6       2.00000         -24.217093         -658.98063
      7       2.00000         -24.217090         -658.98056
      8       2.00000         -24.064348         -654.82423
      9       2.00000         -24.063195         -654.79286
     10       2.00000         -24.063193         -654.79280
     11       2.00000         -24.061503         -654.74681
     12       2.00000         -24.061498         -654.74668
     13       2.00000          -4.098788         -111.53370
     14       2.00000          -4.088503         -111.25383
     15       2.00000          -4.088499         -111.25372
     16       2.00000          -2.692836          -73.27578
     17       2.00000          -2.691393          -73.23654
     18       2.00000          -2.690193          -73.20388
     19       2.00000          -2.682643          -72.99844
     20       2.00000          -2.682638          -72.99829
     21       2.00000          -2.681001          -72.95376
     22       2.00000          -2.680996          -72.95362
     23       2.00000          -2.679824          -72.92173
     24       2.00000          -2.679821          -72.92165
     25       2.00000          -1.154959          -31.42804
     26       2.00000          -1.141543          -31.06296
     27       2.00000          -1.137758          -30.95997
     28       2.00000          -1.124855          -30.60887
     29       2.00000          -1.011090          -27.51316
     30       2.00000          -1.009428          -27.46793
     31       2.00000          -1.009413          -27.46754
     32       2.00000          -1.005129          -27.35095
     33       2.00000          -1.005125          -27.35084
     34       2.00000          -0.539791          -14.68846
     35       2.00000          -0.529701          -14.41390
     36       2.00000          -0.511153          -13.90919
     37       2.00000          -0.505946          -13.76749
     38       2.00000          -0.481382          -13.09906
     39       2.00000          -0.464113          -12.62915
     40       2.00000          -0.454117          -12.35714
     41       2.00000          -0.441116          -12.00337
     42       2.00000          -0.438570          -11.93410
     43       2.00000          -0.437663          -11.90941
     44       2.00000          -0.430289          -11.70875
     45       2.00000          -0.416031          -11.32078
     46       2.00000          -0.391483          -10.65279
     47       2.00000          -0.384829          -10.47173
     48       2.00000          -0.371166          -10.09994
     49       2.00000          -0.357653           -9.73222
     50       2.00000          -0.357337           -9.72363
     51       2.00000          -0.326621           -8.88780
     52       2.00000          -0.325959           -8.86980
     53       2.00000          -0.323368           -8.79930
     54       2.00000          -0.322045           -8.76328
     55       2.00000          -0.319906           -8.70507
     56       2.00000          -0.318311           -8.66168
     57       2.00000          -0.313459           -8.52965
     58       2.00000          -0.313267           -8.52444
     59       2.00000          -0.310464           -8.44815
     60       2.00000          -0.310033           -8.43643
     61       0.00000          -0.157499           -4.28578
     62       0.00000          -0.131596           -3.58090
     63       0.00000          -0.103194           -2.80805
     64       0.00000          -0.049022           -1.33396
     65       0.00000          -0.032393           -0.88145
     66       0.00000          -0.005168           -0.14063
     67       0.00000           0.008261            0.22480
     68       0.00000           0.009916            0.26984
     69       0.00000           0.026003            0.70758
     70       0.00000           0.040053            1.08991
     71       0.00000           0.068657            1.86826
     72       0.00000           0.090290            2.45692
     73       0.00000           0.137183            3.73293
     74       0.00000           0.143945            3.91695
     75       0.00000           0.161646            4.39862
     76       0.00000           0.165151            4.49399
     77       0.00000           0.172882            4.70435
     78       0.00000           0.185782            5.05539
     79       0.00000           0.192565            5.23996
     80       0.00000           0.195463            5.31881
     81       0.00000           0.204515            5.56515
     82       0.00000           0.208504            5.67367
     83       0.00000           0.220276            5.99402
     84       0.00000           0.222277            6.04846
     85       0.00000           0.237144            6.45301
     86       0.00000           0.239113            6.50660
     87       0.00000           0.250429            6.81452
     88       0.00000           0.260355            7.08462
     89       0.00000           0.262912            7.15420
     90       0.00000           0.267052            7.26684
     91       0.00000           0.300891            8.18767
     92       0.00000           0.304532            8.28674
     93       0.00000           0.318708            8.67249
     94       0.00000           0.348780            9.49080
     95       0.00000           0.367457            9.99900
     96       0.00000           0.372363           10.13253

  Highest occupied state (VBM) at     -8.43642579 eV
  | Occupation number:      2.00000000

  Lowest unoccupied state (CBM) at    -4.28577643 eV
  | Occupation number:      0.00000000

  Overall HOMO-LUMO gap:      4.15064937 eV.

  Total energy components:
  | Sum of eigenvalues            :        -881.77043356 Ha      -23994.19430831 eV
  | XC energy correction          :        -145.63168820 Ha       -3962.83986286 eV
  | XC potential correction       :         189.63520631 Ha        5160.23651370 eV
  | Free-atom electrostatic energy:        -781.72489974 Ha      -21271.81682005 eV
  | Hartree energy correction     :          -5.62394948 Ha        -153.03545160 eV
  | Entropy correction            :           0.00000000 Ha           0.00000000 eV
  | ---------------------------
  | Total energy                  :       -1625.11576466 Ha      -44221.64992912 eV
  | Total energy, T -> 0          :       -1625.11576466 Ha      -44221.64992912 eV  <-- do not rely on this value for anything but (periodic) metals
  | Electronic free energy        :       -1625.11576466 Ha      -44221.64992912 eV

  Derived energy quantities:
  | Kinetic energy                :        1633.85443838 Ha       44459.44133992 eV
  | Electrostatic energy          :       -3113.33851485 Ha      -84718.25140618 eV
  | Energy correction for multipole
  | error in Hartree potential    :           0.03836704 Ha           1.04402016 eV
  | Sum of eigenvalues per atom                           :       -1999.51619236 eV
  | Total energy (T->0) per atom                          :       -3685.13749409 eV  <-- do not rely on this value for anything but (periodic) metals
  | Electronic free energy per atom                       :       -3685.13749409 eV
  Evaluating new KS density.
  Integration grid: deviation in total charge (<rho> - N_e) =   0.000000E+00

  Self-consistency convergence accuracy:
  | Change of charge density      :  0.6038E+00
  | Change of sum of eigenvalues  :  0.1476E+03 eV
  | Change of total energy        :  0.5982E+01 eV


------------------------------------------------------------
  End self-consistency iteration #     1       :  max(cpu_time)    wall_clock(cpu1)
  | Time for this iteration                     :        0.131 s           0.131 s
  | Charge density update                       :        0.028 s           0.028 s
  | Density mixing                              :        0.001 s           0.001 s
  | Hartree multipole update                    :        0.008 s           0.008 s
  | Hartree multipole summation                 :        0.020 s           0.020 s
  | Integration                                 :        0.034 s           0.034 s
  | Solution of K.-S. eqns.                     :        0.038 s           0.038 s
  | Total energy evaluation                     :        0.000 s           0.001 s

  Partial memory accounting:
  | Current value for overall tracked memory usage:
  |   Minimum:        0.273 MB (on task 23)
  |   Maximum:        0.292 MB (on task  0)
  |   Average:        0.287 MB
  | Peak value for overall tracked memory usage:
  |   Minimum:        1.305 MB (on task 14 after allocating wave)
  |   Maximum:        1.390 MB (on task  4 after allocating wave)
  |   Average:        1.351 MB
  | Largest tracked array allocation so far:
  |   Minimum:        0.705 MB (gradient_basis_wave on task 14)
  |   Maximum:        0.760 MB (gradient_basis_wave on task  4)
  |   Average:        0.737 MB
  Note:  These values currently only include a subset of arrays which are explicitly tracked.
  The "true" memory usage will be greater.
------------------------------------------------------------

------------------------------------------------------------
          Begin self-consistency iteration #    2

  Date     :  20220517, Time     :  111027.064
------------------------------------------------------------
  Pulay mixing of updated and previous charge densities.
  Renormalizing the density to the exact electron count on the 3D integration grid.
  | Formal number of electrons (from input files) :     120.0000000000
  | Integrated number of electrons on 3D grid     :     120.0000000000
  | Charge integration error                      :       0.0000000000
  | Normalization factor for density and gradient :       1.0000000000

  Evaluating partitioned Hartree potential by multipole expansion.
  | Original multipole sum: apparent total charge =  -0.158163E-13
  | Sum of charges compensated after spline to logarithmic grids =   0.118289E-03
  | Analytical far-field extrapolation by fixed multipoles:
  | Hartree multipole sum: apparent total charge =  -0.139715E-13
  Summing up the Hartree potential.
  Time summed over all CPUs for potential: real work        0.380 s, elapsed        0.394 s
  | RMS charge density error from multipole expansion :   0.122502E-01

  Integrating Hamiltonian matrix: batch-based integration.
  Time summed over all CPUs for integration: real work        0.637 s, elapsed        0.674 s

  Updating Kohn-Sham eigenvalues and eigenvectors using ELSI and the ELPA eigensolver.
  Starting ELPA eigensolver
  Finished transformation to standard eigenproblem
  | Time :     0.005 s
  Finished solving standard eigenproblem
  | Time :     0.018 s
  Finished back-transformation of eigenvectors
  | Time :     0.004 s

  Obtaining occupation numbers and chemical potential using ELSI.
  | Chemical potential (Fermi level):    -7.96201553 eV
  Highest occupied state (VBM) at     -9.70731953 eV
  | Occupation number:      2.00000000

  Lowest unoccupied state (CBM) at    -4.51711720 eV
  | Occupation number:      0.00000000

  Overall HOMO-LUMO gap:      5.19020233 eV.

  Checking to see if s.c.f. parameters should be adjusted.

  Total energy components:
  | Sum of eigenvalues            :        -885.01727714 Ha      -24082.54541748 eV
  | XC energy correction          :        -145.11521091 Ha       -3948.78580078 eV
  | XC potential correction       :         188.95570487 Ha        5141.74633862 eV
  | Free-atom electrostatic energy:        -781.72489974 Ha      -21271.81682005 eV
  | Hartree energy correction     :          -2.14208460 Ha         -58.28908768 eV
  | Entropy correction            :           0.00000000 Ha           0.00000000 eV
  | ---------------------------
  | Total energy                  :       -1625.04376752 Ha      -44219.69078738 eV
  | Total energy, T -> 0          :       -1625.04376752 Ha      -44219.69078738 eV  <-- do not rely on this value for anything but (periodic) metals
  | Electronic free energy        :       -1625.04376752 Ha      -44219.69078738 eV

  Derived energy quantities:
  | Kinetic energy                :        1629.88570878 Ha       44351.44671257 eV
  | Electrostatic energy          :       -3109.81426539 Ha      -84622.35169917 eV
  | Energy correction for multipole
  | error in Hartree potential    :           0.04163989 Ha           1.13307910 eV
  | Sum of eigenvalues per atom                           :       -2006.87878479 eV
  | Total energy (T->0) per atom                          :       -3684.97423228 eV  <-- do not rely on this value for anything but (periodic) metals
  | Electronic free energy per atom                       :       -3684.97423228 eV
  Evaluating new KS density.
  Integration grid: deviation in total charge (<rho> - N_e) =   1.421085E-14

  Self-consistency convergence accuracy:
  | Change of charge density      :  0.5034E+00
  | Change of sum of eigenvalues  : -0.8835E+02 eV
  | Change of total energy        :  0.1959E+01 eV


------------------------------------------------------------
  End self-consistency iteration #     2       :  max(cpu_time)    wall_clock(cpu1)
  | Time for this iteration                     :        0.119 s           0.117 s
  | Charge density update                       :        0.027 s           0.027 s
  | Density mixing                              :        0.010 s           0.005 s
  | Hartree multipole update                    :        0.007 s           0.007 s
  | Hartree multipole summation                 :        0.018 s           0.018 s
  | Integration                                 :        0.031 s           0.031 s
  | Solution of K.-S. eqns.                     :        0.028 s           0.028 s
  | Total energy evaluation                     :        0.000 s           0.000 s

  Partial memory accounting:
  | Current value for overall tracked memory usage:
  |   Minimum:        0.274 MB (on task 23)
  |   Maximum:        0.293 MB (on task  0)
  |   Average:        0.288 MB
  | Peak value for overall tracked memory usage:
  |   Minimum:        1.305 MB (on task 14 after allocating wave)
  |   Maximum:        1.390 MB (on task  4 after allocating wave)
  |   Average:        1.351 MB
  | Largest tracked array allocation so far:
  |   Minimum:        0.705 MB (gradient_basis_wave on task 14)
  |   Maximum:        0.760 MB (gradient_basis_wave on task  4)
  |   Average:        0.737 MB
  Note:  These values currently only include a subset of arrays which are explicitly tracked.
  The "true" memory usage will be greater.
------------------------------------------------------------

------------------------------------------------------------
          Begin self-consistency iteration #    3

  Date     :  20220517, Time     :  111027.193
------------------------------------------------------------
  Pulay mixing of updated and previous charge densities.
  Renormalizing the density to the exact electron count on the 3D integration grid.
  | Formal number of electrons (from input files) :     120.0000000000
  | Integrated number of electrons on 3D grid     :     120.0000000000
  | Charge integration error                      :       0.0000000000
  | Normalization factor for density and gradient :       1.0000000000

  Evaluating partitioned Hartree potential by multipole expansion.
  | Original multipole sum: apparent total charge =  -0.129876E-13
  | Sum of charges compensated after spline to logarithmic grids =   0.159410E-03
  | Analytical far-field extrapolation by fixed multipoles:
  | Hartree multipole sum: apparent total charge =  -0.129876E-13
  Summing up the Hartree potential.
  Time summed over all CPUs for potential: real work        0.379 s, elapsed        0.393 s
  | RMS charge density error from multipole expansion :   0.168158E-01

  Integrating Hamiltonian matrix: batch-based integration.
  Time summed over all CPUs for integration: real work        0.637 s, elapsed        0.673 s

  Updating Kohn-Sham eigenvalues and eigenvectors using ELSI and the ELPA eigensolver.
  Starting ELPA eigensolver
  Finished transformation to standard eigenproblem
  | Time :     0.004 s
  Finished solving standard eigenproblem
  | Time :     0.012 s
  Finished back-transformation of eigenvectors
  | Time :     0.000 s

  Obtaining occupation numbers and chemical potential using ELSI.
  | Chemical potential (Fermi level):    -8.02671675 eV
  Highest occupied state (VBM) at     -9.36535065 eV
  | Occupation number:      2.00000000

  Lowest unoccupied state (CBM) at    -4.70666773 eV
  | Occupation number:      0.00000000

  Overall HOMO-LUMO gap:      4.65868292 eV.

  Total energy components:
  | Sum of eigenvalues            :        -886.02958688 Ha      -24110.09176708 eV
  | XC energy correction          :        -145.07710424 Ha       -3947.74886556 eV
  | XC potential correction       :         188.90439149 Ha        5140.35003049 eV
  | Free-atom electrostatic energy:        -781.72489974 Ha      -21271.81682005 eV
  | Hartree energy correction     :          -1.11577144 Ha         -30.36168573 eV
  | Entropy correction            :           0.00000000 Ha           0.00000000 eV
  | ---------------------------
  | Total energy                  :       -1625.04297082 Ha      -44219.66910793 eV
  | Total energy, T -> 0          :       -1625.04297082 Ha      -44219.66910793 eV  <-- do not rely on this value for anything but (periodic) metals
  | Electronic free energy        :       -1625.04297082 Ha      -44219.66910793 eV

  Derived energy quantities:
  | Kinetic energy                :        1628.15088713 Ha       44304.23981378 eV
  | Electrostatic energy          :       -3108.11675371 Ha      -84576.16005615 eV
  | Energy correction for multipole
  | error in Hartree potential    :           0.05592003 Ha           1.52166140 eV
  | Sum of eigenvalues per atom                           :       -2009.17431392 eV
  | Total energy (T->0) per atom                          :       -3684.97242566 eV  <-- do not rely on this value for anything but (periodic) metals
  | Electronic free energy per atom                       :       -3684.97242566 eV
  Evaluating new KS density.
  Integration grid: deviation in total charge (<rho> - N_e) =   2.842171E-14

  Self-consistency convergence accuracy:
  | Change of charge density      :  0.1298E+00
  | Change of sum of eigenvalues  : -0.2755E+02 eV
  | Change of total energy        :  0.2168E-01 eV


------------------------------------------------------------
  End self-consistency iteration #     3       :  max(cpu_time)    wall_clock(cpu1)
  | Time for this iteration                     :        0.108 s           0.103 s
  | Charge density update                       :        0.027 s           0.028 s
  | Density mixing                              :        0.011 s           0.004 s
  | Hartree multipole update                    :        0.004 s           0.004 s
  | Hartree multipole summation                 :        0.017 s           0.017 s
  | Integration                                 :        0.031 s           0.030 s
  | Solution of K.-S. eqns.                     :        0.019 s           0.020 s
  | Total energy evaluation                     :        0.000 s           0.000 s

  Partial memory accounting:
  | Current value for overall tracked memory usage:
  |   Minimum:        0.274 MB (on task 23)
  |   Maximum:        0.293 MB (on task  0)
  |   Average:        0.288 MB
  | Peak value for overall tracked memory usage:
  |   Minimum:        1.305 MB (on task 14 after allocating wave)
  |   Maximum:        1.390 MB (on task  4 after allocating wave)
  |   Average:        1.351 MB
  | Largest tracked array allocation so far:
  |   Minimum:        0.705 MB (gradient_basis_wave on task 14)
  |   Maximum:        0.760 MB (gradient_basis_wave on task  4)
  |   Average:        0.737 MB
  Note:  These values currently only include a subset of arrays which are explicitly tracked.
  The "true" memory usage will be greater.
------------------------------------------------------------

------------------------------------------------------------
          Begin self-consistency iteration #    4

  Date     :  20220517, Time     :  111027.307
------------------------------------------------------------
  Pulay mixing of updated and previous charge densities.
  Renormalizing the density to the exact electron count on the 3D integration grid.
  | Formal number of electrons (from input files) :     120.0000000000
  | Integrated number of electrons on 3D grid     :     120.0000000000
  | Charge integration error                      :       0.0000000000
  | Normalization factor for density and gradient :       1.0000000000

  Evaluating partitioned Hartree potential by multipole expansion.
  | Original multipole sum: apparent total charge =   0.528359E-13
  | Sum of charges compensated after spline to logarithmic grids =   0.176011E-03
  | Analytical far-field extrapolation by fixed multipoles:
  | Hartree multipole sum: apparent total charge =   0.557385E-13
  Summing up the Hartree potential.
  Time summed over all CPUs for potential: real work        0.379 s, elapsed        0.394 s
  | RMS charge density error from multipole expansion :   0.188566E-01

  Integrating Hamiltonian matrix: batch-based integration.
  Time summed over all CPUs for integration: real work        0.638 s, elapsed        0.691 s

  Updating Kohn-Sham eigenvalues and eigenvectors using ELSI and the ELPA eigensolver.
  Starting ELPA eigensolver
  Finished transformation to standard eigenproblem
  | Time :     0.006 s
  Finished solving standard eigenproblem
  | Time :     0.013 s
  Finished back-transformation of eigenvectors
  | Time :     0.002 s

  Obtaining occupation numbers and chemical potential using ELSI.
  | Chemical potential (Fermi level):    -8.01465658 eV
  Highest occupied state (VBM) at     -9.51251919 eV
  | Occupation number:      2.00000000

  Lowest unoccupied state (CBM) at    -4.66765390 eV
  | Occupation number:      0.00000000

  Overall HOMO-LUMO gap:      4.84486529 eV.

  Total energy components:
  | Sum of eigenvalues            :        -886.17970615 Ha      -24114.17672015 eV
  | XC energy correction          :        -145.05798917 Ha       -3947.22871808 eV
  | XC potential correction       :         188.87857066 Ha        5139.64741002 eV
  | Free-atom electrostatic energy:        -781.72489974 Ha      -21271.81682005 eV
  | Hartree energy correction     :          -0.95641614 Ha         -26.02540735 eV
  | Entropy correction            :           0.00000000 Ha           0.00000000 eV
  | ---------------------------
  | Total energy                  :       -1625.04044054 Ha      -44219.60025561 eV
  | Total energy, T -> 0          :       -1625.04044054 Ha      -44219.60025561 eV  <-- do not rely on this value for anything but (periodic) metals
  | Electronic free energy        :       -1625.04044054 Ha      -44219.60025561 eV

  Derived energy quantities:
  | Kinetic energy                :        1627.45483283 Ha       44285.29921253 eV
  | Electrostatic energy          :       -3107.43728420 Ha      -84557.67075006 eV
  | Energy correction for multipole
  | error in Hartree potential    :           0.06183493 Ha           1.68261405 eV
  | Sum of eigenvalues per atom                           :       -2009.51472668 eV
  | Total energy (T->0) per atom                          :       -3684.96668797 eV  <-- do not rely on this value for anything but (periodic) metals
  | Electronic free energy per atom                       :       -3684.96668797 eV
  Evaluating new KS density.
  Integration grid: deviation in total charge (<rho> - N_e) =   5.684342E-14

  Self-consistency convergence accuracy:
  | Change of charge density      :  0.9119E-01
  | Change of sum of eigenvalues  : -0.4085E+01 eV
  | Change of total energy        :  0.6885E-01 eV


------------------------------------------------------------
  End self-consistency iteration #     4       :  max(cpu_time)    wall_clock(cpu1)
  | Time for this iteration                     :        0.111 s           0.106 s
  | Charge density update                       :        0.027 s           0.027 s
  | Density mixing                              :        0.009 s           0.002 s
  | Hartree multipole update                    :        0.001 s           0.001 s
  | Hartree multipole summation                 :        0.019 s           0.019 s
  | Integration                                 :        0.034 s           0.034 s
  | Solution of K.-S. eqns.                     :        0.022 s           0.022 s
  | Total energy evaluation                     :        0.000 s           0.000 s

  Partial memory accounting:
  | Current value for overall tracked memory usage:
  |   Minimum:        0.274 MB (on task 23)
  |   Maximum:        0.293 MB (on task  0)
  |   Average:        0.288 MB
  | Peak value for overall tracked memory usage:
  |   Minimum:        1.305 MB (on task 14 after allocating wave)
  |   Maximum:        1.390 MB (on task  4 after allocating wave)
  |   Average:        1.351 MB
  | Largest tracked array allocation so far:
  |   Minimum:        0.705 MB (gradient_basis_wave on task 14)
  |   Maximum:        0.760 MB (gradient_basis_wave on task  4)
  |   Average:        0.737 MB
  Note:  These values currently only include a subset of arrays which are explicitly tracked.
  The "true" memory usage will be greater.
------------------------------------------------------------

------------------------------------------------------------
          Begin self-consistency iteration #    5

  Date     :  20220517, Time     :  111027.417
------------------------------------------------------------
  Pulay mixing of updated and previous charge densities.
  Renormalizing the density to the exact electron count on the 3D integration grid.
  | Formal number of electrons (from input files) :     120.0000000000
  | Integrated number of electrons on 3D grid     :     120.0000000000
  | Charge integration error                      :      -0.0000000000
  | Normalization factor for density and gradient :       1.0000000000

  Evaluating partitioned Hartree potential by multipole expansion.
  | Original multipole sum: apparent total charge =  -0.871744E-13
  | Sum of charges compensated after spline to logarithmic grids =   0.175320E-03
  | Analytical far-field extrapolation by fixed multipoles:
  | Hartree multipole sum: apparent total charge =  -0.853542E-13
  Summing up the Hartree potential.
  Time summed over all CPUs for potential: real work        0.379 s, elapsed        0.393 s
  | RMS charge density error from multipole expansion :   0.186147E-01

  Integrating Hamiltonian matrix: batch-based integration.
  Time summed over all CPUs for integration: real work        0.637 s, elapsed        0.676 s

  Updating Kohn-Sham eigenvalues and eigenvectors using ELSI and the ELPA eigensolver.
  Starting ELPA eigensolver
  Finished transformation to standard eigenproblem
  | Time :     0.006 s
  Finished solving standard eigenproblem
  | Time :     0.015 s
  Finished back-transformation of eigenvectors
  | Time :     0.003 s

  Obtaining occupation numbers and chemical potential using ELSI.
  | Chemical potential (Fermi level):    -7.99034421 eV
  Highest occupied state (VBM) at     -9.57385617 eV
  | Occupation number:      2.00000000

  Lowest unoccupied state (CBM) at    -4.61479785 eV
  | Occupation number:      0.00000000

  Overall HOMO-LUMO gap:      4.95905832 eV.

  Total energy components:
  | Sum of eigenvalues            :        -885.98413354 Ha      -24108.85491857 eV
  | XC energy correction          :        -145.05242388 Ha       -3947.07727878 eV
  | XC potential correction       :         188.87145047 Ha        5139.45365986 eV
  | Free-atom electrostatic energy:        -781.72489974 Ha      -21271.81682005 eV
  | Hartree energy correction     :          -1.15024566 Ha         -31.29977705 eV
  | Entropy correction            :           0.00000000 Ha           0.00000000 eV
[...]
   Total forces(   7)            :  0.479365E+00 -0.164237E+01 -0.244827E+01
  atom #    8
   Hellmann-Feynman              :  0.171428E+01  0.269075E+01 -0.131430E+00
   Ionic forces                  :  0.000000E+00  0.000000E+00  0.000000E+00
   Multipole                     :  0.346051E+00  0.420151E+00 -0.473790E-01
   Hartree pot. SCF incomplete   :  0.699493E-06 -0.670309E-06 -0.343477E-06
   Pulay + GGA                   : -0.404628E+01 -0.596229E+01  0.376359E+00
   ----------------------------------------------------------------
   Total forces(   8)            : -0.198596E+01 -0.285139E+01  0.197550E+00
  atom #    9
   Hellmann-Feynman              :  0.703646E+00 -0.100645E+01 -0.199787E+00
   Ionic forces                  :  0.000000E+00  0.000000E+00  0.000000E+00
   Multipole                     :  0.443442E-01 -0.238055E+00 -0.496375E+00
   Hartree pot. SCF incomplete   : -0.349930E-06 -0.435371E-06 -0.134784E-05
   Pulay + GGA                   : -0.151775E+01  0.287399E+01  0.226567E+01
   ----------------------------------------------------------------
   Total forces(   9)            : -0.769765E+00  0.162948E+01  0.156951E+01
  atom #   10
   Hellmann-Feynman              : -0.820564E+00  0.286589E+00 -0.227265E+00
   Ionic forces                  :  0.000000E+00  0.000000E+00  0.000000E+00
   Multipole                     : -0.196929E+00  0.505138E+00 -0.240237E+00
   Hartree pot. SCF incomplete   :  0.602823E-06  0.693091E-07  0.207329E-05
   Pulay + GGA                   :  0.268419E+01 -0.301854E+01  0.155624E+01
   ----------------------------------------------------------------
   Total forces(  10)            :  0.166670E+01 -0.222681E+01  0.108874E+01
  atom #   11
   Hellmann-Feynman              :  0.230124E+01  0.510869E+00  0.148074E+01
   Ionic forces                  :  0.000000E+00  0.000000E+00  0.000000E+00
   Multipole                     :  0.638029E+00 -0.114051E-02  0.265334E+00
   Hartree pot. SCF incomplete   :  0.818864E-06  0.467802E-06 -0.253012E-06
   Pulay + GGA                   : -0.603285E+01 -0.659597E+00 -0.359425E+01
   ----------------------------------------------------------------
   Total forces(  11)            : -0.309357E+01 -0.149869E+00 -0.184818E+01
  atom #   12
   Hellmann-Feynman              : -0.161713E+01 -0.225253E+01  0.132555E+00
   Ionic forces                  :  0.000000E+00  0.000000E+00  0.000000E+00
   Multipole                     : -0.247148E+00 -0.587313E+00 -0.293926E-01
   Hartree pot. SCF incomplete   : -0.349627E-06 -0.611090E-06 -0.202848E-06
   Pulay + GGA                   :  0.343777E+01  0.604455E+01 -0.452634E+00
   ----------------------------------------------------------------
   Total forces(  12)            :  0.157349E+01  0.320471E+01 -0.349472E+00


  Self-consistency convergence accuracy:
  | Change of charge density      :  0.1305E-06
  | Change of sum of eigenvalues  : -0.2143E-06 eV
  | Change of total energy        : -0.7858E-09 eV
  | Change of forces              :  0.4413E-06 eV/A

  Writing Kohn-Sham eigenvalues.

  State    Occupation    Eigenvalue [Ha]    Eigenvalue [eV]
      1       2.00000         -55.645534        -1514.19202
      2       2.00000         -55.629942        -1513.76774
      3       2.00000         -55.629921        -1513.76717
      4       2.00000         -24.303036         -661.31926
      5       2.00000         -24.303035         -661.31924
      6       2.00000         -24.298353         -661.19183
      7       2.00000         -24.298346         -661.19164
      8       2.00000         -24.208290         -658.74110
      9       2.00000         -24.208290         -658.74109
     10       2.00000         -24.207224         -658.71209
     11       2.00000         -24.207223         -658.71206
     12       2.00000         -24.206363         -658.68865
     13       2.00000          -4.096852         -111.48102
     14       2.00000          -4.081277         -111.05720
     15       2.00000          -4.081266         -111.05691
     16       2.00000          -2.689441          -73.18340
     17       2.00000          -2.689183          -73.17640
     18       2.00000          -2.686637          -73.10710
     19       2.00000          -2.675682          -72.80901
     20       2.00000          -2.675669          -72.80867
     21       2.00000          -2.672572          -72.72438
     22       2.00000          -2.672560          -72.72407
     23       2.00000          -2.670162          -72.65879
     24       2.00000          -2.670152          -72.65853
     25       2.00000          -1.180329          -32.11838
     26       2.00000          -1.165427          -31.71288
     27       2.00000          -1.162245          -31.62628
     28       2.00000          -1.151698          -31.33929
     29       2.00000          -1.052324          -28.63520
     30       2.00000          -1.052246          -28.63308
     31       2.00000          -1.051546          -28.61403
     32       2.00000          -1.048892          -28.54180
     33       2.00000          -1.048889          -28.54174
     34       2.00000          -0.561590          -15.28165
     35       2.00000          -0.551159          -14.99781
     36       2.00000          -0.532492          -14.48985
     37       2.00000          -0.528106          -14.37050
     38       2.00000          -0.504057          -13.71610
     39       2.00000          -0.485613          -13.21421
     40       2.00000          -0.480502          -13.07512
     41       2.00000          -0.468229          -12.74116
     42       2.00000          -0.460869          -12.54088
     43       2.00000          -0.460559          -12.53245
     44       2.00000          -0.458367          -12.47279
     45       2.00000          -0.441774          -12.02129
     46       2.00000          -0.426073          -11.59405
     47       2.00000          -0.420692          -11.44762
     48       2.00000          -0.408663          -11.12030
     49       2.00000          -0.399257          -10.86433
     50       2.00000          -0.399113          -10.86041
     51       2.00000          -0.364059           -9.90655
     52       2.00000          -0.363574           -9.89336
     53       2.00000          -0.360889           -9.82030
     54       2.00000          -0.359941           -9.79450
     55       2.00000          -0.357556           -9.72959
     56       2.00000          -0.356100           -9.68996
     57       2.00000          -0.353937           -9.63112
     58       2.00000          -0.353845           -9.62861
     59       2.00000          -0.351236           -9.55762
     60       2.00000          -0.350947           -9.54976
     61       0.00000          -0.169545           -4.61354
     62       0.00000          -0.143530           -3.90565
     63       0.00000          -0.112689           -3.06641
     64       0.00000          -0.053640           -1.45962
     65       0.00000          -0.037977           -1.03342
     66       0.00000          -0.010883           -0.29614
     67       0.00000           0.002383            0.06484
     68       0.00000           0.004794            0.13045
     69       0.00000           0.020425            0.55580
     70       0.00000           0.035892            0.97668
     71       0.00000           0.062933            1.71249
     72       0.00000           0.086239            2.34667
     73       0.00000           0.129370            3.52035
     74       0.00000           0.142301            3.87220
     75       0.00000           0.155633            4.23500
     76       0.00000           0.161311            4.38950
     77       0.00000           0.168077            4.57360
     78       0.00000           0.177777            4.83757
     79       0.00000           0.188903            5.14032
     80       0.00000           0.189309            5.15137
     81       0.00000           0.198891            5.41211
     82       0.00000           0.203777            5.54507
     83       0.00000           0.214619            5.84008
     84       0.00000           0.215234            5.85682
     85       0.00000           0.229872            6.25512
     86       0.00000           0.234715            6.38692
     87       0.00000           0.246888            6.71817
     88       0.00000           0.256833            6.98877
     89       0.00000           0.257125            6.99672
     90       0.00000           0.262177            7.13419
     91       0.00000           0.294705            8.01932
     92       0.00000           0.299160            8.14057
     93       0.00000           0.313556            8.53230
     94       0.00000           0.339761            9.24537
     95       0.00000           0.359735            9.78889
     96       0.00000           0.362825            9.87298

  Highest occupied state (VBM) at     -9.54975540 eV
  | Occupation number:      2.00000000

  Lowest unoccupied state (CBM) at    -4.61354353 eV
  | Occupation number:      0.00000000

  Overall HOMO-LUMO gap:      4.93621187 eV.
  | Chemical Potential                          :    -7.98716002 eV

  Self-consistency cycle converged.


------------------------------------------------------------
  End self-consistency iteration #    14       :  max(cpu_time)    wall_clock(cpu1)
  | Time for this iteration                     :        0.265 s           0.266 s
  | Charge density & force component update     :        0.142 s           0.142 s
  | Density mixing                              :        0.005 s           0.006 s
  | Hartree multipole update                    :        0.001 s           0.001 s
  | Hartree multipole summation                 :        0.050 s           0.050 s
  | Hartree pot. SCF incomplete forces          :        0.033 s           0.033 s
  | Integration                                 :        0.029 s           0.029 s
  | Solution of K.-S. eqns.                     :        0.004 s           0.004 s
  | Total energy evaluation                     :        0.000 s           0.000 s

  Partial memory accounting:
  | Current value for overall tracked memory usage:
  |   Minimum:        0.274 MB (on task 23)
  |   Maximum:        0.293 MB (on task  0)
  |   Average:        0.289 MB
  | Peak value for overall tracked memory usage:
  |   Minimum:        2.917 MB (on task 14 after allocating hessian_basis_wave)
  |   Maximum:        3.100 MB (on task  4 after allocating hessian_basis_wave)
  |   Average:        3.021 MB
  | Largest tracked array allocation so far:
  |   Minimum:        1.410 MB (hessian_basis_wave on task 14)
  |   Maximum:        1.520 MB (hessian_basis_wave on task  4)
  |   Average:        1.475 MB
  Note:  These values currently only include a subset of arrays which are explicitly tracked.
  The "true" memory usage will be greater.
------------------------------------------------------------
  Removing unitary transformations (pure translations, rotations) from forces on atoms.
  Atomic forces before filtering:
  | Net force on center of mass :   0.767565E-02 -0.400343E-02  0.275240E-02 eV/A
  | Net torque on center of mass:   0.728578E-02 -0.341080E-02  0.283981E-02 eV
  Atomic forces after filtering:
  | Net force on center of mass :  -0.535218E-15  0.107044E-14  0.182866E-14 eV/A
  | Net torque on center of mass:   0.000000E+00 -0.160494E-14 -0.226580E-14 eV

  Energy and forces in a compact form:
  | Total energy uncorrected      :         -0.442195948462971E+05 eV
  | Total energy corrected        :         -0.442195948462971E+05 eV  <-- do not rely on this value for anything but (periodic) metals
  | Electronic free energy        :         -0.442195948462971E+05 eV
  Total atomic forces (unitary forces cleaned) [eV/Ang]:
  |    1          0.142477517277779E+01         -0.256144653042184E+01          0.150527694422278E+01
  |    2          0.171434150549443E+01          0.240210753948731E+01         -0.179986626650045E+00
  |    3          0.447461552417687E-02         -0.186358819112221E+01         -0.271623496631445E+01
  |    4          0.178203202020106E+01          0.310654281114867E+01          0.263829215920584E+00
  |    5         -0.138503021390153E+01          0.193143574950909E+01         -0.257399276482463E+00
  |    6         -0.140751600622304E+01         -0.981170505928417E+00          0.317629112080101E+01
  |    7          0.478909342286657E+00         -0.164193623894882E+01         -0.244861209167569E+01
  |    8         -0.198630347423160E+01         -0.285140929505352E+01          0.196967655396695E+00
  |    9         -0.770625803828880E+00          0.162950674564569E+01          0.156934097294051E+01
  |   10          0.166631168474050E+01         -0.222620865459744E+01          0.108840311039129E+01
  |   11         -0.309403206964415E+01         -0.149369719733476E+00         -0.184849244883125E+01
  |   12          0.157266322680459E+01          0.320553629001496E+01         -0.349383609718967E+00

  ------------------------------------ 
  Start decomposition of the XC Energy 
  ------------------------------------ 
  X and C from original XC functional choice 
  Hartree-Fock Energy :          0.000000000 Ha              0.000000000 eV
  X Energy            :       -140.120354826 Ha          -3812.868851447 eV
  C Energy            :         -4.937260216 Ha           -134.349686127 eV
  Total XC Energy     :       -145.057615042 Ha          -3947.218537574 eV
  ------------------------------------ 
  LDA X and C from self-consistent density 
  X Energy LDA        :       -132.690722348 Ha          -3610.698265397 eV
  C Energy LDA        :         -8.819742757 Ha           -239.997411356 eV
  ------------------------------------ 
  End decomposition of the XC Energy 
  ------------------------------------ 

------------------------------------------------------------

------------------------------------------------------------------------------
  Final output of selected total energy values:

  The following output summarizes some interesting total energy values
  at the end of a run (AFTER all relaxation, molecular dynamics, etc.).

  | Total energy of the DFT / Hartree-Fock s.c.f. calculation      :         -44219.594846297 eV
  | Final zero-broadening corrected energy (caution - metals only) :         -44219.594846297 eV
  | For reference only, the value of 1 Hartree used in FHI-aims is :             27.211384500 eV

  Before relying on these values, please be sure to understand exactly which
  total energy value is referred to by a given number. Different objects may
  all carry the same name 'total energy'. Definitions:

  Total energy of the DFT / Hartree-Fock s.c.f. calculation:
  | Note that this energy does not include ANY quantities calculated after the
  | s.c.f. cycle, in particular not ANY RPA, MP2, etc. many-body perturbation terms.

  Final zero-broadening corrected energy:
  | For metallic systems only, a broadening of the occupation numbers at the Fermi
  | level can be extrapolated back to zero broadening by an electron-gas inspired
  | formula. For all systems that are not real metals, this value can be
  | meaningless and should be avoided.

------------------------------------------------------------------------------
  Methods described in the following list of references were used in this FHI-aims run.
  If you publish the results, please make sure to cite these reference if they apply.
  FHI-aims is an academic code, and for our developers (often, Ph.D. students
  and postdocs), scientific credit in the community is essential.
  Thank you for helping us!

  For any use of FHI-aims, please cite:

    Volker Blum, Ralf Gehrke, Felix Hanke, Paula Havu, Ville Havu,
    Xinguo Ren, Karsten Reuter, and Matthias Scheffler
    'Ab initio molecular simulations with numeric atom-centered orbitals'
    Computer Physics Communications 180, 2175-2196 (2009)
    http://dx.doi.org/10.1016/j.cpc.2009.06.022


  The ELSI infrastructure was used in your run to solve the Kohn-Sham electronic structure.
  Please check out http://elsi-interchange.org to learn more.
  If scalability is important for your project, please acknowledge ELSI by citing:

    V. W-z. Yu, F. Corsetti, A. Garcia, W. P. Huhn, M. Jacquelin, W. Jia,
    B. Lange, L. Lin, J. Lu, W. Mi, A. Seifitokaldani, A. Vazquez-Mayagoitia,
    C. Yang, H. Yang, and V. Blum
    'ELSI: A unified software interface for Kohn-Sham electronic structure solvers'
    Computer Physics Communications 222, 267-285 (2018).
    http://dx.doi.org/10.1016/j.cpc.2017.09.007


  For the real-space grid partitioning and parallelization used in this calculation, please cite:

    Ville Havu, Volker Blum, Paula Havu, and Matthias Scheffler,
    'Efficient O(N) integration for all-electron electronic structure calculation'
    'using numerically tabulated basis functions'
    Journal of Computational Physics 228, 8367-8379 (2009).
    http://dx.doi.org/10.1016/j.jcp.2009.08.008

  Of course, there are many other important community references, e.g., those cited in the
  above references. Our list is limited to references that describe implementations in the
  FHI-aims code. The reason is purely practical (length of this list) - please credit others as well.

------------------------------------------------------------
          Leaving FHI-aims.
          Date     :  20220517, Time     :  111028.749

          Computational steps:
          | Number of self-consistency cycles          :           14
          | Number of SCF (re)initializations          :            1

          Detailed time accounting                     :  max(cpu_time)    wall_clock(cpu1)
          | Total time                                  :        2.188 s           2.265 s
          | Preparation time                            :        0.183 s           0.187 s
          | Boundary condition initalization            :        0.000 s           0.000 s
          | Grid partitioning                           :        0.043 s           0.044 s
          | Preloading free-atom quantities on grid     :        0.016 s           0.017 s
          | Free-atom superposition energy              :        0.007 s           0.007 s
          | Total time for integrations                 :        0.473 s           0.476 s
          | Total time for solution of K.-S. equations  :        0.250 s           0.249 s
          | Total time for density & force components   :        0.630 s           0.631 s
          | Total time for mixing                       :        0.087 s           0.058 s
          | Total time for Hartree multipole update     :        0.036 s           0.035 s
          | Total time for Hartree multipole sum        :        0.314 s           0.315 s
          | Total time for total energy evaluation      :        0.002 s           0.003 s
          | Total time NSC force correction             :        0.066 s           0.066 s
          | Total time for scaled ZORA corrections      :        0.000 s           0.000 s

          Partial memory accounting:
          | Residual value for overall tracked memory usage across tasks:     0.000000 MB (should be 0.000000 MB)
          | Peak values for overall tracked memory usage:
          |   Minimum:        2.917 MB (on task 14 after allocating hessian_basis_wave)
          |   Maximum:        3.100 MB (on task  4 after allocating hessian_basis_wave)
          |   Average:        3.021 MB
          | Largest tracked array allocation:
          |   Minimum:        1.410 MB (hessian_basis_wave on task 14)
          |   Maximum:        1.520 MB (hessian_basis_wave on task  4)
          |   Average:        1.475 MB
          Note:  These values currently only include a subset of arrays which are explicitly tracked.
          The "true" memory usage will be greater.

          Have a nice day.
------------------------------------------------------------
