********************************************************************************
*                       GENERAL UTILITY LATTICE PROGRAM                        *
*                                 Julian Gale                                  *
*                       Curtin Institute for Computation                       *
*                           Department of Chemistry                            *
*                    Curtin University, Western Australia                      *
********************************************************************************
* Version = 5.1.1 * Last modified =  24th November 2018                        *
********************************************************************************
*  optimise     - perform optimisation run                                     *
*  conp         - constant pressure calculation                                *
*  shell        - only shells and radii to be optimised                        *
*  phonon       - calculate phonons for final geometry                         *
*  eigenvectors - output phonon eigenvectors                                   *
********************************************************************************

  Job Started  at 14:39.05 25th May        2022                               

  Number of CPUs =     1

  Host name      = login03                                 


  Total number of configurations input =      1

********************************************************************************
*  Input for Configuration =   1                                               *
********************************************************************************

  Formula = Al3F9                                                       

  Number of irreducible atoms/shells =      21


  Total number atoms/shells =      21

  Dimensionality = 0               :  Cluster


  Charge on cluster =  -0.000000


  Initial cluster dipoles : x =      0.269283 e.Angs
                            y =      0.014651 e.Angs
                            z =     -0.241678 e.Angs

  Temperature of configuration =  0.000     K 

  Symmetry number =      1

  Cartesian coordinates of cluster :

--------------------------------------------------------------------------------
   No.  Atomic       x           y          z         Charge      Occupancy
        Label      (Angs)      (Angs)     (Angs)        (e)         (Frac)  
--------------------------------------------------------------------------------
      1 Al    c     -0.3596      1.0128     -1.8191     3.00000    1.000000    
      2 Al    c     -0.4486      1.0778      1.2816     3.00000    1.000000    
      3 Al    c     -3.0217      0.4667     -1.8590     3.00000    1.000000    
      4 F     c     -3.5327      0.3194     -3.5998     0.59000    1.000000    
      5 F     c     -1.3882     -0.5720     -1.8206     0.59000    1.000000    
      6 F     c     -1.9309      2.0609     -1.9138     0.59000    1.000000    
      7 F     c     -2.0420      0.7515      0.4550     0.59000    1.000000    
      8 F     c      0.6068      1.2217     -0.2939     0.59000    1.000000    
      9 F     c     -0.3383      2.7367      2.0107     0.59000    1.000000    
     10 F     c      0.4012     -0.3426      2.0298     0.59000    1.000000    
     11 F     c     -4.2759      0.2073     -0.5807     0.59000    1.000000    
     12 F     c      0.7410      1.2744     -3.2344     0.59000    1.000000    
     13 F     s     -3.5327 *    0.3194 *   -3.5998 *  -1.59000    1.000000    
     14 F     s     -1.3882 *   -0.5720 *   -1.8206 *  -1.59000    1.000000    
     15 F     s     -1.9309 *    2.0609 *   -1.9138 *  -1.59000    1.000000    
     16 F     s     -2.0420 *    0.7515 *    0.4550 *  -1.59000    1.000000    
     17 F     s      0.6068 *    1.2217 *   -0.2939 *  -1.59000    1.000000    
     18 F     s     -0.3383 *    2.7367 *    2.0107 *  -1.59000    1.000000    
     19 F     s      0.4012 *   -0.3426 *    2.0298 *  -1.59000    1.000000    
     20 F     s     -4.2759 *    0.2073 *   -0.5807 *  -1.59000    1.000000    
     21 F     s      0.7410 *    1.2744 *   -3.2344 *  -1.59000    1.000000    
--------------------------------------------------------------------------------


  Brillouin zone sampling points :

--------------------------------------------------------------------------------
  Point number          x          y          z            Weight
--------------------------------------------------------------------------------
        1           0.000000   0.000000   0.000000     1.00000000
--------------------------------------------------------------------------------


********************************************************************************
*  General input information                                                   *
********************************************************************************

  Species output for all configurations : 

--------------------------------------------------------------------------------
  Species    Type    Atomic    Atomic    Charge       Radii (Angs)     Library
                     Number     Mass       (e)     Cova   Ionic  VDW   Symbol
--------------------------------------------------------------------------------
    Al       Core       13      26.98   3.000000   1.350  0.000  2.050          
    F        Core        9      19.00   0.590000   0.710  0.000  1.300          
    F        Shell       9       0.00  -1.590000   0.710  0.000  1.300          
--------------------------------------------------------------------------------


  Accuracy factor for short range sums = 12.000

  Time limit = Infinity

  Maximum range for interatomic potentials =    100000.000000 Angstroms

  General interatomic potentials :

--------------------------------------------------------------------------------
Atom  Types   Potential      Parameter       Value         Units   Cutoffs(Ang)
  1     2                                                            Min /  Max 
--------------------------------------------------------------------------------
Al   c F    s Buckingham    Buckingham A     3760.0008    eV        0.000 10.000
                            Buckingham rho  0.22200000    Ang       
                            Buckingham C     0.0000000    eV*Ang^6  
--------------------------------------------------------------------------------
F    s F    s Buck 4 range  Buck4 A          1127.7000    eV        0.000 12.000
                            Buck4 rho       0.27530000    Ang       
                            Buck4 C          15.830000    eV*Ang^6  
                            Buck4 minimum    2.7900000    Ang       
--------------------------------------------------------------------------------
F    c F    s Spring (c-s)  Spring k 2       20.770000    eV*Ang^-2 0.000  0.800
                            Spring k 4       0.0000000    eV*Ang^-4 
--------------------------------------------------------------------------------

********************************************************************************
*  Output for configuration   1                                                *
********************************************************************************


  Components of energy : 

--------------------------------------------------------------------------------
  Interatomic potentials     =          10.49673741 eV    
  Monopole - monopole (real) =        -179.22505559 eV    
--------------------------------------------------------------------------------
  Total lattice energy       =        -168.72831818 eV    
--------------------------------------------------------------------------------
  Total lattice energy       =          -16279.7035 kJ/mol
--------------------------------------------------------------------------------


  Number of variables =       27

  Maximum number of calculations  =          2000
  Maximum Hessian update interval =            10
  Maximum step size               =   1.000000000
  Maximum parameter tolerance     =   0.000001000
  Maximum function  tolerance     =   0.000010000
  Maximum gradient  tolerance     =   0.000000010
  Maximum gradient  component     =   0.010000000

  Symmetry not applied to optimisation

  Newton-Raphson optimiser to be used

  BFGS hessian update to be used

  Lower half triangular hessian to be used

  Minimiser to switch to RFO
  When gradient norm is less than     0.010000

  Shell only optimisation

  Start of cluster optimisation :

  Cycle:      0 Energy:      -168.728318  Gnorm:      1.427833  CPU:    0.004
  ** Hessian calculated **
  Cycle:      1 Energy:      -185.274215  Gnorm:      0.449540  CPU:    0.005
  ** Hessian calculated **
  Cycle:      2 Energy:      -186.548898  Gnorm:      0.019475  CPU:    0.007
  Cycle:      3 Energy:      -186.551660  Gnorm:      0.004332  CPU:    0.009
  ** Hessian has required structure
  Cycle:      4 Energy:      -186.551673  Gnorm:      0.003938  CPU:    0.010
  ** Hessian has required structure
  Cycle:      5 Energy:      -186.551675  Gnorm:      0.003876  CPU:    0.012
  ** Hessian has required structure
  Cycle:      6 Energy:      -186.551676  Gnorm:      0.003838  CPU:    0.013
  ** Hessian has required structure
  Cycle:      7 Energy:      -186.551676  Gnorm:      0.003837  CPU:    0.015
  ** Hessian has required structure
  Cycle:      8 Energy:      -186.551676  Gnorm:      0.003838  CPU:    0.016
  ** Hessian has required structure
  Cycle:      9 Energy:      -186.551677  Gnorm:      0.003775  CPU:    0.018
  ** Hessian has required structure
  Cycle:     10 Energy:      -186.551683  Gnorm:      0.003666  CPU:    0.019
  ** Hessian has required structure
  Cycle:     11 Energy:      -186.551746  Gnorm:      0.002097  CPU:    0.021
  ** Hessian has required structure
  Cycle:     12 Energy:      -186.551786  Gnorm:      0.000001  CPU:    0.022
  ** Hessian has required structure

  XYZ File written as 003/2/sp_mod_10/sp_mod_10_eig.xyz



  **** Optimisation achieved ****


  Final energy =    -186.55178614 eV
  Final Gnorm  =       0.00000000

  Components of energy : 

--------------------------------------------------------------------------------
  Interatomic potentials     =          38.46214826 eV    
  Monopole - monopole (real) =        -225.01393440 eV    
--------------------------------------------------------------------------------
  Total lattice energy       =        -186.55178614 eV    
--------------------------------------------------------------------------------
  Total lattice energy       =          -17999.3957 kJ/mol
--------------------------------------------------------------------------------

  Final cartesian coordinates of atoms :

--------------------------------------------------------------------------------
   No.  Atomic        x           y          z          Radius
        Label       (Angs)      (Angs)     (Angs)       (Angs) 
--------------------------------------------------------------------------------
     1  Al    c    -0.359594    1.012786   -1.819082    0.000000
     2  Al    c    -0.448639    1.077841    1.281597    0.000000
     3  Al    c    -3.021675    0.466662   -1.858968    0.000000
     4  F     c    -3.532706    0.319368   -3.599816    0.000000
     5  F     c    -1.388209   -0.572042   -1.820612    0.000000
     6  F     c    -1.930947    2.060942   -1.913795    0.000000
     7  F     c    -2.041983    0.751461    0.455044    0.000000
     8  F     c     0.606844    1.221692   -0.293851    0.000000
     9  F     c    -0.338289    2.736659    2.010737    0.000000
    10  F     c     0.401204   -0.342597    2.029779    0.000000
    11  F     c    -4.275876    0.207289   -0.580725    0.000000
    12  F     c     0.740958    1.274446   -3.234440    0.000000
    13  F     s    -3.450364    0.342142   -3.340881    0.000000
    14  F     s    -1.422378   -0.287624   -1.822834    0.000000
    15  F     s    -1.854350    1.785315   -1.888944    0.000000
    16  F     s    -1.812062    0.791250    0.494890    0.000000
    17  F     s     0.353857    1.183030   -0.355744    0.000000
    18  F     s    -0.350160    2.492046    1.896889    0.000000
    19  F     s     0.271445   -0.134337    1.917175    0.000000
    20  F     s    -4.082487    0.247894   -0.781076    0.000000
    21  F     s     0.568923    1.229336   -3.007984    0.000000
--------------------------------------------------------------------------------


  Final Cartesian derivatives :

--------------------------------------------------------------------------------
   No.  Atomic          x             y             z           Radius
        Label       (eV/Angs)     (eV/Angs)    (eV/Angs)      (eV/Angs)
--------------------------------------------------------------------------------
      1 Al    c       0.000000      0.000000      0.000000      0.000000
      2 Al    c       0.000000      0.000000      0.000000      0.000000
      3 Al    c       0.000000      0.000000      0.000000      0.000000
      4 F     c       0.000000      0.000000      0.000000      0.000000
      5 F     c       0.000000      0.000000      0.000000      0.000000
      6 F     c       0.000000      0.000000      0.000000      0.000000
      7 F     c       0.000000      0.000000      0.000000      0.000000
      8 F     c       0.000000      0.000000      0.000000      0.000000
      9 F     c       0.000000      0.000000      0.000000      0.000000
     10 F     c       0.000000      0.000000      0.000000      0.000000
     11 F     c       0.000000      0.000000      0.000000      0.000000
     12 F     c       0.000000      0.000000      0.000000      0.000000
     13 F     s       0.000000      0.000000      0.000000      0.000000
     14 F     s      -0.000000     -0.000000      0.000000      0.000000
     15 F     s      -0.000000      0.000000      0.000000      0.000000
     16 F     s      -0.000000     -0.000000      0.000000      0.000000
     17 F     s      -0.000000      0.000000     -0.000000      0.000000
     18 F     s       0.000000      0.000000     -0.000000      0.000000
     19 F     s       0.000000     -0.000000     -0.000000      0.000000
     20 F     s      -0.000000     -0.000000     -0.000000      0.000000
     21 F     s       0.000000     -0.000000      0.000000      0.000000
--------------------------------------------------------------------------------
  Maximum abs         0.000000      0.000000      0.000000      0.000000
--------------------------------------------------------------------------------


  Born effective charge tensors : 

-------------------------------------------------------------------------------
  Atom             x           y             z
-------------------------------------------------------------------------------
    1 Al    x       1.0318     -0.0442      0.1900
            y      -0.0434      1.1397      0.0585
            z       0.1078      0.0429      0.9682
-------------------------------------------------------------------------------
    2 Al    x       0.9082      0.1283     -0.3552
            y       0.1259      0.4091     -0.0640
            z      -0.4075     -0.0741      1.3658
-------------------------------------------------------------------------------
    3 Al    x       1.3190     -0.0249      0.2829
            y      -0.0211      1.3893      0.0495
            z       0.3833      0.0702      0.6941
-------------------------------------------------------------------------------
    4 F     x      -0.5352      0.0039      0.1431
            y       0.0026     -0.5307      0.0420
            z       0.0777      0.0289     -0.0065
-------------------------------------------------------------------------------
    5 F     x      -0.3651      0.0471     -0.0116
            y       0.0845     -0.2209     -0.0121
            z      -0.0108     -0.0097     -0.3425
-------------------------------------------------------------------------------
    6 F     x      -0.2972     -0.0679     -0.0095
            y      -0.1012     -0.2845      0.0004
            z      -0.0123      0.0037     -0.3419
-------------------------------------------------------------------------------
    7 F     x      -0.2045      0.0341      0.1625
            y       0.0417     -0.3652      0.0249
            z       0.2182      0.0357     -0.6379
-------------------------------------------------------------------------------
    8 F     x      -0.3174     -0.0070      0.1014
            y      -0.0060     -0.2640      0.0137
            z       0.1653      0.0267     -0.2865
-------------------------------------------------------------------------------
    9 F     x      -0.5270      0.0330      0.0172
            y       0.0246     -0.0500      0.1742
            z      -0.0064      0.2170     -0.4974
-------------------------------------------------------------------------------
   10 F     x      -0.4083     -0.2077      0.0948
            y      -0.2056     -0.1755     -0.1528
            z       0.0984     -0.2012     -0.4931
-------------------------------------------------------------------------------
   11 F     x      -0.2777      0.0550     -0.3168
            y       0.0540     -0.5299     -0.0649
            z      -0.3004     -0.0622     -0.2333
-------------------------------------------------------------------------------
   12 F     x      -0.3266      0.0504     -0.2988
            y       0.0440     -0.5174     -0.0693
            z      -0.3134     -0.0779     -0.1891
-------------------------------------------------------------------------------




  Moment of inertia tensor (10^-46 x kgm^2): 

-------------------------------------------------------------------------------
                x           y           z           Principal axis system
-------------------------------------------------------------------------------
       x        166.79      -16.79      -40.13          105.081578
       y        -16.79      239.67      -10.79          192.778429
       z        -40.13      -10.79      134.80          243.391786
-------------------------------------------------------------------------------
  Centre of mass (Ang) =    -1.296944     0.851325    -0.780591
-------------------------------------------------------------------------------


  Vibrational Frequency Calculation : 

--------------------------------------------------------------------------------

  Frequencies (cm-1) and Eigenvectors : 

  Frequency      -7.6692   -0.0000   -0.0000    0.0000    4.5292    7.8085
  IR Intensity    0.0003    0.0000    0.0000    0.0000    0.0001    0.0002
     in X         0.0000    0.0000    0.0000    0.0000    0.0000    0.0001
     in Y         0.0002    0.0000    0.0000    0.0000    0.0001    0.0001
     in Z         0.0000    0.0000    0.0000    0.0000    0.0000    0.0000
  Raman Intsty    0.0009    0.0000    0.0000    0.0000    0.0001    0.0014

     1 x      -0.075346 -0.191032 -0.014258 -0.265316 -0.001726  0.125067
     1 y      -0.166163 -0.262542  0.060350  0.185792 -0.130245 -0.195171
     1 z      -0.104926  0.040834  0.321315 -0.046669 -0.024118  0.067506
     2 x       0.173662 -0.191032 -0.014258 -0.265316  0.098418 -0.198338
     2 y       0.224867 -0.262542  0.060350  0.185792 -0.202462  0.163054
     2 z      -0.102132  0.040834  0.321315 -0.046669 -0.019976  0.054361
     3 x      -0.099030 -0.191032 -0.014258 -0.265316 -0.095891  0.081686
     3 y      -0.074980 -0.262542  0.060350  0.185792  0.320827  0.025651
     3 z       0.199566  0.040834  0.321315 -0.046669  0.042406 -0.118681
     4 x      -0.213392 -0.160311 -0.011965 -0.222648 -0.148169  0.215419
     4 y      -0.186605 -0.220320  0.050645  0.155913  0.399833 -0.140376
     4 z       0.215853  0.034267  0.269642 -0.039164  0.044355 -0.129415
     5 x      -0.110516 -0.160311 -0.011965 -0.222648 -0.226320 -0.007437
     5 y      -0.108717 -0.220320  0.050645  0.155913  0.036804 -0.091192
     5 z       0.125282  0.034267  0.269642 -0.039164 -0.043805  0.154673
     6 x      -0.038853 -0.160311 -0.011965 -0.222648  0.144153  0.187802
     6 y      -0.099336 -0.220320  0.050645  0.155913  0.116405 -0.062097
     6 z      -0.046793  0.034267  0.269642 -0.039164  0.059447 -0.191267
     7 x       0.089028 -0.160311 -0.011965 -0.222648  0.020544 -0.131644
     7 y       0.076862 -0.220320  0.050645  0.155913  0.043417  0.219616
     7 z       0.068723  0.034267  0.269642 -0.039164  0.018075 -0.053191
     8 x       0.044859 -0.160311 -0.011965 -0.222648  0.067097 -0.020891
     8 y      -0.025259 -0.220320  0.050645  0.155913 -0.286357 -0.071583
     8 z      -0.172616  0.034267  0.269642 -0.039164 -0.038700  0.123546
     9 x       0.189198 -0.160311 -0.011965 -0.222648  0.310750 -0.070929
     9 y       0.288439 -0.220320  0.050645  0.155913 -0.192900  0.177535
     9 z      -0.319153  0.034267  0.269642 -0.039164  0.000327 -0.062675
    10 x       0.200299 -0.160311 -0.011965 -0.222648 -0.078356 -0.359050
    10 y       0.294620 -0.220320  0.050645  0.155913 -0.284324  0.112656
    10 z       0.052713  0.034267  0.269642 -0.039164 -0.052168  0.217814
    11 x      -0.002816 -0.160311 -0.011965 -0.222648 -0.084237 -0.073382
    11 y       0.073682 -0.220320  0.050645  0.155913  0.405329  0.256923
    11 z       0.273985  0.034267  0.269642 -0.039164  0.059506 -0.191025
    12 x      -0.156955 -0.160311 -0.011965 -0.222648 -0.006417  0.250085
    12 y      -0.294291 -0.220320  0.050645  0.155913 -0.224049 -0.393779
    12 z      -0.189067  0.034267  0.269642 -0.039164 -0.045026  0.127744


  Frequency      25.7646   45.7400   53.6148   71.6335  105.8038  154.1566
  IR Intensity    0.0016    0.0074    0.0014    0.0024    0.0023    0.0220
     in X         0.0001    0.0070    0.0003    0.0001    0.0019    0.0131
     in Y         0.0015    0.0004    0.0011    0.0022    0.0001    0.0016
     in Z         0.0000    0.0000    0.0000    0.0000    0.0004    0.0074
  Raman Intsty    0.0006    0.1573    0.0015    0.0005    0.0029    0.0094

     1 x      -0.051706 -0.189916  0.019573 -0.008089 -0.044841 -0.048412
     1 y       0.095863 -0.026311 -0.016723  0.097652 -0.004089 -0.047431
     1 z      -0.016484  0.284345 -0.025572 -0.021342 -0.033183 -0.073557
     2 x       0.052687  0.209369  0.002917  0.006648 -0.022868 -0.043030
     2 y       0.034719  0.039344 -0.089138 -0.107243 -0.002374 -0.007272
     2 z      -0.020464  0.194206 -0.011155 -0.015503  0.050204 -0.010363
     3 x      -0.015078 -0.148321  0.009848  0.018564 -0.006161 -0.130873
     3 y      -0.084744 -0.043172  0.022225 -0.063062 -0.008507 -0.025022
     3 z       0.035810 -0.457800  0.036865  0.030975 -0.064701 -0.048606
     4 x       0.003111 -0.145970  0.088830  0.090077  0.490646 -0.162511
     4 y      -0.389690 -0.089604 -0.273318 -0.360092  0.087092 -0.008685
     4 z       0.052929 -0.362284  0.030983  0.029393 -0.214130 -0.032465
     5 x       0.042771 -0.158022  0.018098  0.088238 -0.027826 -0.104730
     5 y       0.021509 -0.026446 -0.009904  0.022565 -0.010507 -0.004479
     5 z       0.200303 -0.075501  0.008628 -0.022842  0.280139 -0.005773
     6 x      -0.099653 -0.165798  0.015970 -0.075867 -0.041299 -0.050189
     6 y      -0.021664 -0.040314 -0.007136 -0.010307  0.018224 -0.066866
     6 z      -0.202218 -0.073855  0.017381  0.031631  0.292269 -0.069435
     7 x      -0.041239  0.253467  0.045496 -0.017283 -0.191108 -0.191843
     7 y       0.427349  0.022623 -0.343333 -0.024847 -0.028398 -0.041050
     7 z      -0.011456 -0.024536  0.017454  0.005935  0.354058  0.256979
     8 x      -0.022551  0.089388 -0.050836  0.066140 -0.103452 -0.194860
     8 y       0.222520 -0.012860  0.230065 -0.387719  0.003346 -0.003354
     8 z      -0.045564  0.082600 -0.014823  0.003504 -0.010158 -0.014239
     9 x       0.342665  0.156574 -0.343211  0.184321  0.256513  0.265039
     9 y      -0.146487  0.040557 -0.113674  0.031364  0.032561  0.038487
     9 z       0.331851  0.149474  0.128746 -0.313183 -0.074561 -0.152204
    10 x      -0.148193  0.202257  0.328173 -0.187245  0.177991  0.272534
    10 y      -0.268034  0.068873  0.041401 -0.056765  0.044417  0.070958
    10 z      -0.358542  0.200630 -0.152135  0.262454 -0.087094 -0.203048
    11 x      -0.003817  0.131160 -0.163106 -0.088259 -0.197816 -0.134352
    11 y       0.092868  0.115298  0.644596  0.318322 -0.063815 -0.035722
    11 z       0.072005 -0.111144 -0.009908 -0.000069 -0.264017 -0.063081
    12 x      -0.056295 -0.209491  0.022051 -0.080528 -0.275623  0.565832
    12 y       0.007004 -0.042213 -0.069033  0.554054 -0.065081  0.145716
    12 z      -0.037950  0.189886 -0.026490  0.010172 -0.219689  0.441190


  Frequency     167.8731  181.9773  187.1875  199.1179  205.7986  226.8209
  IR Intensity    0.0051    0.0188    0.0304    0.0032    0.0012    0.0531
     in X         0.0002    0.0006    0.0021    0.0001    0.0003    0.0285
     in Y         0.0038    0.0001    0.0283    0.0000    0.0008    0.0000
     in Z         0.0011    0.0182    0.0000    0.0031    0.0002    0.0246
  Raman Intsty    0.0138    0.2725    0.0000    0.0187    0.0033    0.0086

     1 x       0.045414 -0.147869  0.098218  0.059854  0.018048  0.205903
     1 y      -0.199755 -0.051818 -0.463338 -0.012284 -0.021640  0.079992
     1 z      -0.066606  0.230295  0.010579  0.159665 -0.029076  0.177094
     2 x      -0.008442  0.196489 -0.026880 -0.117980  0.038739 -0.048640
     2 y       0.039238  0.028466  0.206887 -0.043607 -0.173799 -0.010769
     2 z      -0.007442 -0.136563 -0.004205  0.111817  0.002124  0.132317
     3 x      -0.016138 -0.104251  0.025889  0.076038 -0.017358  0.159477
     3 y       0.076512  0.000800 -0.110494  0.045399  0.104128 -0.072851
     3 z       0.009823  0.142399 -0.014374 -0.189370  0.004465 -0.017808
     4 x       0.022195  0.244932 -0.049272 -0.100504 -0.044142 -0.517313
     4 y       0.047949  0.077413  0.223895 -0.010299  0.146102 -0.007921
     4 z      -0.001826  0.019661 -0.018834 -0.111522  0.007489  0.179722
     5 x      -0.107690 -0.114585 -0.051626  0.010694 -0.077378  0.218080
     5 y      -0.092890 -0.060697 -0.345929  0.011415  0.021309  0.046721
     5 z       0.193888  0.216917 -0.096112  0.190006  0.546682  0.037014
     6 x       0.136623 -0.086164  0.183547  0.073142  0.083268  0.118438
     6 y      -0.055685  0.010978 -0.289859  0.009149  0.010607 -0.058034
     6 z      -0.205217  0.086182  0.122809 -0.007482 -0.574795  0.000899
     7 x      -0.074399  0.255079  0.038870 -0.166374  0.060624 -0.020290
     7 y       0.353523  0.077561 -0.102730 -0.009163 -0.262284  0.049481
     7 z      -0.002661 -0.289557 -0.005771  0.189429 -0.002937  0.031292
     8 x       0.050830  0.297546 -0.035717  0.009912 -0.050722  0.165065
     8 y      -0.494163  0.031412  0.281550 -0.044854  0.263466 -0.005159
     8 z      -0.022933 -0.033419 -0.009467  0.155360 -0.018430  0.208481
     9 x      -0.315927 -0.203099  0.141416 -0.208676  0.059040  0.033691
     9 y      -0.078114  0.112508  0.113187  0.176308 -0.112210  0.083419
     9 z       0.295486 -0.263494  0.135415 -0.370272 -0.116084 -0.094816
    10 x       0.344354 -0.035809 -0.213969  0.001529 -0.004982  0.107060
    10 y       0.190650 -0.180069  0.013173 -0.238918 -0.044129 -0.049311
    10 z      -0.102904 -0.271617 -0.117545 -0.390615  0.268660 -0.114889
    11 x      -0.017632 -0.293959 -0.003809  0.490296 -0.016105 -0.339571
    11 y      -0.044110 -0.081328  0.141233  0.093202 -0.079437 -0.022157
    11 z      -0.017145 -0.078946  0.007963  0.236356 -0.030601 -0.480939
    12 x      -0.063179  0.002350 -0.125298 -0.131364 -0.056589 -0.142599
    12 y       0.272946  0.039096  0.402745  0.025663  0.165386 -0.032716
    12 z      -0.060156  0.332891 -0.008925  0.010891 -0.053188 -0.114249


  Frequency     229.6831  259.1040  262.7544  279.5016  316.7077  372.1919
  IR Intensity    0.0233    0.0711    0.0349    0.0158    0.0089    0.0073
     in X         0.0000    0.0099    0.0040    0.0139    0.0005    0.0058
     in Y         0.0229    0.0073    0.0174    0.0002    0.0000    0.0003
     in Z         0.0004    0.0538    0.0136    0.0017    0.0084    0.0012
  Raman Intsty    0.0005    0.0234    0.0015    0.0728    0.1220    0.4941

     1 x       0.088796 -0.019227  0.036764  0.005827 -0.003477 -0.271422
     1 y      -0.224467 -0.069481 -0.103470  0.013976 -0.006264 -0.053408
     1 z       0.033675  0.198518 -0.089095  0.042929 -0.206469  0.038728
     2 x      -0.004160 -0.235130  0.142301 -0.336174  0.043078  0.108920
     2 y       0.020248 -0.203784 -0.292534 -0.045116  0.007441  0.022661
     2 z       0.019649  0.156736 -0.085954 -0.175946  0.354617 -0.147197
     3 x      -0.081523  0.027951 -0.011316  0.044295  0.045601  0.332697
     3 y       0.519638  0.027307 -0.009354  0.001481  0.004822  0.067294
     3 z      -0.017235  0.172530 -0.095214 -0.086126 -0.006858  0.025237
     4 x      -0.009906  0.262141 -0.137631 -0.134903 -0.032542 -0.058738
     4 y      -0.497875  0.058789 -0.021017 -0.028879 -0.007153 -0.006333
     4 z       0.048822  0.100616 -0.056900 -0.026157  0.016461  0.199393
     5 x      -0.316769  0.013945 -0.024834  0.018289 -0.002784  0.152034
     5 y       0.099477 -0.088898 -0.078635 -0.014002 -0.030499 -0.453164
     5 z      -0.114550 -0.384288  0.057003  0.370489  0.155457 -0.006678
     6 x       0.310597  0.051723  0.037866 -0.004727 -0.009339 -0.046211
     6 y       0.220841 -0.012522 -0.080222  0.056827  0.035974  0.471398
     6 z       0.122272 -0.272354  0.329780  0.350381  0.154486 -0.044713
     7 x       0.027365 -0.090274 -0.103708 -0.094651  0.417778 -0.051062
     7 y      -0.107893  0.218361  0.505606 -0.096213  0.078119 -0.007675
     7 z       0.007188 -0.260137  0.061564 -0.551905 -0.255634  0.110363
     8 x       0.019879 -0.183650  0.005909  0.027001 -0.615118 -0.188668
     8 y       0.105227  0.146534  0.360263 -0.027723 -0.105901 -0.038554
     8 z       0.031017  0.242260 -0.118952  0.059821  0.025865 -0.160779
     9 x       0.035279  0.170931 -0.218820  0.253107 -0.037925 -0.012621
     9 y       0.024084 -0.060637 -0.209576 -0.186154  0.214247 -0.051160
     9 z       0.001073 -0.232497 -0.226594  0.021410 -0.038623  0.007226
    10 x      -0.021082  0.310775  0.109126  0.095016  0.057629 -0.032627
    10 y      -0.013910  0.041199 -0.089272  0.296931 -0.216449  0.035533
    10 z      -0.022740  0.009015  0.338377 -0.049757 -0.020719  0.010183
    11 x      -0.002134 -0.047422  0.044878  0.162683 -0.007649  0.184823
    11 y      -0.286676 -0.000440  0.035938  0.036832 -0.003104  0.037831
    11 z      -0.099173  0.103297 -0.037077  0.030921 -0.074328 -0.264620
    12 x      -0.046938 -0.218376  0.087318  0.019057  0.128419 -0.149739
    12 y       0.080862 -0.009294  0.059955 -0.002275  0.027618 -0.031426
    12 z      -0.016912  0.065160 -0.025148  0.055934 -0.131332  0.248807


  Frequency     466.9176  483.5430  489.4882  523.3484  575.8256  585.1877
  IR Intensity    0.0238    0.0382    0.0429    0.0209    0.0279    0.0606
     in X         0.0025    0.0376    0.0002    0.0097    0.0145    0.0033
     in Y         0.0005    0.0000    0.0427    0.0004    0.0007    0.0573
     in Z         0.0207    0.0005    0.0000    0.0108    0.0127    0.0000
  Raman Intsty    2.1613    3.3883    0.0787    0.1084    0.2081    0.0013

     1 x      -0.011573 -0.039488 -0.033771 -0.138315  0.035307  0.146708
     1 y      -0.002058 -0.034178  0.115729 -0.028854  0.010730 -0.637768
     1 z      -0.150359 -0.056279 -0.000248 -0.019081  0.028514 -0.008944
     2 x      -0.272938 -0.093239 -0.004496 -0.132237  0.297654 -0.001531
     2 y      -0.059651 -0.020401 -0.000984 -0.030464  0.073427  0.005915
     2 z       0.390977  0.152220  0.010385  0.193594 -0.319719 -0.001499
     3 x       0.112473 -0.284810  0.082596  0.031983  0.004225  0.041809
     3 y      -0.009850  0.076760 -0.625892  0.001014  0.002153 -0.177158
     3 z       0.027955 -0.054225  0.001288  0.004709 -0.001562  0.003786
     4 x       0.043394 -0.095626 -0.025259  0.021393 -0.000793 -0.007817
     4 y       0.012696 -0.030568  0.007214  0.006681 -0.000318  0.032566
     4 z       0.115378 -0.327884 -0.073073  0.092284 -0.002112 -0.005281
     5 x      -0.303156  0.501037 -0.406020  0.155922 -0.039823  0.174562
     5 y      -0.253320 -0.297058  0.099099  0.322598 -0.028069  0.480739
     5 z      -0.015332  0.030220 -0.022369  0.007654  0.008852  0.005298
     6 x      -0.338845  0.183523  0.471553  0.265985 -0.042855 -0.360501
     6 y       0.141379  0.338831  0.407906 -0.223035  0.006007  0.375847
     6 z      -0.021360 -0.000954  0.006250  0.022080  0.009219 -0.032254
     7 x      -0.091034 -0.037812 -0.007104 -0.168153 -0.474496 -0.003080
     7 y      -0.018851 -0.011047  0.013688 -0.035764 -0.100767  0.021933
     7 z      -0.069121 -0.027361 -0.001681 -0.115944 -0.258705 -0.000345
     8 x       0.447236  0.137494  0.004207  0.015012 -0.093087 -0.002131
     8 y       0.083672  0.018101  0.023404 -0.011425 -0.012089  0.022612
     8 z      -0.148060 -0.083560 -0.008519 -0.619299  0.233640  0.014131
     9 x       0.033505  0.014894  0.000020  0.022341  0.017018 -0.003026
     9 y       0.196378  0.103156  0.007342  0.197193  0.401323 -0.005957
     9 z       0.059718  0.031989  0.000078  0.087245  0.192812 -0.004872
    10 x       0.107671  0.054892  0.006868  0.101406  0.209559  0.008851
    10 y      -0.145483 -0.079490 -0.008520 -0.156977 -0.374257 -0.009473
    10 z       0.056913  0.029787  0.005721  0.088631  0.210646  0.006681
    11 x       0.095410 -0.302077 -0.083526  0.073796 -0.002433 -0.010410
    11 y       0.021571 -0.070864  0.023844  0.015532 -0.000483  0.018046
    11 z      -0.106860  0.339537  0.082029 -0.079779  0.015744  0.006114
    12 x       0.210827  0.041229 -0.013563 -0.203415  0.025107 -0.019268
    12 y       0.047228  0.002507  0.035125 -0.045325  0.005804  0.027733
    12 z      -0.191317 -0.041484 -0.002052  0.303561 -0.061226  0.018460


  Frequency     692.6595  733.1574  774.8973  795.3015  799.7930  838.0559
  IR Intensity    0.0891    0.0093    0.0081    0.0119    0.0039    0.0001
     in X         0.0657    0.0004    0.0002    0.0042    0.0013    0.0000
     in Y         0.0034    0.0000    0.0001    0.0009    0.0024    0.0000
     in Z         0.0199    0.0090    0.0078    0.0068    0.0003    0.0001
  Raman Intsty    0.0014    0.0103    0.0215    0.1265    0.0055    0.7137

     1 x      -0.365309 -0.152340 -0.332535  0.263873 -0.036755  0.530935
     1 y      -0.083129 -0.018305 -0.074329  0.072383  0.000443  0.121313
     1 z      -0.230916 -0.501886 -0.172117 -0.432437  0.109701 -0.131816
     2 x      -0.055092 -0.249438  0.403226  0.126251 -0.258519  0.072831
     2 y      -0.013971 -0.072974  0.162095  0.212362  0.676545  0.008935
     2 z      -0.032573 -0.198627  0.423832  0.178268 -0.081111  0.064766
     3 x      -0.472513  0.227820  0.083331  0.125111 -0.041231 -0.508879
     3 y      -0.113335  0.056501  0.022526  0.025165 -0.006023 -0.107083
     3 z      -0.204134  0.282270  0.288679 -0.436444  0.090995  0.325964
     4 x       0.140915 -0.105284 -0.067479  0.072351 -0.013388 -0.009548
     4 y       0.040242 -0.030194 -0.019541  0.020731 -0.004805 -0.004397
     4 z       0.438737 -0.323723 -0.230796  0.273543 -0.053408 -0.107521
     5 x       0.193598 -0.016489  0.048051 -0.063236  0.011609 -0.020441
     5 y       0.061424  0.065466  0.085587 -0.055827 -0.000179 -0.138855
     5 z       0.012841  0.001568 -0.004474  0.017753 -0.006789 -0.004127
     6 x       0.204978  0.021554  0.076261 -0.068451  0.013217 -0.062408
     6 y       0.030540 -0.079636 -0.058830  0.009441 -0.002566  0.119566
     6 z       0.013929  0.006878  0.001029  0.017473 -0.001819 -0.011973
     7 x       0.072854  0.227452 -0.326589 -0.113165  0.075562 -0.047027
     7 y       0.015479  0.047012 -0.070755 -0.030482 -0.011006 -0.009951
     7 z       0.033690  0.121288 -0.198016 -0.071288  0.041204 -0.045903
     8 x       0.145397  0.151136  0.082210  0.047042 -0.005550 -0.038977
     8 y       0.034735  0.035864  0.017259  0.006034 -0.024172 -0.008732
     8 z       0.303531  0.307760  0.152253  0.110123 -0.043844 -0.060381
     9 x       0.005030  0.021094 -0.029386 -0.023091 -0.012990 -0.006263
     9 y       0.036921  0.152770 -0.249394 -0.183304 -0.386541 -0.019971
     9 z       0.011787  0.071978 -0.123442 -0.081788 -0.155456 -0.009116
    10 x       0.020098  0.076875 -0.098545  0.001079  0.230305 -0.018679
    10 y      -0.029123 -0.108683  0.135995 -0.031244 -0.392678  0.022149
    10 z       0.010997  0.065191 -0.091333  0.006788  0.195974 -0.012424
    11 x       0.220449  0.026042  0.080600 -0.221050  0.051574  0.274721
    11 y       0.046014  0.005409  0.016094 -0.046068  0.010394  0.056832
    11 z      -0.208484 -0.025612 -0.099341  0.228298 -0.051680 -0.276086
    12 x       0.060711 -0.195086  0.051339 -0.245450  0.050653 -0.184450
    12 y       0.014530 -0.046567  0.012155 -0.058582  0.012006 -0.044247
    12 z      -0.059790  0.273067 -0.049832  0.322057 -0.066685  0.218999




--------------------------------------------------------------------------------
  Vibrational properties (for cluster):  Temperature  =       0.000 K
--------------------------------------------------------------------------------
  Zero point energy            =        0.688340 eV
--------------------------------------------------------------------------------

  Phonon density of states : 

--------------------------------------------------------------------------------
 Frequency (cm-1) Density of States                                             
--------------------------------------------------------------------------------
    0.00000 |************************************************************  0.091
   13.09462 |********************                                          0.030
   26.18925 |                                                              0.000
   39.28387 |********************                                          0.030
   52.37850 |********************                                          0.030
   65.47312 |********************                                          0.030
   78.56775 |                                                              0.000
   91.66237 |                                                              0.000
  104.75700 |********************                                          0.030
  117.85162 |                                                              0.000
  130.94625 |                                                              0.000
  144.04087 |********************                                          0.030
  157.13550 |********************                                          0.030
  170.23012 |********************                                          0.030
  183.32475 |********************                                          0.030
  196.41937 |****************************************                      0.061
  209.51399 |                                                              0.000
  222.60862 |****************************************                      0.061
  235.70324 |                                                              0.000
  248.79787 |********************                                          0.030
  261.89249 |********************                                          0.030
  274.98712 |********************                                          0.030
  288.08174 |                                                              0.000
  301.17637 |                                                              0.000
  314.27099 |********************                                          0.030
  327.36562 |                                                              0.000
  340.46024 |                                                              0.000
  353.55487 |                                                              0.000
  366.64949 |********************                                          0.030
  379.74412 |                                                              0.000
  392.83874 |                                                              0.000
  405.93337 |                                                              0.000
  419.02799 |                                                              0.000
  432.12261 |                                                              0.000
  445.21724 |                                                              0.000
  458.31186 |********************                                          0.030
  471.40649 |********************                                          0.030
  484.50111 |********************                                          0.030
  497.59574 |                                                              0.000
  510.69036 |********************                                          0.030
  523.78499 |                                                              0.000
  536.87961 |                                                              0.000
  549.97424 |                                                              0.000
  563.06886 |********************                                          0.030
  576.16349 |********************                                          0.030
  589.25811 |                                                              0.000
  602.35274 |                                                              0.000
  615.44736 |                                                              0.000
  628.54198 |                                                              0.000
  641.63661 |                                                              0.000
  654.73123 |                                                              0.000
  667.82586 |                                                              0.000
  680.92048 |********************                                          0.030
  694.01511 |                                                              0.000
  707.10973 |                                                              0.000
  720.20436 |********************                                          0.030
  733.29898 |                                                              0.000
  746.39361 |                                                              0.000
  759.48823 |                                                              0.000
  772.58286 |********************                                          0.030
  785.67748 |********************                                          0.030
  798.77211 |********************                                          0.030
  811.86673 |                                                              0.000
  824.96136 |********************                                          0.030
--------------------------------------------------------------------------------



  Time to end of optimisation =       0.0319 seconds


  Peak dynamic memory used =       0.65 MB 


  Timing analysis for GULP :

--------------------------------------------------------------------------------
  Task / Subroutine                                          Time (Seconds)
--------------------------------------------------------------------------------
  Calculation of real space energy and derivatives                0.0021
  Calculation of phonons                                          0.0016
  Calculation and manipulation of Hessian matrix                  0.0012
--------------------------------------------------------------------------------
  Total CPU time                                                  0.0319
--------------------------------------------------------------------------------


  Job Finished at 14:39.05 25th May        2022                               

