********************************************************************************
*                       GENERAL UTILITY LATTICE PROGRAM                        *
*                                 Julian Gale                                  *
*                       Curtin Institute for Computation                       *
*                           Department of Chemistry                            *
*                    Curtin University, Western Australia                      *
********************************************************************************
* Version = 5.1.1 * Last modified =  11th January 2019                         *
********************************************************************************
*  single       - perform a single point run                                   *
*  phonon       - calculate phonons for final geometry                         *
*  eigenvectors - output phonon eigenvectors                                   *
********************************************************************************

  Job Started  at 10:34.30 17th May        2022                               

  Number of CPUs =     1

  Host name      = login04                                 


  Total number of configurations input =      1

********************************************************************************
*  Input for Configuration =   1                                               *
********************************************************************************

  Formula = Al3F9                                                       

  Number of irreducible atoms/shells =      21


  Total number atoms/shells =      21

  Dimensionality = 0               :  Cluster


  Charge on cluster =  -0.000000


  Initial cluster dipoles : x =      0.092378 e.Angs
                            y =     -0.685323 e.Angs
                            z =     -0.032327 e.Angs

  Temperature of configuration =  0.000     K 

  Symmetry number =      1

  Cartesian coordinates of cluster :

--------------------------------------------------------------------------------
   No.  Atomic       x           y          z         Charge      Occupancy
        Label      (Angs)      (Angs)     (Angs)        (e)         (Frac)  
--------------------------------------------------------------------------------
      1 Al    c     -1.6899      2.5614     -1.2407     3.00000    1.000000    
      2 Al    c     -0.4267     -0.0053     -2.2415     3.00000    1.000000    
      3 Al    c     -2.3177     -0.3358     -0.6095     3.00000    1.000000    
      4 F     c     -0.8403      3.6681     -0.0691     0.59000    1.000000    
      5 F     c     -2.8930      3.2022     -2.4505     0.59000    1.000000    
      6 F     c     -1.3724     -1.6738     -1.7276     0.59000    1.000000    
      7 F     c     -2.6580      1.4525     -0.0452     0.59000    1.000000    
      8 F     c     -3.4680     -1.2951      0.4128     0.59000    1.000000    
      9 F     c      0.8311     -0.5259     -3.4432     0.59000    1.000000    
     10 F     c     -0.2236      1.8881     -2.2287     0.59000    1.000000    
     11 F     c     -2.3654      0.4932     -2.4026     0.59000    1.000000    
     12 F     c     -0.4057      0.1372     -0.2886     0.59000    1.000000    
     13 F     s     -0.8403      3.6681     -0.0691    -1.59000    1.000000    
     14 F     s     -2.8930      3.2022     -2.4505    -1.59000    1.000000    
     15 F     s     -1.3724     -1.6738     -1.7276    -1.59000    1.000000    
     16 F     s     -2.6580      1.4525     -0.0452    -1.59000    1.000000    
     17 F     s     -3.4680     -1.2951      0.4128    -1.59000    1.000000    
     18 F     s      0.8311     -0.5259     -3.4432    -1.59000    1.000000    
     19 F     s     -0.2236      1.8881     -2.2287    -1.59000    1.000000    
     20 F     s     -2.3654      0.4932     -2.4026    -1.59000    1.000000    
     21 F     s     -0.4057      0.1372     -0.2886    -1.59000    1.000000    
--------------------------------------------------------------------------------


  Brillouin zone sampling points :

--------------------------------------------------------------------------------
  Point number          x          y          z            Weight
--------------------------------------------------------------------------------
        1           0.000000   0.000000   0.000000     1.00000000
--------------------------------------------------------------------------------


********************************************************************************
*  General input information                                                   *
********************************************************************************

  Species output for all configurations : 

--------------------------------------------------------------------------------
  Species    Type    Atomic    Atomic    Charge       Radii (Angs)     Library
                     Number     Mass       (e)     Cova   Ionic  VDW   Symbol
--------------------------------------------------------------------------------
    Al       Core       13      26.98   3.000000   1.350  0.000  2.050          
    F        Core        9      19.00   0.590000   0.710  0.000  1.300          
    F        Shell       9       0.00  -1.590000   0.710  0.000  1.300          
--------------------------------------------------------------------------------


  Accuracy factor for short range sums = 12.000

  Time limit = Infinity

  Maximum range for interatomic potentials =    100000.000000 Angstroms

  General interatomic potentials :

--------------------------------------------------------------------------------
Atom  Types   Potential      Parameter       Value         Units   Cutoffs(Ang)
  1     2                                                            Min /  Max 
--------------------------------------------------------------------------------
Al   c F    s Buckingham    Buckingham A     3760.0008    eV        0.000 10.000
                            Buckingham rho  0.22200000    Ang       
                            Buckingham C     0.0000000    eV*Ang^6  
--------------------------------------------------------------------------------
F    s F    s Buck 4 range  Buck4 A          1127.7000    eV        0.000 12.000
                            Buck4 rho       0.27530000    Ang       
                            Buck4 C          15.830000    eV*Ang^6  
                            Buck4 minimum    2.7900000    Ang       
--------------------------------------------------------------------------------
F    c F    s Spring (c-s)  Spring k 2       20.770000    eV*Ang^-2 0.000  0.800
                            Spring k 4       0.0000000    eV*Ang^-4 
--------------------------------------------------------------------------------

********************************************************************************
*  Output for configuration   1                                                *
********************************************************************************


  Components of energy : 

--------------------------------------------------------------------------------
  Interatomic potentials     =           9.88373749 eV    
  Monopole - monopole (real) =        -177.37263706 eV    
--------------------------------------------------------------------------------
  Total lattice energy       =        -167.48889958 eV    
--------------------------------------------------------------------------------
  Total lattice energy       =          -16160.1185 kJ/mol
--------------------------------------------------------------------------------

  Born effective charge tensors : 

-------------------------------------------------------------------------------
  Atom             x           y             z
-------------------------------------------------------------------------------
    1 Al    x       2.0721      0.0545      0.0635
            y       0.0456      2.2415      0.0877
            z       0.0618      0.0972      2.1172
-------------------------------------------------------------------------------
    2 Al    x       2.1799     -0.0178     -0.2889
            y       0.0981      2.5367     -0.0710
            z      -0.2926      0.0386      2.0947
-------------------------------------------------------------------------------
    3 Al    x       2.1890      0.0246     -0.3007
            y      -0.0983      2.5077      0.1120
            z      -0.2960      0.0102      2.1221
-------------------------------------------------------------------------------
    4 F     x      -0.6189     -0.1773     -0.1700
            y      -0.2303     -0.9101     -0.3399
            z      -0.1804     -0.2805     -0.7562
-------------------------------------------------------------------------------
    5 F     x      -0.7790      0.2077     -0.2740
            y       0.2641     -0.7324      0.2480
            z      -0.2630      0.1850     -0.7519
-------------------------------------------------------------------------------
    6 F     x      -0.6182     -0.0465      0.2072
            y      -0.0310     -1.2270     -0.1210
            z       0.2127     -0.1358     -0.5874
-------------------------------------------------------------------------------
    7 F     x      -0.4952     -0.0395      0.2126
            y      -0.0598     -0.9944      0.0359
            z       0.2061      0.0271     -0.5605
-------------------------------------------------------------------------------
    8 F     x      -0.8066     -0.2565      0.2809
            y      -0.2745     -0.7297      0.2484
            z       0.2780      0.2346     -0.7369
-------------------------------------------------------------------------------
    9 F     x      -0.8807      0.1640      0.3692
            y       0.1782     -0.5714     -0.1644
            z       0.3638     -0.1448     -0.8349
-------------------------------------------------------------------------------
   10 F     x      -0.6224      0.0695      0.2158
            y       0.0822     -0.9436     -0.0940
            z       0.2207     -0.0794     -0.4696
-------------------------------------------------------------------------------
   11 F     x      -0.7750      0.0550     -0.1300
            y       0.0799     -0.6649      0.0852
            z      -0.1237      0.0571     -0.7624
-------------------------------------------------------------------------------
   12 F     x      -0.8450     -0.0376     -0.1855
            y      -0.0541     -0.5123     -0.0270
            z      -0.1874     -0.0094     -0.8743
-------------------------------------------------------------------------------




  Moment of inertia tensor (10^-46 x kgm^2): 

-------------------------------------------------------------------------------
                x           y           z           Principal axis system
-------------------------------------------------------------------------------
       x        166.21        2.98       27.84          114.252077
       y          2.98      114.73       -2.08          142.006534
       z         27.84       -2.08      172.94          197.623522
-------------------------------------------------------------------------------
  Centre of mass (Ang) =    -1.485060     0.791813    -1.361453
-------------------------------------------------------------------------------


  Vibrational Frequency Calculation : 

--------------------------------------------------------------------------------

  Frequencies (cm-1) and Eigenvectors : 

  Frequency    -352.0703 -317.5020 -174.3642   -0.0000    0.0000    0.0000
  IR Intensity    0.0005    0.0039    0.0041    0.0000    0.0000    0.0000
     in X         0.0001    0.0022    0.0020    0.0000    0.0000    0.0000
     in Y         0.0001    0.0001    0.0009    0.0000    0.0000    0.0000
     in Z         0.0003    0.0015    0.0011    0.0000    0.0000    0.0000
  Raman Intsty    0.0200    0.0038    0.3789    0.0000    0.0000    0.0000

     1 x       0.095388 -0.306291  0.396030  0.004495  0.324680 -0.040642
     1 y       0.015997 -0.055809  0.108089 -0.047288  0.040864  0.321221
     1 z      -0.087811  0.279669  0.470702  0.323779  0.001461  0.047479
     2 x      -0.484042 -0.007915 -0.254511  0.004495  0.324680 -0.040642
     2 y      -0.144693  0.583967 -0.040460 -0.047288  0.040864  0.321221
     2 z      -0.463210 -0.237712 -0.223009  0.323779  0.001461  0.047479
     3 x       0.387728  0.346208 -0.194847  0.004495  0.324680 -0.040642
     3 y       0.136636 -0.520380 -0.015191 -0.047288  0.040864  0.321221
     3 z       0.562506 -0.067491 -0.282961  0.323779  0.001461  0.047479
     4 x       0.001535 -0.011219  0.211051  0.003772  0.272465 -0.034106
     4 y      -0.001025 -0.001457  0.155475 -0.039683  0.034292  0.269563
     4 z      -0.001724  0.012787  0.268806  0.271709  0.001226  0.039843
     5 x       0.004623 -0.022332  0.224222  0.003772  0.272465 -0.034106
     5 y      -0.000982 -0.005919 -0.117789 -0.039683  0.034292  0.269563
     5 z      -0.005225  0.020642  0.230778  0.271709  0.001226  0.039843
     6 x       0.036970 -0.085258 -0.018272  0.003772  0.272465 -0.034106
     6 y      -0.006668 -0.024276 -0.128546 -0.039683  0.034292  0.269563
     6 z      -0.036322  0.070992 -0.048481  0.271709  0.001226  0.039843
     7 x      -0.033475  0.000597  0.003440  0.003772  0.272465 -0.034106
     7 y       0.025429 -0.051630  0.061318 -0.039683  0.034292  0.269563
     7 z      -0.005263 -0.026700 -0.036209  0.271709  0.001226  0.039843
     8 x       0.051977  0.029861 -0.071777  0.003772  0.272465 -0.034106
     8 y       0.003142 -0.037911  0.031819 -0.039683  0.034292  0.269563
     8 z       0.061401  0.016440 -0.109072  0.271709  0.001226  0.039843
     9 x      -0.050959 -0.020570 -0.101824  0.003772  0.272465 -0.034106
     9 y      -0.003080  0.041430  0.019628 -0.039683  0.034292  0.269563
     9 z      -0.060467 -0.024354 -0.079812  0.271709  0.001226  0.039843
    10 x       0.017960  0.016631 -0.048661  0.003772  0.272465 -0.034106
    10 y      -0.015240  0.066395  0.047188 -0.039683  0.034292  0.269563
    10 z       0.021950  0.011629  0.008429  0.271709  0.001226  0.039843
    11 x       0.050179  0.054483 -0.026329  0.003772  0.272465 -0.034106
    11 y       0.000540  0.006298 -0.143332 -0.039683  0.034292  0.269563
    11 z      -0.011293 -0.031204 -0.070039  0.271709  0.001226  0.039843
    12 x      -0.077709 -0.000328 -0.108303  0.003772  0.272465 -0.034106
    12 y      -0.011578 -0.002198  0.011752 -0.039683  0.034292  0.269563
    12 z       0.023259 -0.019804 -0.122374  0.271709  0.001226  0.039843


  Frequency      17.9576  124.7223  138.4818  146.2138  149.5761  154.6808
  IR Intensity    0.0043    0.0166    0.0001    0.0004    0.0005    0.0002
     in X         0.0009    0.0003    0.0000    0.0002    0.0000    0.0000
     in Y         0.0002    0.0148    0.0000    0.0002    0.0004    0.0001
     in Z         0.0032    0.0014    0.0000    0.0001    0.0000    0.0001
  Raman Intsty    0.0016    0.8951    0.4397    0.7384    0.0383    0.0295

     1 x       0.318461  0.015529  0.033848 -0.005414  0.004975 -0.063557
     1 y       0.055132  0.068279 -0.133798 -0.085284  0.033837  0.037807
     1 z      -0.283279  0.039382  0.007234 -0.017682  0.005574  0.046181
     2 x      -0.182713 -0.045874  0.015811  0.007076 -0.006327  0.006790
     2 y       0.139947 -0.070442  0.059452  0.032291 -0.014141 -0.011593
     2 z       0.147866 -0.053046 -0.026053 -0.027855  0.019867 -0.018926
     3 x      -0.157091  0.004870 -0.037365 -0.035961  0.001121  0.030384
     3 y      -0.189146 -0.071891  0.041260  0.036885 -0.026686 -0.033484
     3 z       0.117468 -0.020886  0.028282 -0.004343 -0.012926 -0.037766
     4 x       0.094690 -0.043251  0.318033  0.015253 -0.288813  0.278269
     4 y       0.019011  0.147427 -0.638367 -0.216966  0.008923  0.057594
     4 z      -0.091658 -0.008343  0.208990  0.084059  0.247740 -0.195583
     5 x       0.168133  0.047075  0.084575  0.028636  0.338642  0.221231
     5 y       0.018634  0.324306  0.213685  0.039212  0.161567  0.283087
     5 z      -0.153780  0.166139  0.136783 -0.010415 -0.253187 -0.109281
     6 x      -0.370882 -0.006416 -0.041023 -0.197956  0.062146 -0.281672
     6 y      -0.064428  0.414452  0.222397  0.015484  0.047918 -0.053329
     6 z       0.341280  0.074650  0.006181 -0.265616 -0.045452 -0.211400
     7 x       0.107749  0.250550 -0.243988  0.160648 -0.388198 -0.019793
     7 y      -0.175597 -0.155286 -0.054994 -0.024314 -0.006936  0.143531
     7 z      -0.150254 -0.036650 -0.025341  0.250433 -0.321948 -0.043306
     8 x      -0.182359  0.015440  0.015475 -0.308743  0.018906 -0.010658
     8 y      -0.130017 -0.202820 -0.100334  0.061619 -0.229862  0.343151
     8 z       0.152686 -0.113829 -0.003192 -0.284013 -0.191979  0.250157
     9 x      -0.215819 -0.169690 -0.005127 -0.155410  0.201041  0.072677
     9 y       0.067215 -0.199723 -0.087095  0.115852  0.059080 -0.467305
     9 z       0.152175 -0.144362 -0.018932 -0.245266  0.205340  0.258241
    10 x       0.138226 -0.105679 -0.020421  0.332135  0.169318  0.026016
    10 y       0.213324 -0.178447 -0.005678 -0.010557 -0.026474 -0.135238
    10 z      -0.054698  0.107350 -0.286493  0.341997  0.350992  0.081186
    11 x       0.155453 -0.301561 -0.065502  0.159801  0.031818 -0.094682
    11 y       0.022268  0.043889  0.192503  0.309459 -0.008298  0.049492
    11 z      -0.100525 -0.259854 -0.007296  0.179937 -0.133995 -0.004040
    12 x       0.130242  0.343889 -0.056672  0.006508 -0.144584 -0.159948
    12 y       0.022521 -0.105552  0.297308 -0.270594  0.002411 -0.212320
    12 z      -0.073842  0.256070 -0.021976  0.008322  0.127577 -0.013448


  Frequency     157.8640  161.7029  164.0146  166.1779  169.8627  188.9112
  IR Intensity    0.0000    0.0006    0.0002    0.0060    0.0005    0.0075
     in X         0.0000    0.0002    0.0000    0.0023    0.0002    0.0040
     in Y         0.0000    0.0004    0.0002    0.0001    0.0000    0.0000
     in Z         0.0000    0.0000    0.0000    0.0036    0.0003    0.0035
  Raman Intsty    0.0580    0.1017    0.2209    0.0008    0.0000    0.1629

     1 x       0.037138 -0.043452 -0.001642  0.042598  0.022392 -0.056017
     1 y       0.063590 -0.026927  0.004682  0.014761  0.003424  0.064719
     1 z      -0.050310  0.006427  0.039378 -0.042228 -0.024874 -0.061926
     2 x      -0.047911  0.039306  0.010620  0.048686  0.068251  0.076955
     2 y      -0.028965  0.007799 -0.006910 -0.038764 -0.019802 -0.065349
     2 z       0.022891 -0.002664  0.035572 -0.076347  0.048732  0.080547
     3 x      -0.040779 -0.026692 -0.007909  0.057086 -0.045800  0.069321
     3 y      -0.032569  0.008694  0.014661  0.055544  0.025894 -0.056175
     3 z      -0.001658 -0.004791 -0.048676 -0.049853 -0.077208  0.047237
     4 x      -0.028556 -0.159188 -0.272522 -0.448521  0.144339 -0.035129
     4 y      -0.015969 -0.220806  0.146970 -0.087199  0.005178  0.010527
     4 z       0.099765  0.263620  0.113938  0.410937 -0.114704  0.004893
     5 x      -0.128879  0.328737  0.218909 -0.229999 -0.261525  0.032128
     5 y       0.238213  0.018518  0.003469  0.002684 -0.049246  0.658183
     5 z       0.205621 -0.314373 -0.218565  0.221390  0.229069  0.186917
     6 x      -0.288372  0.035264 -0.053346 -0.102751 -0.008277  0.247002
     6 y      -0.084715 -0.003978 -0.033158 -0.009542  0.004681 -0.424487
     6 z      -0.379373  0.012934 -0.084418 -0.020513  0.002024  0.201525
     7 x       0.130382  0.096271  0.042868  0.092664 -0.308117 -0.045853
     7 y      -0.070678 -0.031334  0.072596 -0.097678  0.009825  0.036485
     7 z       0.044598 -0.006996  0.235042 -0.136848 -0.311780 -0.051370
     8 x       0.360814  0.053322  0.390691 -0.072495  0.319324 -0.114431
     8 y      -0.319761  0.339961 -0.290741  0.319526  0.024488  0.009325
     8 z       0.172459  0.419201  0.080068  0.076711  0.337122 -0.140048
     9 x       0.220040 -0.106468 -0.351895  0.083208 -0.290793 -0.172509
     9 y       0.369392  0.315745 -0.371898 -0.347775  0.005090  0.012127
     9 z       0.155192 -0.314021 -0.158753  0.116921 -0.335465 -0.174265
    10 x      -0.111717 -0.144152  0.033457  0.094542  0.266809 -0.071939
    10 y       0.091717 -0.088399  0.094432  0.133026 -0.014108  0.043467
    10 z      -0.046986 -0.032411 -0.121942 -0.073398  0.339964 -0.096703
    11 x      -0.064017 -0.179050  0.066493  0.219278  0.120031  0.143830
    11 y       0.044417 -0.163962  0.185979  0.044978  0.015294 -0.146857
    11 z      -0.033687 -0.055687  0.257424 -0.210585 -0.122908  0.110079
    12 x      -0.028265  0.112012 -0.075929  0.187271 -0.035228 -0.090654
    12 y      -0.255065 -0.153312  0.177535  0.004397 -0.012542 -0.131080
    12 z      -0.182941  0.028959 -0.134104 -0.183910  0.040251 -0.119505


  Frequency     211.2920  233.1042  258.8258  264.5039  281.2680  298.2886
  IR Intensity    0.0137    0.0013    0.0010    0.0424    0.0012    0.1798
     in X         0.0001    0.0000    0.0001    0.0206    0.0012    0.0000
     in Y         0.0136    0.0010    0.0000    0.0001    0.0000    0.1744
     in Z         0.0000    0.0003    0.0009    0.0217    0.0000    0.0054
  Raman Intsty    0.0369    0.0915    0.0102    0.1766    0.1098    0.0633

     1 x      -0.115095  0.052709 -0.070845 -0.016887 -0.062770 -0.008886
     1 y       0.261953  0.058035 -0.021287  0.022236  0.015765  0.019638
     1 z      -0.083861  0.078893  0.067307  0.013279  0.043275 -0.011230
     2 x      -0.069302  0.052474  0.046649  0.193771 -0.020298  0.090594
     2 y       0.061272  0.025196 -0.113128 -0.054479 -0.054482  0.311423
     2 z       0.089476  0.083113 -0.117990  0.206797 -0.071046 -0.005322
     3 x       0.083076  0.071195  0.026896  0.218901  0.022648 -0.071881
     3 y       0.090826  0.027230  0.151126 -0.000062  0.036915  0.284743
     3 z      -0.044262  0.071876 -0.071156  0.184392  0.034626  0.133431
     4 x       0.283564  0.055909 -0.041434  0.031876  0.088806 -0.134645
     4 y      -0.269350  0.120281 -0.014793  0.064864  0.011741 -0.125932
     4 z       0.278955  0.078607  0.018300  0.067493 -0.045383 -0.177594
     5 x      -0.242363  0.032017 -0.002154  0.043713  0.004418  0.199642
     5 y      -0.094181 -0.156208 -0.008382 -0.000511  0.032430 -0.092671
     5 z      -0.282072 -0.002824 -0.011301  0.050055 -0.062088  0.204364
     6 x       0.075663 -0.062256 -0.481749 -0.467982 -0.057187 -0.001757
     6 y      -0.079600  0.076973 -0.087378 -0.024326 -0.083814  0.116742
     6 z       0.079891 -0.090557  0.570992 -0.316520  0.011075  0.031080
     7 x       0.224003 -0.351379 -0.024473  0.004570 -0.270947 -0.189409
     7 y       0.254407  0.053578  0.262147  0.083507 -0.118337  0.124046
     7 z      -0.091309 -0.266923  0.051956 -0.067207  0.001035  0.261262
     8 x       0.199115 -0.023908  0.231756 -0.054350 -0.019739  0.019185
     8 y      -0.059110  0.001885  0.007943  0.032614  0.021116 -0.108379
     8 z      -0.225389 -0.090512 -0.185773 -0.194532 -0.044464 -0.049905
     9 x      -0.222625 -0.089655  0.261404 -0.114572  0.089477 -0.023881
     9 y      -0.128117 -0.013499  0.057904  0.036722 -0.038480 -0.124384
     9 z       0.166034 -0.027251 -0.183974 -0.140593 -0.003542 -0.010681
    10 x      -0.164324 -0.248797  0.021819 -0.079027 -0.056037  0.244478
    10 y       0.189090  0.055920 -0.270893 -0.055988  0.106285  0.223415
    10 z       0.216045 -0.349935 -0.032416 -0.021057  0.299572 -0.108945
    11 x      -0.052207  0.191464  0.031820  0.107197 -0.282636 -0.142155
    11 y      -0.136517  0.203572  0.112963 -0.470470 -0.066396 -0.409150
    11 z      -0.100957  0.253144 -0.044028 -0.024820  0.308177 -0.191596
    12 x       0.019912  0.286427 -0.000207  0.056941  0.575844  0.016832
    12 y      -0.170019 -0.474134 -0.079425  0.372085  0.137601 -0.337502
    12 z       0.004854  0.217547 -0.038569  0.165202 -0.472550 -0.097261


  Frequency     299.4812  300.8638  329.7311  352.7643  358.1979  365.1573
  IR Intensity    0.0187    0.0199    0.1577    0.1747    0.0069    0.0828
     in X         0.0069    0.0089    0.0848    0.0014    0.0062    0.0016
     in Y         0.0117    0.0082    0.0142    0.1705    0.0001    0.0810
     in Z         0.0002    0.0028    0.0588    0.0028    0.0006    0.0001
  Raman Intsty    3.7170    1.9364    0.0080    0.3472    0.0022    7.1416

     1 x      -0.068918  0.146459 -0.014146  0.029889 -0.039427 -0.013302
     1 y      -0.183268 -0.110150 -0.026859 -0.052377 -0.009153  0.160601
     1 z       0.087486 -0.103358 -0.026563  0.017601  0.020392  0.011760
     2 x      -0.135863 -0.070226  0.245388 -0.052886  0.041773  0.018360
     2 y      -0.079100  0.058656 -0.085359 -0.205347  0.015255  0.103689
     2 z       0.036686  0.054811  0.268568 -0.006667  0.012164 -0.054400
     3 x       0.033141  0.116382  0.282403  0.043046  0.034426 -0.063863
     3 y       0.090063 -0.078778 -0.032656 -0.193923 -0.008333  0.077772
     3 z      -0.125329 -0.058808  0.228446 -0.093155  0.017374  0.040284
     4 x      -0.068669 -0.188825  0.134248  0.162921 -0.016591  0.070917
     4 y      -0.109388 -0.072292  0.218347  0.221344  0.009468  0.062943
     4 z      -0.256274 -0.029314  0.162189  0.231990  0.032688  0.094365
     5 x       0.182690  0.015952  0.116598 -0.299030  0.015953 -0.093969
     5 y       0.026730 -0.048511 -0.188965  0.197546 -0.024350 -0.000905
     5 z       0.063980  0.189744  0.074662 -0.288879  0.022902 -0.103038
     6 x      -0.006852  0.013565 -0.000710 -0.004638  0.108508  0.002892
     6 y      -0.021710 -0.039974  0.005595  0.325152  0.000629 -0.573600
     6 z       0.009037 -0.004001  0.059733  0.058281 -0.087365 -0.113819
     7 x      -0.114335  0.120044 -0.063616 -0.240345 -0.075035 -0.165480
     7 y      -0.257551  0.170327 -0.199640 -0.079584  0.458782 -0.134501
     7 z       0.206054 -0.278090  0.006355  0.310231  0.107025  0.212333
     8 x       0.334609  0.174411 -0.040201  0.065426 -0.235855  0.030684
     8 y       0.297270  0.192723  0.075323  0.129195 -0.220985  0.003825
     8 z      -0.237762 -0.188393 -0.126370 -0.040490  0.189084 -0.017853
     9 x      -0.282041 -0.262826 -0.113877 -0.081003 -0.247901 -0.008897
     9 y       0.158579  0.151371  0.032837  0.111845  0.128265 -0.012088
     9 z       0.301922  0.276052 -0.064821  0.097272  0.228785  0.018627
    10 x      -0.229713  0.326074 -0.069340  0.343885 -0.025281  0.241946
    10 y       0.027684 -0.210582  0.034057 -0.018966 -0.472497 -0.063894
    10 z       0.101296 -0.150272 -0.000290 -0.213411 -0.010740 -0.170769
    11 x       0.280804 -0.424385 -0.290958  0.044141  0.196467 -0.248106
    11 y       0.051897  0.001868  0.287065 -0.243388  0.085258  0.199194
    11 z      -0.219583  0.305740 -0.306913  0.008977 -0.260375 -0.282443
    12 x       0.108041 -0.003537 -0.284224 -0.015248  0.235915  0.240086
    12 y       0.031816  0.010306 -0.091981 -0.104946  0.038090  0.111413
    12 z       0.032711  0.006461 -0.365153 -0.065992 -0.281503  0.365404


  Frequency     404.4655  416.8282  448.1129  467.3906  477.0998  632.2862
  IR Intensity    0.4249    0.1847    0.4887    0.6871    0.0609    0.0168
     in X         0.0087    0.0976    0.2631    0.2851    0.0065    0.0002
     in Y         0.4162    0.0011    0.0300    0.0102    0.0542    0.0166
     in Z         0.0000    0.0861    0.1956    0.3918    0.0002    0.0000
  Raman Intsty    0.8812    0.0013    0.0744    0.0000    0.9324    4.0558

     1 x      -0.036841 -0.478488  0.449137 -0.019797  0.174643  0.015428
     1 y       0.193578 -0.095953  0.123745 -0.011591 -0.754694 -0.229950
     1 z      -0.043136  0.433299  0.494400  0.125336  0.014594 -0.030126
     2 x       0.011229 -0.026416  0.148469 -0.364829  0.142422 -0.469428
     2 y       0.390372 -0.236908  0.023381  0.135244  0.245483  0.122030
     2 z      -0.036332  0.014463  0.094925  0.400436 -0.127927  0.430317
     3 x      -0.114666 -0.074012  0.163457 -0.323843 -0.175946  0.441429
     3 y       0.340605  0.262475  0.072707 -0.263200  0.179996  0.289602
     3 z       0.062414  0.094611  0.080924  0.344044  0.157038 -0.390623
     4 x       0.090350  0.088587 -0.239782 -0.013000  0.082217  0.015209
     4 y       0.090819  0.026364 -0.245037 -0.018359  0.213453  0.041724
     4 z       0.128067 -0.063563 -0.312944 -0.040529  0.138041  0.025484
     5 x      -0.048049  0.074074 -0.310018 -0.018574 -0.157888 -0.017810
     5 y      -0.001493  0.020413  0.124747  0.013887  0.141648  0.036917
     5 z      -0.044434 -0.086049 -0.314434 -0.047322 -0.143956 -0.012423
     6 x       0.010688 -0.014162 -0.038943  0.131234  0.003610  0.000849
     6 y       0.027355 -0.007763  0.004408  0.022654 -0.079252 -0.049675
     6 z       0.010648  0.011492 -0.005930 -0.119287 -0.011177 -0.007576
     7 x       0.060648  0.250392 -0.011069  0.042918  0.065041 -0.021859
     7 y      -0.474990 -0.096505 -0.072416  0.141096  0.111230 -0.029116
     7 z      -0.088319 -0.324478 -0.040453 -0.051786 -0.091158  0.021988
     8 x       0.065779 -0.066192 -0.063683  0.215545  0.040329 -0.130337
     8 y      -0.013199 -0.124546 -0.040446  0.178552 -0.011926 -0.107753
     8 z      -0.047078  0.050947  0.010269 -0.200695 -0.037184  0.114645
     9 x      -0.041763 -0.085227 -0.042701  0.230572 -0.036335  0.135946
     9 y      -0.042512  0.092654  0.000085 -0.093696 -0.028985 -0.055808
     9 z       0.049415  0.085455 -0.007455 -0.229878  0.032309 -0.129142
    10 x      -0.011038  0.322859 -0.051181  0.072794 -0.136646  0.027731
    10 y      -0.525231  0.158419 -0.040637 -0.128830  0.078457 -0.018979
    10 z      -0.013666 -0.201051 -0.004399 -0.064248  0.083496 -0.021988
    11 x       0.153370  0.053880 -0.073322  0.082437 -0.050267 -0.030397
    11 y      -0.133935  0.006798  0.041004  0.038757 -0.013295 -0.018542
    11 z       0.175676 -0.046274 -0.051245 -0.129710 -0.058262 -0.024028
    12 x      -0.112824  0.065647 -0.076212  0.100311  0.021776  0.035650
    12 y      -0.028549  0.008041 -0.033669  0.012228 -0.019024 -0.015266
    12 z      -0.149989 -0.072792 -0.072103 -0.153049  0.035810  0.021638




--------------------------------------------------------------------------------
  Vibrational properties (for cluster):  Temperature  =       0.000 K
--------------------------------------------------------------------------------
  Zero point energy            =        0.504608 eV
--------------------------------------------------------------------------------

  Phonon density of states : 

--------------------------------------------------------------------------------
 Frequency (cm-1) Density of States                                             
--------------------------------------------------------------------------------
    0.00000 |****************************************                      0.062
    9.87947 |********************                                          0.031
   19.75895 |                                                              0.000
   29.63842 |                                                              0.000
   39.51789 |                                                              0.000
   49.39736 |                                                              0.000
   59.27684 |                                                              0.000
   69.15631 |                                                              0.000
   79.03578 |                                                              0.000
   88.91525 |                                                              0.000
   98.79473 |                                                              0.000
  108.67420 |                                                              0.000
  118.55367 |********************                                          0.031
  128.43315 |                                                              0.000
  138.31262 |****************************************                      0.062
  148.19209 |************************************************************  0.094
  158.07156 |************************************************************  0.094
  167.95104 |********************                                          0.031
  177.83051 |                                                              0.000
  187.70998 |********************                                          0.031
  197.58946 |                                                              0.000
  207.46893 |********************                                          0.031
  217.34840 |                                                              0.000
  227.22787 |********************                                          0.031
  237.10735 |                                                              0.000
  246.98682 |                                                              0.000
  256.86629 |****************************************                      0.062
  266.74576 |                                                              0.000
  276.62524 |********************                                          0.031
  286.50471 |                                                              0.000
  296.38418 |************************************************************  0.094
  306.26366 |                                                              0.000
  316.14313 |                                                              0.000
  326.02260 |********************                                          0.031
  335.90207 |                                                              0.000
  345.78155 |********************                                          0.031
  355.66102 |****************************************                      0.062
  365.54049 |                                                              0.000
  375.41996 |                                                              0.000
  385.29944 |                                                              0.000
  395.17891 |********************                                          0.031
  405.05838 |                                                              0.000
  414.93786 |********************                                          0.031
  424.81733 |                                                              0.000
  434.69680 |                                                              0.000
  444.57627 |********************                                          0.031
  454.45575 |                                                              0.000
  464.33522 |********************                                          0.031
  474.21469 |********************                                          0.031
  484.09416 |                                                              0.000
  493.97364 |                                                              0.000
  503.85311 |                                                              0.000
  513.73258 |                                                              0.000
  523.61206 |                                                              0.000
  533.49153 |                                                              0.000
  543.37100 |                                                              0.000
  553.25047 |                                                              0.000
  563.12995 |                                                              0.000
  573.00942 |                                                              0.000
  582.88889 |                                                              0.000
  592.76837 |                                                              0.000
  602.64784 |                                                              0.000
  612.52731 |                                                              0.000
  622.40678 |********************                                          0.031
--------------------------------------------------------------------------------



  XYZ File written as 005/0/sp_mod_-60/sp_mod_-60_eig.xyz


  Time to end of properties =       0.0123 seconds


  Peak dynamic memory used =       0.64 MB 


  Timing analysis for GULP :

--------------------------------------------------------------------------------
  Task / Subroutine                                          Time (Seconds)
--------------------------------------------------------------------------------
  Calculation of phonons                                          0.0037
--------------------------------------------------------------------------------
  Total CPU time                                                  0.0124
--------------------------------------------------------------------------------


  Job Finished at 10:34.30 17th May        2022                               

