********************************************************************************
*                       GENERAL UTILITY LATTICE PROGRAM                        *
*                                 Julian Gale                                  *
*                       Curtin Institute for Computation                       *
*                           Department of Chemistry                            *
*                    Curtin University, Western Australia                      *
********************************************************************************
* Version = 5.1.1 * Last modified =  24th November 2018                        *
********************************************************************************
*  optimise     - perform optimisation run                                     *
*  conp         - constant pressure calculation                                *
*  shell        - only shells and radii to be optimised                        *
*  phonon       - calculate phonons for final geometry                         *
*  eigenvectors - output phonon eigenvectors                                   *
********************************************************************************

  Job Started  at 14:39.03 25th May        2022                               

  Number of CPUs =     1

  Host name      = login03                                 


  Total number of configurations input =      1

********************************************************************************
*  Input for Configuration =   1                                               *
********************************************************************************

  Formula = Al3F9                                                       

  Number of irreducible atoms/shells =      21


  Total number atoms/shells =      21

  Dimensionality = 0               :  Cluster


  Charge on cluster =  -0.000000


  Initial cluster dipoles : x =      0.269795 e.Angs
                            y =     -0.001387 e.Angs
                            z =     -0.244554 e.Angs

  Temperature of configuration =  0.000     K 

  Symmetry number =      1

  Cartesian coordinates of cluster :

--------------------------------------------------------------------------------
   No.  Atomic       x           y          z         Charge      Occupancy
        Label      (Angs)      (Angs)     (Angs)        (e)         (Frac)  
--------------------------------------------------------------------------------
      1 Al    c     -0.3312      0.8197     -1.8274     3.00000    1.000000    
      2 Al    c     -0.4287      1.1081      1.2701     3.00000    1.000000    
      3 Al    c     -3.0699      0.6257     -1.8399     3.00000    1.000000    
      4 F     c     -3.5819      0.4062     -3.5774     0.59000    1.000000    
      5 F     c     -1.5430     -0.6200     -1.7527     0.59000    1.000000    
      6 F     c     -1.7921      2.0740     -1.9732     0.59000    1.000000    
      7 F     c     -2.0573      0.8838      0.4605     0.59000    1.000000    
      8 F     c      0.6446      1.0713     -0.3114     0.59000    1.000000    
      9 F     c     -0.0876      2.7949      1.8760     0.59000    1.000000    
     10 F     c      0.2056     -0.3762      2.1354     0.59000    1.000000    
     11 F     c     -4.3554      0.5853     -0.5558     0.59000    1.000000    
     12 F     c      0.8079      0.8425     -3.2482     0.59000    1.000000    
     13 F     s     -3.5819 *    0.4062 *   -3.5774 *  -1.59000    1.000000    
     14 F     s     -1.5430 *   -0.6200 *   -1.7527 *  -1.59000    1.000000    
     15 F     s     -1.7921 *    2.0740 *   -1.9732 *  -1.59000    1.000000    
     16 F     s     -2.0573 *    0.8838 *    0.4605 *  -1.59000    1.000000    
     17 F     s      0.6446 *    1.0713 *   -0.3114 *  -1.59000    1.000000    
     18 F     s     -0.0876 *    2.7949 *    1.8760 *  -1.59000    1.000000    
     19 F     s      0.2056 *   -0.3762 *    2.1354 *  -1.59000    1.000000    
     20 F     s     -4.3554 *    0.5853 *   -0.5558 *  -1.59000    1.000000    
     21 F     s      0.8079 *    0.8425 *   -3.2482 *  -1.59000    1.000000    
--------------------------------------------------------------------------------


  Brillouin zone sampling points :

--------------------------------------------------------------------------------
  Point number          x          y          z            Weight
--------------------------------------------------------------------------------
        1           0.000000   0.000000   0.000000     1.00000000
--------------------------------------------------------------------------------


********************************************************************************
*  General input information                                                   *
********************************************************************************

  Species output for all configurations : 

--------------------------------------------------------------------------------
  Species    Type    Atomic    Atomic    Charge       Radii (Angs)     Library
                     Number     Mass       (e)     Cova   Ionic  VDW   Symbol
--------------------------------------------------------------------------------
    Al       Core       13      26.98   3.000000   1.350  0.000  2.050          
    F        Core        9      19.00   0.590000   0.710  0.000  1.300          
    F        Shell       9       0.00  -1.590000   0.710  0.000  1.300          
--------------------------------------------------------------------------------


  Accuracy factor for short range sums = 12.000

  Time limit = Infinity

  Maximum range for interatomic potentials =    100000.000000 Angstroms

  General interatomic potentials :

--------------------------------------------------------------------------------
Atom  Types   Potential      Parameter       Value         Units   Cutoffs(Ang)
  1     2                                                            Min /  Max 
--------------------------------------------------------------------------------
Al   c F    s Buckingham    Buckingham A     3760.0008    eV        0.000 10.000
                            Buckingham rho  0.22200000    Ang       
                            Buckingham C     0.0000000    eV*Ang^6  
--------------------------------------------------------------------------------
F    s F    s Buck 4 range  Buck4 A          1127.7000    eV        0.000 12.000
                            Buck4 rho       0.27530000    Ang       
                            Buck4 C          15.830000    eV*Ang^6  
                            Buck4 minimum    2.7900000    Ang       
--------------------------------------------------------------------------------
F    c F    s Spring (c-s)  Spring k 2       20.770000    eV*Ang^-2 0.000  0.800
                            Spring k 4       0.0000000    eV*Ang^-4 
--------------------------------------------------------------------------------

********************************************************************************
*  Output for configuration   1                                                *
********************************************************************************


  Components of energy : 

--------------------------------------------------------------------------------
  Interatomic potentials     =           9.99588722 eV    
  Monopole - monopole (real) =        -178.24734391 eV    
--------------------------------------------------------------------------------
  Total lattice energy       =        -168.25145668 eV    
--------------------------------------------------------------------------------
  Total lattice energy       =          -16233.6936 kJ/mol
--------------------------------------------------------------------------------


  Number of variables =       27

  Maximum number of calculations  =          2000
  Maximum Hessian update interval =            10
  Maximum step size               =   1.000000000
  Maximum parameter tolerance     =   0.000001000
  Maximum function  tolerance     =   0.000010000
  Maximum gradient  tolerance     =   0.000000010
  Maximum gradient  component     =   0.010000000

  Symmetry not applied to optimisation

  Newton-Raphson optimiser to be used

  BFGS hessian update to be used

  Lower half triangular hessian to be used

  Minimiser to switch to RFO
  When gradient norm is less than     0.010000

  Shell only optimisation

  Start of cluster optimisation :

  Cycle:      0 Energy:      -168.251457  Gnorm:      1.429492  CPU:    0.004
  ** Hessian calculated **
  Cycle:      1 Energy:      -185.260153  Gnorm:      0.444525  CPU:    0.005
  ** Hessian calculated **
  Cycle:      2 Energy:      -186.527320  Gnorm:      0.018334  CPU:    0.007
  Cycle:      3 Energy:      -186.529818  Gnorm:      0.003936  CPU:    0.008
  ** Hessian has required structure
  Cycle:      4 Energy:      -186.529828  Gnorm:      0.003607  CPU:    0.010
  ** Hessian has required structure
  Cycle:      5 Energy:      -186.529830  Gnorm:      0.003554  CPU:    0.011
  ** Hessian has required structure
  Cycle:      6 Energy:      -186.529830  Gnorm:      0.003524  CPU:    0.013
  ** Hessian has required structure
  Cycle:      7 Energy:      -186.529831  Gnorm:      0.003523  CPU:    0.014
  ** Hessian has required structure
  Cycle:      8 Energy:      -186.529831  Gnorm:      0.003522  CPU:    0.016
  ** Hessian has required structure
  Cycle:      9 Energy:      -186.529832  Gnorm:      0.003474  CPU:    0.017
  ** Hessian has required structure
  Cycle:     10 Energy:      -186.529836  Gnorm:      0.003367  CPU:    0.018
  ** Hessian has required structure
  Cycle:     11 Energy:      -186.529885  Gnorm:      0.002135  CPU:    0.020
  ** Hessian has required structure
  Cycle:     12 Energy:      -186.529925  Gnorm:      0.000001  CPU:    0.021
  ** Hessian has required structure

  XYZ File written as 003/0/sp_mod_80/sp_mod_80_eig.xyz



  **** Optimisation achieved ****


  Final energy =    -186.52992526 eV
  Final Gnorm  =       0.00000000

  Components of energy : 

--------------------------------------------------------------------------------
  Interatomic potentials     =          38.07361070 eV    
  Monopole - monopole (real) =        -224.60353596 eV    
--------------------------------------------------------------------------------
  Total lattice energy       =        -186.52992526 eV    
--------------------------------------------------------------------------------
  Total lattice energy       =          -17997.2864 kJ/mol
--------------------------------------------------------------------------------

  Final cartesian coordinates of atoms :

--------------------------------------------------------------------------------
   No.  Atomic        x           y          z          Radius
        Label       (Angs)      (Angs)     (Angs)       (Angs) 
--------------------------------------------------------------------------------
     1  Al    c    -0.331216    0.819717   -1.827388    0.000000
     2  Al    c    -0.428672    1.108062    1.270111    0.000000
     3  Al    c    -3.069897    0.625684   -1.839861    0.000000
     4  F     c    -3.581879    0.406236   -3.577375    0.000000
     5  F     c    -1.542968   -0.619986   -1.752733    0.000000
     6  F     c    -1.792091    2.074027   -1.973153    0.000000
     7  F     c    -2.057250    0.883791    0.460470    0.000000
     8  F     c     0.644581    1.071319   -0.311399    0.000000
     9  F     c    -0.087616    2.794876    1.875961    0.000000
    10  F     c     0.205626   -0.376238    2.135415    0.000000
    11  F     c    -4.355410    0.585272   -0.555802    0.000000
    12  F     c     0.807860    0.842481   -3.248242    0.000000
    13  F     s    -3.499796    0.441566   -3.316079    0.000000
    14  F     s    -1.543340   -0.330319   -1.764672    0.000000
    15  F     s    -1.743787    1.781437   -1.937511    0.000000
    16  F     s    -1.821221    0.910646    0.499425    0.000000
    17  F     s     0.387305    1.036483   -0.370345    0.000000
    18  F     s    -0.137760    2.540126    1.780406    0.000000
    19  F     s     0.110461   -0.150000    2.000030    0.000000
    20  F     s    -4.153348    0.593755   -0.760045    0.000000
    21  F     s     0.624992    0.836779   -3.016779    0.000000
--------------------------------------------------------------------------------


  Final Cartesian derivatives :

--------------------------------------------------------------------------------
   No.  Atomic          x             y             z           Radius
        Label       (eV/Angs)     (eV/Angs)    (eV/Angs)      (eV/Angs)
--------------------------------------------------------------------------------
      1 Al    c       0.000000      0.000000      0.000000      0.000000
      2 Al    c       0.000000      0.000000      0.000000      0.000000
      3 Al    c       0.000000      0.000000      0.000000      0.000000
      4 F     c       0.000000      0.000000      0.000000      0.000000
      5 F     c       0.000000      0.000000      0.000000      0.000000
      6 F     c       0.000000      0.000000      0.000000      0.000000
      7 F     c       0.000000      0.000000      0.000000      0.000000
      8 F     c       0.000000      0.000000      0.000000      0.000000
      9 F     c       0.000000      0.000000      0.000000      0.000000
     10 F     c       0.000000      0.000000      0.000000      0.000000
     11 F     c       0.000000      0.000000      0.000000      0.000000
     12 F     c       0.000000      0.000000      0.000000      0.000000
     13 F     s       0.000000     -0.000000      0.000000      0.000000
     14 F     s      -0.000000     -0.000000      0.000000      0.000000
     15 F     s      -0.000000      0.000000     -0.000000      0.000000
     16 F     s      -0.000000     -0.000000      0.000000      0.000000
     17 F     s       0.000000      0.000000      0.000000      0.000000
     18 F     s       0.000000      0.000000     -0.000000      0.000000
     19 F     s       0.000000     -0.000000     -0.000000      0.000000
     20 F     s      -0.000000     -0.000000     -0.000000      0.000000
     21 F     s       0.000000      0.000000      0.000000      0.000000
--------------------------------------------------------------------------------
  Maximum abs         0.000000      0.000000      0.000000      0.000000
--------------------------------------------------------------------------------


  Born effective charge tensors : 

-------------------------------------------------------------------------------
  Atom             x           y             z
-------------------------------------------------------------------------------
    1 Al    x       1.0530     -0.0636      0.2096
            y      -0.0556      1.1591      0.0072
            z       0.1297     -0.0015      0.9660
-------------------------------------------------------------------------------
    2 Al    x       0.9476      0.0217     -0.3555
            y       0.0175      0.3925      0.0426
            z      -0.4105      0.0423      1.3897
-------------------------------------------------------------------------------
    3 Al    x       1.3838     -0.0302      0.2872
            y      -0.0336      1.4198     -0.0331
            z       0.3912     -0.0279      0.7062
-------------------------------------------------------------------------------
    4 F     x      -0.5406      0.0143      0.1418
            y       0.0131     -0.5256      0.0632
            z       0.0763      0.0592     -0.0133
-------------------------------------------------------------------------------
    5 F     x      -0.3868      0.1033     -0.0193
            y       0.1402     -0.2586     -0.0165
            z      -0.0182     -0.0137     -0.3457
-------------------------------------------------------------------------------
    6 F     x      -0.3687     -0.0305     -0.0092
            y      -0.0741     -0.2835      0.0010
            z      -0.0107      0.0054     -0.3437
-------------------------------------------------------------------------------
    7 F     x      -0.2055      0.0317      0.1531
            y       0.0350     -0.3729     -0.0083
            z       0.2082     -0.0033     -0.6383
-------------------------------------------------------------------------------
    8 F     x      -0.3252      0.0058      0.1022
            y       0.0124     -0.2617      0.0090
            z       0.1674      0.0148     -0.3001
-------------------------------------------------------------------------------
    9 F     x      -0.5096      0.0975      0.0326
            y       0.0894     -0.0452      0.1340
            z       0.0183      0.1792     -0.5248
-------------------------------------------------------------------------------
   10 F     x      -0.4615     -0.1582      0.0806
            y      -0.1526     -0.1573     -0.1833
            z       0.0750     -0.2319     -0.4668
-------------------------------------------------------------------------------
   11 F     x      -0.2701      0.0047     -0.3210
            y       0.0063     -0.5393     -0.0086
            z      -0.3052     -0.0098     -0.2353
-------------------------------------------------------------------------------
   12 F     x      -0.3165      0.0035     -0.3022
            y       0.0019     -0.5274     -0.0071
            z      -0.3215     -0.0127     -0.1938
-------------------------------------------------------------------------------




  Moment of inertia tensor (10^-46 x kgm^2): 

-------------------------------------------------------------------------------
                x           y           z           Principal axis system
-------------------------------------------------------------------------------
       x        164.70      -10.47      -39.94          107.089952
       y        -10.47      242.97      -12.75          193.363726
       z        -39.94      -12.75      137.77          244.981989
-------------------------------------------------------------------------------
  Centre of mass (Ang) =    -1.296941     0.851259    -0.780603
-------------------------------------------------------------------------------


  Vibrational Frequency Calculation : 

--------------------------------------------------------------------------------

  Frequencies (cm-1) and Eigenvectors : 

  Frequency      -0.0000   -0.0000    0.0000   22.7407   26.3856   39.7878
  IR Intensity    0.0000    0.0000    0.0000    0.0001    0.0006    0.0005
     in X         0.0000    0.0000    0.0000    0.0001    0.0006    0.0001
     in Y         0.0000    0.0000    0.0000    0.0000    0.0000    0.0004
     in Z         0.0000    0.0000    0.0000    0.0000    0.0000    0.0000
  Raman Intsty    0.0000    0.0000    0.0000    0.0001    0.0179    0.0048

     1 x       0.305626  0.110440 -0.038531  0.095491  0.143758  0.052283
     1 y      -0.105479  0.306814  0.042758  0.096755 -0.048500 -0.261120
     1 z       0.050555 -0.027514  0.322143  0.079756  0.032441 -0.007720
     2 x       0.305626  0.110440 -0.038531 -0.178519 -0.259292 -0.043122
     2 y      -0.105479  0.306814  0.042758 -0.261284  0.230923  0.010312
     2 z       0.050555 -0.027514  0.322143  0.106379  0.018741 -0.020103
     3 x       0.305626  0.110440 -0.038531  0.090765  0.148002  0.008015
     3 y      -0.105479  0.306814  0.042758  0.162330 -0.177535  0.227489
     3 z       0.050555 -0.027514  0.322143 -0.180234 -0.052755  0.025936
     4 x       0.256476  0.092679 -0.032334  0.197728  0.284793  0.023159
     4 y      -0.088516  0.257473  0.035882  0.329874 -0.305535  0.141666
     4 z       0.042425 -0.023090  0.270336 -0.211670 -0.075014  0.021669
     5 x       0.256476  0.092679 -0.032334  0.046700  0.179516 -0.171460
     5 y      -0.088516  0.257473  0.035882  0.097101 -0.084327 -0.029867
     5 z       0.042425 -0.023090  0.270336 -0.182355  0.112363  0.104187
     6 x       0.256476  0.092679 -0.032334  0.114073  0.080204  0.228393
     6 y      -0.088516  0.257473  0.035882  0.124777 -0.106940 -0.014485
     6 z       0.042425 -0.023090  0.270336  0.099178 -0.115093 -0.080693
     7 x       0.256476  0.092679 -0.032334 -0.089658 -0.162515 -0.057689
     7 y      -0.088516  0.257473  0.035882 -0.166595  0.092521  0.165976
     7 z       0.042425 -0.023090  0.270336 -0.046212 -0.058018 -0.011543
     8 x       0.256476  0.092679 -0.032334 -0.029963 -0.070390  0.006988
     8 y      -0.088516  0.257473  0.035882 -0.104737  0.135121 -0.241235
     8 z       0.042425 -0.023090  0.270336  0.167812  0.120360  0.020106
     9 x       0.256476  0.092679 -0.032334 -0.202492 -0.319900  0.168493
     9 y      -0.088516  0.257473  0.035882 -0.258815  0.240702  0.006185
     9 z       0.042425 -0.023090  0.270336  0.229251 -0.056654 -0.125589
    10 x       0.256476  0.092679 -0.032334 -0.206624 -0.240728 -0.238070
    10 y      -0.088516  0.257473  0.035882 -0.273573  0.261293 -0.014654
    10 z       0.042425 -0.023090  0.270336  0.037691  0.148261  0.091481
    11 x       0.256476  0.092679 -0.032334 -0.020067 -0.035171 -0.070815
    11 y      -0.088516  0.257473  0.035882  0.048626 -0.137554  0.525691
    11 z       0.042425 -0.023090  0.270336 -0.250518 -0.202256 -0.044788
    12 x       0.256476  0.092679 -0.032334  0.181084  0.245503  0.090533
    12 y      -0.088516  0.257473  0.035882  0.205962 -0.101106 -0.511490
    12 z       0.042425 -0.023090  0.270336  0.149791  0.127928  0.027420


  Frequency      47.8670   59.3195   65.7976   80.5143  113.5406  157.5823
  IR Intensity    0.0019    0.0060    0.0017    0.0019    0.0016    0.0209
     in X         0.0007    0.0060    0.0000    0.0000    0.0013    0.0139
     in Y         0.0011    0.0000    0.0017    0.0019    0.0001    0.0002
     in Z         0.0000    0.0000    0.0000    0.0000    0.0002    0.0068
  Raman Intsty    0.0212    0.0865    0.0000    0.0002    0.0014    0.0060

     1 x       0.056248 -0.149710  0.006569  0.006272 -0.040002 -0.061627
     1 y       0.118624  0.008090  0.003277 -0.078197 -0.007523  0.002647
     1 z      -0.116884  0.263023 -0.014717  0.006207 -0.043344 -0.068485
     2 x      -0.067924  0.140640 -0.022356 -0.005291 -0.023651 -0.028220
     2 y      -0.058008  0.078779  0.081591  0.077077 -0.008202 -0.010733
     2 z      -0.072566  0.195714 -0.012574 -0.010658  0.034500 -0.023735
     3 x       0.054803 -0.111100  0.008511 -0.003322  0.000861 -0.139653
     3 y      -0.026937 -0.079057  0.008040  0.060788  0.000278 -0.019687
     3 z       0.173453 -0.449513  0.019350  0.001056 -0.027262 -0.035114
     4 x       0.080824 -0.048186 -0.016620 -0.031897  0.514896 -0.133968
     4 y      -0.329097 -0.222314  0.342200  0.324627  0.039561 -0.021954
     4 z       0.170000 -0.363955 -0.019532 -0.024949 -0.186267 -0.030126
     5 x       0.128986 -0.122282 -0.021121 -0.073345 -0.025998 -0.081222
     5 y       0.047926 -0.014290  0.020395 -0.001654  0.004708  0.028845
     5 z       0.184087  0.029626  0.032222  0.022175  0.289714 -0.040125
     6 x      -0.015452 -0.140829  0.028897  0.070733 -0.023536 -0.097032
     6 y       0.017099 -0.042060  0.018949  0.004393  0.039940 -0.036909
     6 z      -0.132584 -0.146796 -0.018221 -0.017950  0.286181  0.002131
     7 x      -0.119766  0.173407 -0.055588  0.000931 -0.191797 -0.183192
     7 y       0.326547  0.218613  0.385123 -0.025836 -0.011307 -0.023774
     7 z      -0.021800 -0.026432 -0.021376  0.004959  0.347457  0.254031
     8 x      -0.047413  0.046649  0.008753 -0.045221 -0.095086 -0.179928
     8 y       0.194874  0.087126 -0.181891  0.436853 -0.004805  0.020302
     8 z      -0.053340  0.098999  0.014786 -0.044905 -0.019532 -0.021723
     9 x       0.170969  0.262421  0.349184 -0.227516  0.190152  0.291465
     9 y      -0.228482 -0.010367  0.016679 -0.013598 -0.003808 -0.003170
     9 z       0.305369  0.295951 -0.069597  0.328361 -0.092929 -0.206369
    10 x      -0.245483  0.015240 -0.353181  0.226462  0.217091  0.246010
    10 y      -0.323902 -0.024237 -0.036311 -0.023217  0.022510  0.011387
    10 z      -0.390032  0.087142  0.052134 -0.323850 -0.089808 -0.176528
    11 x      -0.068277  0.107568  0.058027  0.024856 -0.221353 -0.170034
    11 y       0.151693  0.071969 -0.650528 -0.229441 -0.035504 -0.018906
    11 z       0.039965 -0.182328  0.047661  0.020134 -0.254384 -0.076132
    12 x       0.064223 -0.150788  0.010320  0.057785 -0.289543  0.581382
    12 y       0.103208 -0.073750 -0.025328 -0.543229 -0.032888  0.077272
    12 z      -0.082601  0.196800 -0.008615  0.040070 -0.237407  0.446576


  Frequency     173.7425  184.7728  190.3380  201.2919  209.4886  228.8428
  IR Intensity    0.0058    0.0203    0.0306    0.0027    0.0008    0.0533
     in X         0.0000    0.0004    0.0003    0.0000    0.0000    0.0302
     in Y         0.0057    0.0001    0.0300    0.0000    0.0008    0.0007
     in Z         0.0001    0.0198    0.0003    0.0027    0.0000    0.0224
  Raman Intsty    0.0006    0.2973    0.0002    0.0314    0.0001    0.0118

     1 x      -0.013728  0.150127 -0.047823  0.046605  0.007682  0.225962
     1 y       0.226720 -0.004367  0.450057  0.009769  0.008645  0.035238
     1 z      -0.002591 -0.249515 -0.048742  0.166239  0.000237  0.173840
     2 x      -0.001363 -0.196515  0.021137 -0.122012 -0.022423 -0.039991
     2 y      -0.048204 -0.010017 -0.186160 -0.006622  0.180505 -0.000245
     2 z       0.009132  0.134961  0.018378  0.109351 -0.015558  0.131976
     3 x       0.018614  0.095200 -0.013234  0.079803  0.011855  0.140356
     3 y      -0.064895 -0.002769  0.119467  0.000143 -0.099095  0.015834
     3 z       0.013216 -0.133527 -0.009336 -0.198610  0.020848 -0.030141
     4 x       0.019908 -0.243214  0.032538 -0.094609  0.014634 -0.530611
     4 y      -0.073084 -0.027474 -0.255168 -0.034403 -0.147219 -0.035086
     4 z       0.013219 -0.018484  0.023254 -0.121677  0.025616  0.179455
     5 x       0.126653  0.093338  0.063842  0.021942  0.079834  0.162144
     5 y       0.086741  0.035657  0.343246  0.018820 -0.062898  0.067350
     5 z      -0.212314 -0.151249  0.075754  0.089608 -0.583393  0.035079
     6 x      -0.130616  0.098458 -0.146330  0.044959 -0.066498  0.171680
     6 y       0.108225 -0.035623  0.310896  0.011519  0.019170 -0.022895
     6 z       0.203910 -0.145278 -0.118223  0.086237  0.572668  0.016487
     7 x       0.043016 -0.276247 -0.008551 -0.172786 -0.034968 -0.014540
     7 y      -0.354375 -0.012849  0.128722  0.017408  0.252066  0.005728
     7 z       0.008364  0.313595 -0.009226  0.201251 -0.009465  0.053579
     8 x      -0.030586 -0.314950  0.031597 -0.001041  0.027513  0.170251
     8 y       0.476187 -0.019770 -0.315282  0.008087 -0.253642  0.037474
     8 z      -0.032779  0.021174  0.027019  0.154594  0.027624  0.203876
     9 x       0.339582  0.156206 -0.196676 -0.130607 -0.011762  0.047646
     9 y      -0.029977 -0.129932 -0.083610  0.180189  0.096269  0.071974
     9 z      -0.214663  0.270094 -0.096831 -0.398377  0.182125 -0.116003
    10 x      -0.369207  0.127062  0.201344 -0.066418  0.011411  0.074216
    10 y      -0.078014  0.201756 -0.033040 -0.267953  0.068302 -0.085062
    10 z       0.212727  0.259094  0.113491 -0.374066 -0.209837 -0.096143
    11 x       0.012712  0.283051  0.013603  0.508789 -0.022071 -0.326720
    11 y       0.026804  0.033256 -0.149072  0.064046  0.070631 -0.075156
    11 z       0.010576  0.071915  0.009206  0.240386 -0.007718 -0.484039
    12 x      -0.015661  0.018130  0.056202 -0.115466  0.005348 -0.142929
    12 y      -0.297902 -0.024581 -0.403523 -0.001634 -0.149993 -0.024894
    12 z      -0.012585 -0.325240  0.022864  0.030309 -0.004206 -0.120795


  Frequency     235.5242  264.2996  265.4616  281.9956  318.1369  370.0681
  IR Intensity    0.0207    0.0755    0.0275    0.0155    0.0092    0.0087
     in X         0.0002    0.0108    0.0027    0.0127    0.0007    0.0072
     in Y         0.0203    0.0011    0.0205    0.0005    0.0001    0.0000
     in Z         0.0002    0.0637    0.0043    0.0023    0.0085    0.0015
  Raman Intsty    0.0008    0.0262    0.0060    0.0846    0.1087    0.5989

     1 x       0.027455  0.028732  0.019545  0.010258 -0.005330 -0.281639
     1 y      -0.267351  0.017042 -0.123722 -0.000173 -0.021943 -0.007987
     1 z       0.021116 -0.213456 -0.061958  0.047761 -0.202093  0.037522
     2 x      -0.003602  0.250537  0.135277 -0.330542  0.036285  0.116976
     2 y       0.026433  0.119051 -0.323563 -0.061422  0.038031 -0.002163
     2 z      -0.009564 -0.180327 -0.017254 -0.181611  0.348268 -0.154200
     3 x      -0.051791 -0.037372 -0.020026  0.045230  0.055191  0.349673
     3 y       0.541050 -0.023469  0.010226 -0.005019  0.001057  0.018034
     3 z      -0.037253 -0.183504 -0.053319 -0.092575 -0.006485  0.026871
     4 x       0.052580 -0.265548 -0.074277 -0.146555 -0.036854 -0.064258
     4 y      -0.460623 -0.039257 -0.007871 -0.014885 -0.002070  0.009713
     4 z       0.057271 -0.116350 -0.035803 -0.031127  0.020891  0.202076
     5 x      -0.351312 -0.024416 -0.035741  0.016738 -0.005698  0.074327
     5 y       0.115040  0.090621 -0.085529 -0.010714 -0.025151 -0.452674
     5 z      -0.121270  0.387664 -0.041692  0.354311  0.160751  0.007035
     6 x       0.314960 -0.040842  0.039367  0.007331 -0.006090  0.022835
     6 y       0.182587  0.018177 -0.077859  0.066003  0.051144  0.462917
     6 z       0.089008  0.334010  0.252418  0.372531  0.166942 -0.063212
     7 x       0.012739  0.056515 -0.023541 -0.125687  0.416951 -0.053243
     7 y      -0.126657 -0.151586  0.547450 -0.027958  0.013072  0.004972
     7 z       0.000748  0.260815  0.052975 -0.540274 -0.264149  0.118916
     8 x      -0.011112  0.178558  0.007584  0.026977 -0.620931 -0.183903
     8 y       0.099290 -0.121267  0.365094  0.021179 -0.061286 -0.033692
     8 z      -0.014648 -0.253428 -0.126020  0.056756  0.029407 -0.161982
     9 x       0.039430 -0.178274 -0.255765  0.195361 -0.006292 -0.022393
     9 y       0.004609  0.065624 -0.169264 -0.250321  0.219522 -0.048330
     9 z       0.022325  0.210199 -0.239703 -0.002207 -0.046566  0.014713
    10 x      -0.036206 -0.309392  0.110065  0.174732  0.027943 -0.031718
    10 y       0.009070  0.003358 -0.122755  0.269807 -0.216820  0.044604
    10 z      -0.012115  0.026454  0.354166 -0.016638 -0.025262  0.008600
    11 x       0.023510  0.071561  0.008574  0.166640 -0.001341  0.190456
    11 y      -0.280754 -0.004268  0.019073  0.020032 -0.005134 -0.000342
    11 z       0.013500 -0.087605 -0.028426  0.021204 -0.079024 -0.274145
    12 x      -0.011297  0.223584  0.063105  0.012228  0.129656 -0.152567
    12 y       0.099790  0.004392  0.052477  0.006238  0.006291  0.003438
    12 z      -0.004192 -0.073842 -0.029987  0.055261 -0.129448  0.255018


  Frequency     453.5759  461.8704  482.7601  517.4734  572.2373  575.1504
  IR Intensity    0.0455    0.0269    0.0414    0.0262    0.0354    0.0610
     in X         0.0127    0.0063    0.0290    0.0124    0.0179    0.0000
     in Y         0.0277    0.0033    0.0100    0.0038    0.0093    0.0544
     in Z         0.0050    0.0173    0.0024    0.0100    0.0082    0.0066
  Raman Intsty    0.2627    2.9665    2.5009    0.1734    0.1972    0.0173

     1 x      -0.001156 -0.010977 -0.078350 -0.160252  0.076422  0.098210
     1 y       0.070146  0.107984  0.100986  0.060494 -0.234977 -0.575915
     1 z      -0.040353  0.129287 -0.070645 -0.030810  0.054117  0.063885
     2 x      -0.073702  0.265621 -0.114466 -0.139336  0.276620 -0.118652
     2 y      -0.000706 -0.006907  0.004159  0.003530  0.007243  0.003644
     2 z       0.087228 -0.374890  0.175074  0.197271 -0.293446  0.128025
     3 x       0.269557 -0.025040 -0.169895  0.032117  0.015982  0.027649
     3 y      -0.461094 -0.222558 -0.343083  0.096486 -0.080806 -0.187387
     3 z       0.089631  0.003260 -0.012630 -0.001075  0.006337  0.018710
     4 x       0.063011 -0.026380 -0.078800  0.027060 -0.006628 -0.013843
     4 y       0.033729 -0.009421 -0.030650  0.004265  0.012381  0.029153
     4 z       0.196347 -0.055670 -0.261635  0.110464 -0.017757 -0.039572
     5 x      -0.680169  0.033962  0.018700  0.202122  0.059171  0.244649
     5 y       0.267128  0.329243 -0.171153  0.235395  0.168531  0.443414
     5 z      -0.052403 -0.020089  0.013205 -0.005708  0.002312 -0.022335
     6 x       0.034831  0.451023  0.535050  0.203640 -0.127670 -0.208905
     6 y       0.040065 -0.157026  0.425924 -0.354586  0.165423  0.368231
     6 z      -0.001429  0.036809 -0.010939  0.045707 -0.011667 -0.050271
     7 x      -0.027062  0.088827 -0.053307 -0.157447 -0.454387  0.162331
     7 y       0.010280  0.016430 -0.002979 -0.029462 -0.053737  0.043468
     7 z      -0.024711  0.064492 -0.038262 -0.108275 -0.237466  0.083429
     8 x       0.116534 -0.429315  0.149408  0.024158 -0.100115 -0.007842
     8 y       0.033833 -0.025541  0.014952 -0.059854  0.012632  0.001639
     8 z      -0.047951  0.136433 -0.134702 -0.596929  0.152855 -0.202801
     9 x       0.009152 -0.056918  0.032118  0.046925  0.068342 -0.031229
     9 y       0.025350 -0.176686  0.110217  0.182326  0.399062 -0.158219
     9 z       0.004653 -0.038823  0.025955  0.067836  0.159048 -0.062618
    10 x       0.018752 -0.087376  0.051802  0.075538  0.142389 -0.047221
    10 y      -0.025305  0.152829 -0.096240 -0.154185 -0.357713  0.125890
    10 z       0.016536 -0.062296  0.043621  0.091747  0.227484 -0.075328
    11 x       0.176321 -0.041961 -0.253794  0.094560 -0.015774 -0.037250
    11 y       0.041530  0.012918  0.014900 -0.006389  0.009556  0.019548
    11 z      -0.209299  0.043061  0.275339 -0.099531  0.026849  0.028860
    12 x       0.056620 -0.205468  0.031043 -0.197827 -0.005070 -0.069278
    12 y       0.040102  0.002014  0.018565 -0.008780  0.011533  0.032112
    12 z      -0.044409  0.184869 -0.021973  0.297609 -0.024017  0.089653


  Frequency     687.8376  728.8184  768.4317  792.5092  795.9259  829.0774
  IR Intensity    0.0918    0.0105    0.0079    0.0133    0.0043    0.0004
     in X         0.0700    0.0007    0.0004    0.0055    0.0003    0.0000
     in Y         0.0035    0.0001    0.0000    0.0003    0.0035    0.0000
     in Z         0.0183    0.0097    0.0075    0.0075    0.0006    0.0004
  Raman Intsty    0.0010    0.0123    0.0162    0.1270    0.0130    0.6967

     1 x      -0.349217 -0.183210 -0.349655  0.288709 -0.054589  0.508015
     1 y      -0.119971 -0.080065 -0.081975  0.010530 -0.008780  0.068128
     1 z      -0.209875 -0.497831 -0.168888 -0.430364  0.132032 -0.156686
     2 x      -0.056202 -0.261698  0.442078  0.177053 -0.011515  0.081367
     2 y      -0.005625 -0.032120  0.027700 -0.179985 -0.720724  0.023503
     2 z      -0.028176 -0.192353  0.426575  0.173547 -0.021024  0.074118
     3 x      -0.484109  0.239323  0.107964  0.109286 -0.043794 -0.488647
     3 y      -0.110156  0.061441  0.036717 -0.023168  0.001312 -0.035605
     3 z      -0.194401  0.266104  0.245447 -0.431932  0.118067  0.372027
     4 x       0.143799 -0.104582 -0.062616  0.073713 -0.018707 -0.019594
     4 y       0.060410 -0.041708 -0.026605  0.034020 -0.007739 -0.013991
     4 z       0.444062 -0.317012 -0.208788  0.275743 -0.071665 -0.141475
     5 x       0.197297  0.023797  0.076534 -0.072706  0.016086 -0.061245
     5 y       0.088089  0.085016  0.096003 -0.051889  0.014511 -0.130033
     5 z       0.007168 -0.003371 -0.008368  0.023387 -0.004130  0.000984
     6 x       0.175239 -0.004570  0.048419 -0.062018  0.012957 -0.023914
     6 y       0.056968 -0.072855 -0.057113  0.021945  0.004070  0.107881
     6 z       0.008163  0.012716  0.004461  0.017672 -0.008697 -0.016631
     7 x       0.071620  0.233612 -0.341910 -0.108003  0.051583 -0.055101
     7 y       0.011477  0.031576 -0.046669 -0.008194  0.035015 -0.010037
     7 z       0.031560  0.120433 -0.197900 -0.064500  0.029510 -0.049304
     8 x       0.142868  0.161841  0.084077  0.040356 -0.018829 -0.033855
     8 y       0.045244  0.048211  0.027419  0.020980  0.016381 -0.009497
     8 z       0.289491  0.318575  0.160781  0.107945 -0.040985 -0.048171
     9 x       0.009202  0.039068 -0.052274 -0.003402  0.089136 -0.011537
     9 y       0.031908  0.135275 -0.181905  0.058808  0.458782 -0.033055
     9 z       0.006970  0.054264 -0.082554  0.013498  0.154553 -0.012509
    10 x       0.015847  0.066063 -0.104684 -0.081875 -0.131314 -0.013549
    10 y      -0.029876 -0.123674  0.205964  0.165037  0.343082  0.018146
    10 z       0.012638  0.079197 -0.139206 -0.097658 -0.182059 -0.012187
    11 x       0.238216  0.013133  0.053866 -0.215170  0.063896  0.292248
    11 y       0.010924 -0.000543  0.000081 -0.006004  0.002362  0.010106
    11 z      -0.220801 -0.013557 -0.071078  0.219460 -0.063957 -0.289296
    12 x       0.065909 -0.183380  0.059800 -0.256142  0.066149 -0.193492
    12 y       0.005788 -0.000831  0.003749 -0.005166  0.001276 -0.006285
    12 z      -0.063925  0.254105 -0.056901  0.325193 -0.085545  0.223657




--------------------------------------------------------------------------------
  Vibrational properties (for cluster):  Temperature  =       0.000 K
--------------------------------------------------------------------------------
  Zero point energy            =        0.689000 eV
--------------------------------------------------------------------------------

  Phonon density of states : 

--------------------------------------------------------------------------------
 Frequency (cm-1) Density of States                                             
--------------------------------------------------------------------------------
    0.00000 |******************************                                0.029
   12.95434 |******************************                                0.029
   25.90867 |******************************                                0.029
   38.86301 |************************************************************  0.059
   51.81734 |******************************                                0.029
   64.77168 |******************************                                0.029
   77.72601 |******************************                                0.029
   90.68035 |                                                              0.000
  103.63468 |******************************                                0.029
  116.58902 |                                                              0.000
  129.54335 |                                                              0.000
  142.49769 |                                                              0.000
  155.45202 |******************************                                0.029
  168.40636 |******************************                                0.029
  181.36069 |************************************************************  0.059
  194.31503 |******************************                                0.029
  207.26936 |******************************                                0.029
  220.22370 |******************************                                0.029
  233.17803 |******************************                                0.029
  246.13237 |                                                              0.000
  259.08670 |************************************************************  0.059
  272.04104 |******************************                                0.029
  284.99538 |                                                              0.000
  297.94971 |                                                              0.000
  310.90405 |******************************                                0.029
  323.85838 |                                                              0.000
  336.81272 |                                                              0.000
  349.76705 |                                                              0.000
  362.72139 |******************************                                0.029
  375.67572 |                                                              0.000
  388.63006 |                                                              0.000
  401.58439 |                                                              0.000
  414.53873 |                                                              0.000
  427.49306 |                                                              0.000
  440.44740 |                                                              0.000
  453.40173 |************************************************************  0.059
  466.35607 |                                                              0.000
  479.31040 |******************************                                0.029
  492.26474 |                                                              0.000
  505.21907 |******************************                                0.029
  518.17341 |                                                              0.000
  531.12774 |                                                              0.000
  544.08208 |                                                              0.000
  557.03641 |                                                              0.000
  569.99075 |************************************************************  0.059
  582.94509 |                                                              0.000
  595.89942 |                                                              0.000
  608.85376 |                                                              0.000
  621.80809 |                                                              0.000
  634.76243 |                                                              0.000
  647.71676 |                                                              0.000
  660.67110 |                                                              0.000
  673.62543 |                                                              0.000
  686.57977 |******************************                                0.029
  699.53410 |                                                              0.000
  712.48844 |                                                              0.000
  725.44277 |******************************                                0.029
  738.39711 |                                                              0.000
  751.35144 |                                                              0.000
  764.30578 |******************************                                0.029
  777.26011 |                                                              0.000
  790.21445 |************************************************************  0.059
  803.16878 |                                                              0.000
  816.12312 |******************************                                0.029
--------------------------------------------------------------------------------



  Time to end of optimisation =       0.0310 seconds


  Peak dynamic memory used =       0.65 MB 


  Timing analysis for GULP :

--------------------------------------------------------------------------------
  Task / Subroutine                                          Time (Seconds)
--------------------------------------------------------------------------------
  Calculation of real space energy and derivatives                0.0020
  Calculation of phonons                                          0.0016
  Calculation and manipulation of Hessian matrix                  0.0013
--------------------------------------------------------------------------------
  Total CPU time                                                  0.0310
--------------------------------------------------------------------------------


  Job Finished at 14:39.03 25th May        2022                               

