------------------------------------------------------------
          Invoking FHI-aims ...

          When using FHI-aims, please cite the following reference:

            Volker Blum, Ralf Gehrke, Felix Hanke, Paula Havu,
            Ville Havu, Xinguo Ren, Karsten Reuter, and Matthias Scheffler,
            'Ab Initio Molecular Simulations with Numeric Atom-Centered Orbitals',
            Computer Physics Communications 180, 2175-2196 (2009)

          In addition, many other developments in FHI-aims are likely important for
          your particular application. A partial list of references is given at the end of
          this file. Thank you for giving credit to the authors of these developments.

          For any questions about FHI-aims, please visit our slack channel at

            https://fhi-aims.slack.com

          and our main development and support site at

            https://aims-git.rz-berlin.mpg.de .

          The latter site, in particular, has a wiki to collect information, as well
          as an issue tracker to log discussions, suggest improvements, and report issues
          or bugs. https://aims-git.rz-berlin.mpg.de is also the main development site
          of the project and all new and updated code versions can be obtained there.
          Please send an email to aims-coordinators@fhi-berlin.mpg.de and we will add
          you to these sites. They are for you and everyone is welcome there.

------------------------------------------------------------



  Date     :  20220517, Time     :  120321.902
  Time zero on CPU 1             :   0.390600000000000E-01  s.
  Internal wall clock time zero  :           422021001.902  s.

  FHI-aims created a unique identifier for this run for later identification
  aims_uuid : 805D5391-FD10-43A0-A0F7-50B198F2DF35

  Build configuration of the current instance of FHI-aims
  -------------------------------------------------------
  FHI-aims version      : 210914
  Commit number         : GITDIR-NOTFOUND
  CMake host system     : Linux-3.10.0-693.17.1.el7.x86_64
  CMake version         : 3.21.1
  Fortran compiler      : /shared/ucl/apps/intel/2018.Update3/impi/2018.3.222/intel64/bin/mpiifort (Intel) version 18.0.3.20180410
  Fortran compiler flags: -O3 -ip -fp-model precise
  C compiler            : /shared/ucl/apps/intel/2018.Update3/compilers_and_libraries_2018.3.222/linux/bin/intel64/icc (Intel) version 18.0.3.20180410
  C compiler flags      : -O3 -ip -fp-model precise -std=gnu99
  ELPA2 kernel          : AVX2
  Using MPI
  Using ScaLAPACK
  Using LibXC
  Using i-PI
  Using RLSY
  Linking against: /shared/ucl/apps/intel/2019.Update5/compilers_and_libraries_2019.5.281/linux/mkl/lib/intel64/libmkl_intel_lp64.so
                   /shared/ucl/apps/intel/2019.Update5/compilers_and_libraries_2019.5.281/linux/mkl/lib/intel64/libmkl_sequential.so
                   /shared/ucl/apps/intel/2019.Update5/compilers_and_libraries_2019.5.281/linux/mkl/lib/intel64/libmkl_core.so
                   /shared/ucl/apps/intel/2019.Update5/compilers_and_libraries_2019.5.281/linux/mkl/lib/intel64/libmkl_blacs_intelmpi_lp64.so
                   /shared/ucl/apps/intel/2019.Update5/compilers_and_libraries_2019.5.281/linux/mkl/lib/intel64/libmkl_scalapack_lp64.so

  Using       24 parallel tasks.
  Task        0 on host node-k98a-011 reporting.
  Task        1 on host node-k98a-011 reporting.
  Task        2 on host node-k98a-011 reporting.
  Task        3 on host node-k98a-011 reporting.
  Task        4 on host node-k98a-011 reporting.
  Task        5 on host node-k98a-011 reporting.
  Task        6 on host node-k98a-011 reporting.
  Task        7 on host node-k98a-011 reporting.
  Task        8 on host node-k98a-011 reporting.
  Task        9 on host node-k98a-011 reporting.
  Task       10 on host node-k98a-011 reporting.
  Task       11 on host node-k98a-011 reporting.
  Task       12 on host node-k98a-011 reporting.
  Task       13 on host node-k98a-011 reporting.
  Task       14 on host node-k98a-011 reporting.
  Task       15 on host node-k98a-011 reporting.
  Task       16 on host node-k98a-011 reporting.
  Task       17 on host node-k98a-011 reporting.
  Task       18 on host node-k98a-011 reporting.
  Task       19 on host node-k98a-011 reporting.
  Task       20 on host node-k98a-011 reporting.
  Task       21 on host node-k98a-011 reporting.
  Task       22 on host node-k98a-011 reporting.
  Task       23 on host node-k98a-011 reporting.

  Performing system and environment tests:
  | Environment variable OMP_NUM_THREADS correctly set to 1.
  | Checking for ScaLAPACK...
  | Testing pdtran()...
  | All pdtran() tests passed.

  Obtaining array dimensions for all initial allocations:
  
  -----------------------------------------------------------------------
  Parsing control.in (first pass over file, find array dimensions only).
  The contents of control.in will be repeated verbatim below
  unless switched off by setting 'verbatim_writeout .false.' .
  in the first line of control.in .
  -----------------------------------------------------------------------
  
  #########################################################################################  Physical model
  #########################################################################################
  xc                 pbesol
  spin               none
  relativistic       atomic_zora scalar
  charge             0.0
  #  SCF convergence
  occupation_type    gaussian 0.01
  mixer              pulay
  n_max_pulay        10
  charge_mix_param   0.5
  sc_accuracy_rho    1E-5
  sc_accuracy_eev    1E-3
  sc_accuracy_etot   1E-6
  sc_accuracy_forces 1E-4
  sc_iter_limit      1500
  #  Relaxation
  #relax_geometry   bfgs 1.e-3
  
  ################################################################################
  #
  #  FHI-aims code project
  #  VB, Fritz-Haber Institut, 2009
  #
  #  Suggested "light" defaults for Al atom (to be pasted into control.in file)
  #  Be sure to double-check any results obtained with these settings for post-processing,
  #  e.g., with the "tight" defaults and larger basis sets.
  #
  ################################################################################
    species        Al
  #     global species definitions
      nucleus             13
      mass                26.9815386
  #
      l_hartree           4
  #
      cut_pot             3.5          1.5  1.0
      basis_dep_cutoff    1e-4
  #
      radial_base         41 5.0
      radial_multiplier   1
      angular_grids       specified
        division   0.6594  110
        division   0.8170  194
        division   0.9059  302
  #      division   1.0363  434
  #      division   1.1443  590
  #      division   1.2621  770
  #      division   2.8177  974
  #      outer_grid   974
        outer_grid   302
  ################################################################################
  #
  #  Definition of "minimal" basis
  #
  ################################################################################
  #     valence basis states
      valence      3  s   2.
      valence      3  p   1.
  #     ion occupancy
      ion_occ      3  s   1.
      ion_occ      2  p   6.
  ################################################################################
  #
  #  Suggested additional basis functions. For production calculations,
  #  uncomment them one after another (the most important basis functions are
  #  listed first).
  #
  #  Constructed for dimers: 2.0 A, 2.5 A, 3.0 A, 3.75 A, 4.5 A
  #
  ################################################################################
  #  "First tier" - improvements: -199.47 meV to -10.63 meV
       ionic 3 d auto
       ionic 3 p auto
  #     hydro 4 f 4.7
       ionic 3 s auto
  #  "Second tier" - improvements: -5.35 meV to -1.57 meV
  #     hydro 5 g 7
  #     hydro 3 d 6
  #     hydro 2 s 11.6
  #     hydro 2 p 0.9
  #  "Third tier" - improvements: -0.63 meV to -0.20 meV
  #     hydro 5 f 7.6
  #     hydro 4 p 7.2
  #     hydro 4 s 3.7
  #     hydro 4 d 7.6
  #  "Fourth tier" - improvements: -0.17 meV to -0.08 meV
  #     hydro 4 d 13.6
  #     hydro 5 g 11.2
  #     hydro 4 d 0.9
  #     hydro 1 s 0.4
  #     hydro 4 p 0.1
  #     hydro 5 f 9.8
  #  Further basis functions that fell out of the optimization - noise level...
  #     hydro 4 p 5
  
  ################################################################################
  #
  #  FHI-aims code project
  #  VB, Fritz-Haber Institut, 2009
  #
  #  Suggested "light" defaults for F atom (to be pasted into control.in file)
  #  Be sure to double-check any results obtained with these settings for post-processing,
  #  e.g., with the "tight" defaults and larger basis sets.
  #
  ################################################################################
    species        F
  #     global species definitions
      nucleus             9
      mass                18.9984032
  #
      l_hartree           4
  #
      cut_pot             3.5  1.5  1.0
      basis_dep_cutoff    1e-4
  #
      radial_base         37 5.0
      radial_multiplier   1
      angular_grids specified
        division   0.4014  110
        division   0.5291  194
        division   0.6019  302
  #      division   0.6814  434
  #      division   0.7989  590
  #      division   0.8965  770
  #      division   1.3427  974
  #      outer_grid   974
        outer_grid   302
  ################################################################################
  #
  #  Definition of "minimal" basis
  #
  ################################################################################
  #     valence basis states
      valence      2  s   2.
      valence      2  p   5.
  #     ion occupancy
      ion_occ      2  s   1.
      ion_occ      2  p   4.
  ################################################################################
  #
  #  Suggested additional basis functions. For production calculations,
  #  uncomment them one after another (the most important basis functions are
  #  listed first).
  #
  #  Constructed for dimers: 1.2 A, 1.418 A, 1.75 A, 2.25 A, 3.25 A
  #
  ################################################################################
  #  "First tier" - improvements: -149.44 meV to -45.88 meV
       hydro 2 p 1.7
       hydro 3 d 7.4
       hydro 3 s 6.8
  #  "Second tier" - improvements: -12.96 meV to -1.56 meV
  #     hydro 4 f 11.2
  #     ionic 2 p auto
  #     hydro 1 s 0.75
  #     hydro 4 d 8.8
  #     hydro 5 g 16.8
  #  "Third tier" - improvements: -0.58 meV to -0.05 meV
  #     hydro 3 p 6.2
  #     hydro 3 s 3.2
  #     hydro 4 f 9.6
  #     hydro 3 s 19.6
  #     hydro 4 d 8.6
  #     hydro 5 g 14.4
  # Further basis functions: -0.05 meV and below
  #     hydro 3 p 4.2
  
  -----------------------------------------------------------------------
  Completed first pass over input file control.in .
  -----------------------------------------------------------------------
  
  
  -----------------------------------------------------------------------
  Parsing geometry.in (first pass over file, find array dimensions only).
  The contents of geometry.in will be repeated verbatim below
  unless switched off by setting 'verbatim_writeout .false.' .
  in the first line of geometry.in .
  -----------------------------------------------------------------------
  
  atom -0.077288813 1.623582772 2.154529020 Al
  atom 2.508860696 2.572101825 1.744827175 Al
  atom 1.353415084 2.685694984 -0.669135654 Al
  atom 1.025217578 3.003848136 2.909876063 F
  atom -1.578353883 2.673635922 1.934369786 F
  atom -0.443459071 0.099781534 3.175649030 F
  atom 1.763671753 0.837974993 1.772501465 F
  atom 3.012428145 1.947782453 -0.126893416 F
  atom 1.128262609 3.152031133 -2.400150212 F
  atom 1.653180694 3.988204587 0.694924067 F
  atom 4.094469368 3.050369777 2.481549380 F
  atom 0.010225009 1.736191610 0.145215893 F
  
  -----------------------------------------------------------------------
  Completed first pass over input file geometry.in .
  -----------------------------------------------------------------------
  

  Basic array size parameters:
  | Number of species                 :        2
  | Number of atoms                   :       12
  | Max. basis fn. angular momentum   :        2
  | Max. atomic/ionic basis occupied n:        3
  | Max. number of basis fn. types    :        3
  | Max. radial fns per species/type  :        5
  | Max. logarithmic grid size        :     1340
  | Max. radial integration grid size :       41
  | Max. angular integration grid size:      302
  | Max. angular grid division number :        8
  | Radial grid for Hartree potential :     1340
  | Number of spin channels           :        1

------------------------------------------------------------
          Reading file control.in.
------------------------------------------------------------
  XC: Using PBEsol gradient-corrected functionals.
  Spin treatment: No spin polarisation.
  Scalar relativistic treatment of kinetic energy: on-site free-atom approximation to ZORA.
  Charge =   0.000000E+00: Neutral system requested explicitly.
  Occupation type: Gaussian broadening, width =   0.100000E-01 eV.
  Using pulay charge density mixing.
  Pulay mixing - number of memorized iterations:   10
  Charge density mixing - mixing parameter:     0.5000
  Convergence accuracy of self-consistent charge density:  0.1000E-04
  Convergence accuracy of sum of eigenvalues:  0.1000E-02
  Convergence accuracy of total energy:  0.1000E-05
  Convergence accuracy of forces:  0.1000E-03
  Maximum number of s.-c. iterations  :  1500
 
  Reading configuration options for species Al                  .
  | Found nuclear charge :  13.0000
  | Found atomic mass :    26.9815386000000      amu
  | Found l_max for Hartree potential  :   4
  | Found cutoff potl. onset [A], width [A], scale factor :    3.50000    1.50000    1.00000
  | Threshold for basis-dependent cutoff potential is   0.100000E-03
  | Found data for basic radial integration grid :    41 points, outermost radius =    5.000 A
  | Found multiplier for basic radial grid :   1
  | Found angular grid specification: user-specified.
  | Specified grid contains     4 separate shells.
  | Check grid settings after all constraints further below.
  | Found free-atom valence shell :  3 s   2.000
  | Found free-atom valence shell :  3 p   1.000
  | Found free-ion valence shell :  3 s   1.000
  | Found free-ion valence shell :  2 p   6.000
  | Found ionic basis function :  3 d , default cutoff radius.
  | Found ionic basis function :  3 p , default cutoff radius.
  | Found ionic basis function :  3 s , default cutoff radius.
  Species Al                  : Missing cutoff potential type.
  Defaulting to exp(1/x)/(1-x)^2 type cutoff potential.
  Species Al: No 'logarithmic' tag. Using default grid for free atom:
  | Default logarithmic grid data [bohr] : 0.1000E-03 0.1000E+03 0.1012E+01
  | Will include ionic basis functions of  2.0-fold positive Al                   ion.
  Species Al: On-site basis accuracy parameter (for Gram-Schmidt orthonormalisation) not specified.
  Using default value basis_acc =  0.1000000E-03.
  Species Al                  : Using default innermost maximum threshold i_radial=  2 for radial functions.
  Species Al                  : Default cutoff onset for free atom density etc. : 0.35000000E+01 AA.
  Species Al                  : Basic radial grid will be enhanced according to radial_multiplier =   1, to contain    41 grid points.
 
  Reading configuration options for species F                   .
  | Found nuclear charge :   9.0000
  | Found atomic mass :    18.9984032000000      amu
  | Found l_max for Hartree potential  :   4
  | Found cutoff potl. onset [A], width [A], scale factor :    3.50000    1.50000    1.00000
  | Threshold for basis-dependent cutoff potential is   0.100000E-03
  | Found data for basic radial integration grid :    37 points, outermost radius =    5.000 A
  | Found multiplier for basic radial grid :   1
  | Found angular grid specification: user-specified.
  | Specified grid contains     4 separate shells.
  | Check grid settings after all constraints further below.
  | Found free-atom valence shell :  2 s   2.000
  | Found free-atom valence shell :  2 p   5.000
  | Found free-ion valence shell :  2 s   1.000
  | Found free-ion valence shell :  2 p   4.000
  | Found hydrogenic basis function :  2 p   1.700
  | Found hydrogenic basis function :  3 d   7.400
  | Found hydrogenic basis function :  3 s   6.800
  Species F                   : Missing cutoff potential type.
  Defaulting to exp(1/x)/(1-x)^2 type cutoff potential.
  Species F : No 'logarithmic' tag. Using default grid for free atom:
  | Default logarithmic grid data [bohr] : 0.1000E-03 0.1000E+03 0.1012E+01
  Species F : On-site basis accuracy parameter (for Gram-Schmidt orthonormalisation) not specified.
  Using default value basis_acc =  0.1000000E-03.
  Species F                   : Using default innermost maximum threshold i_radial=  2 for radial functions.
  Species F                   : Default cutoff onset for free atom density etc. : 0.35000000E+01 AA.
  Species F                   : Basic radial grid will be enhanced according to radial_multiplier =   1, to contain    37 grid points.
 
  Finished reading input file 'control.in'.
 
------------------------------------------------------------


------------------------------------------------------------
          Reading geometry description geometry.in.
------------------------------------------------------------
  | The smallest distance between any two atoms is         1.80681334 AA.
  | The first atom of this pair is atom number                      3 .
  | The second atom of this pair is atom number                     9 .
  Input structure read successfully.
  The structure contains       12 atoms,  and a total of        120.000 electrons.

  Input geometry:
  | No unit cell requested.
  | Atomic structure:
  |       Atom                x [A]            y [A]            z [A]
  |    1: Species Al           -0.07728881        1.62358277        2.15452902
  |    2: Species Al            2.50886070        2.57210182        1.74482717
  |    3: Species Al            1.35341508        2.68569498       -0.66913565
  |    4: Species F             1.02521758        3.00384814        2.90987606
  |    5: Species F            -1.57835388        2.67363592        1.93436979
  |    6: Species F            -0.44345907        0.09978153        3.17564903
  |    7: Species F             1.76367175        0.83797499        1.77250146
  |    8: Species F             3.01242814        1.94778245       -0.12689342
  |    9: Species F             1.12826261        3.15203113       -2.40015021
  |   10: Species F             1.65318069        3.98820459        0.69492407
  |   11: Species F             4.09446937        3.05036978        2.48154938
  |   12: Species F             0.01022501        1.73619161        0.14521589

 
  Finished reading input file 'control.in'.
 

------------------------------------------------------------
          Reading geometry description geometry.in.
------------------------------------------------------------
 
  Consistency checks for stacksize environment parameter are next.
 
  | Maximum stacksize for task 0: unlimited
  | Maximum stacksize for task 1: unlimited
  | Maximum stacksize for task 2: unlimited
  | Maximum stacksize for task 3: unlimited
  | Maximum stacksize for task 4: unlimited
  | Maximum stacksize for task 5: unlimited
  | Maximum stacksize for task 6: unlimited
  | Maximum stacksize for task 7: unlimited
  | Maximum stacksize for task 8: unlimited
  | Maximum stacksize for task 9: unlimited
  | Maximum stacksize for task 10: unlimited
  | Maximum stacksize for task 11: unlimited
  | Maximum stacksize for task 12: unlimited
  | Maximum stacksize for task 13: unlimited
  | Maximum stacksize for task 14: unlimited
  | Maximum stacksize for task 15: unlimited
  | Maximum stacksize for task 16: unlimited
  | Maximum stacksize for task 17: unlimited
  | Maximum stacksize for task 18: unlimited
  | Maximum stacksize for task 19: unlimited
  | Maximum stacksize for task 20: unlimited
  | Maximum stacksize for task 21: unlimited
  | Maximum stacksize for task 22: unlimited
  | Maximum stacksize for task 23: unlimited
  | Current stacksize for task 0: unlimited
  | Current stacksize for task 1: unlimited
  | Current stacksize for task 2: unlimited
  | Current stacksize for task 3: unlimited
  | Current stacksize for task 4: unlimited
  | Current stacksize for task 5: unlimited
  | Current stacksize for task 6: unlimited
  | Current stacksize for task 7: unlimited
  | Current stacksize for task 8: unlimited
  | Current stacksize for task 9: unlimited
  | Current stacksize for task 10: unlimited
  | Current stacksize for task 11: unlimited
  | Current stacksize for task 12: unlimited
  | Current stacksize for task 13: unlimited
  | Current stacksize for task 14: unlimited
  | Current stacksize for task 15: unlimited
  | Current stacksize for task 16: unlimited
  | Current stacksize for task 17: unlimited
  | Current stacksize for task 18: unlimited
  | Current stacksize for task 19: unlimited
  | Current stacksize for task 20: unlimited
  | Current stacksize for task 21: unlimited
  | Current stacksize for task 22: unlimited
  | Current stacksize for task 23: unlimited
 
  Consistency checks for the contents of control.in are next.
 
  MPI_IN_PLACE appears to work with this MPI implementation.
  | Keeping use_mpi_in_place .true. (see manual).
  Target number of points in a grid batch is not set. Defaulting to  100
  Method for grid partitioning is not set. Defaulting to parallel hash+maxmin partitioning.
  Batch size limit is not set. Defaulting to    200
  By default, will store active basis functions for each batch.
  If in need of memory, prune_basis_once .false. can be used to disable this option.
  communication_type for Hartree potential was not specified.
  Defaulting to calc_hartree .
  Pulay mixer: Number of initial linear mixing iterations not set.
  Defaulting to    0 iterations.
  Work space size for distributed Hartree potential not set.
  Defaulting to   0.200000E+03 MB.
  Algorithm-dependent basis array size parameters:
  | n_max_pulay                         :       10
  Presetting      1001 iterations before the initial mixing cycle
  is restarted anyway using the sc_init_iter criterion / keyword.
  Presetting a factor      1.000 between actual scf density residual
  and density convergence criterion sc_accuracy_rho below which sc_init_iter
  takes no effect.
  Geometry relaxation not requested: no relaxation will be performed.
  Forces evaluation will include force correction term due to incomplete self-consistency (default).
  Handling of forces: Unphysical translation and rotation will be removed from forces.
  No accuracy limit for integral partition fn. given. Defaulting to  0.1000E-14.
  No threshold value for u(r) in integrations given. Defaulting to  0.1000E-05.
  No accuracy for occupation numbers given. Defaulting to  0.1000E-12.
  No threshold value for occupation numbers given. Defaulting to  0.0000E+00.
  No accuracy for fermi level given. Defaulting to  0.1000E-19.
  Maximum # of iterations to find E_F not set. Defaulting to  200.
  Preferred method for the eigenvalue solver ('KS_method') not specified in 'control.in'.
  Calling BLACS routine to test compilation state
  Since ScaLAPACK support is enabled, defaulting to ELPA (via ELSI).
  Will not use alltoall communication since running on < 1024 CPUs.
  Threshold for basis singularities not set.
  Default threshold for basis singularities:  0.1000E-04
  partition_type (choice of integration weights) for integrals was not specified.
  | Using a version of the partition function of Stratmann and coworkers ('stratmann_sparse').
  | At each grid point, the set of atoms used to build the partition table is smoothly restricted to
  | only those atoms whose free-atom density would be non-zero at that grid point.
  Partitioning for Hartree potential was not defined. Using partition_type for integrals.
  | Adjusted default value of keyword multip_moments_threshold to:       0.10000000E-11
  | This value may affect high angular momentum components of the Hartree potential in periodic systems.
  No q(lm)/r^(l+1) cutoff set for long-range Hartree potential.
  | Using default value of  0.100000E-09 .
  | Verify using the multipole_threshold keyword.
  Defaulting to new monopole extrapolation.
  Density update method: automatic selection selected.
  Charge integration errors on the 3D integration grid will be compensated
  by explicit normalization and distribution of residual charges.
  Use the "compensate_multipole_errors" flag to change this behaviour.
  Set 'collect_eigenvectors' to be '.true.' for use_density_matrix .false.
 
  Consistency checks for the contents of geometry.in are next.
 
  Number of empty states per atom not set in control.in - providing a guess from actual geometry.
  | Total number of empty states used during s.c.f. cycle:       36
  If you use a very high smearing, use empty_states (per atom!) in control.in to increase this value.

  Structure-dependent array size parameters: 
  | Maximum number of distinct radial functions  :       14
  | Maximum number of basis functions            :      180
  | Number of Kohn-Sham states (occupied + empty):       96
------------------------------------------------------------

------------------------------------------------------------
          Preparing all fixed parts of the calculation.
------------------------------------------------------------
  Determining machine precision:
    2.225073858507201E-308
  Setting up grids for atomic and cluster calculations.

  Creating wave function, potential, and density for free atoms.

  Species: Al

  List of occupied orbitals and eigenvalues:
    n    l              occ      energy [Ha]    energy [eV]
    1    0           2.0000       -55.621123     -1513.5278
    2    0           2.0000        -3.957030      -107.6763
    3    0           2.0000        -0.272233        -7.4078
    2    1           6.0000        -2.540949       -69.1427
    3    1           1.0000        -0.083300        -2.2667


  Species: F

  List of occupied orbitals and eigenvalues:
    n    l              occ      energy [Ha]    energy [eV]
    1    0           2.0000       -24.399611      -663.9472
    2    0           2.0000        -1.098702       -29.8972
    2    1           5.0000        -0.408210       -11.1080


  Adding cutoff potential to free-atom effective potential.
  Creating fixed part of basis set: Ionic, confined, hydrogenic.
 
  Al                   ion:

  List of free ionic orbitals and eigenvalues:
    n    l      energy [Ha]    energy [eV]
    1    0       -56.418846     -1535.2349
    2    0        -4.732717      -128.7838
    3    0        -0.872690       -23.7471
    2    1        -3.317230       -90.2664


  List of ionic basis orbitals and eigenvalues:
    n    l      energy [Ha]    energy [eV]    outer radius [A]
    3    2        -0.346815        -9.4373       4.594041
    3    1        -0.631870       -17.1940       4.538221
    3    0        -0.872657       -23.7462       4.538221

 
  F                    hydrogenic:
 
  List of hydrogenic basis orbitals: 
    n    l      effective z      eigenvalue [eV]  inner max. [A]     outer max. [A]     outer radius [A]   
    2    1         1.700000        -9.7616           1.243167           1.243167           4.598524
    3    2         7.400000       -82.7828           0.642437           0.642437           3.305741
    3    0         6.800000       -69.9026           0.057798           1.022307           3.781556
 
  Creating atomic-like basis functions for current effective potential.

  Species Al                  :

  List of atomic basis orbitals and eigenvalues:
    n    l      energy [Ha]    energy [eV]    outer radius [A]
    1    0       -55.621123     -1513.5278       0.850197
    2    0        -3.957030      -107.6763       3.144911
    3    0        -0.272233        -7.4078       4.594041
    2    1        -2.540949       -69.1427       3.731966
    3    1        -0.083300        -2.2667       4.594041


  Species F                   :

  List of atomic basis orbitals and eigenvalues:
    n    l      energy [Ha]    energy [eV]    outer radius [A]
    1    0       -24.399611      -663.9472       1.258458
    2    0        -1.098702       -29.8972       4.325857
    2    1        -0.408210       -11.1080       4.487453

  Assembling full basis from fixed parts.
  | Species Al :   atomic orbital   1 s accepted.
  | Species Al :   atomic orbital   2 s accepted.
  | Species Al :    ionic orbital   3 s accepted.
  | Species Al :   atomic orbital   3 s accepted.
  | Species Al :   atomic orbital   2 p accepted.
  | Species Al :    ionic orbital   3 p accepted.
  | Species Al :   atomic orbital   3 p accepted.
  | Species Al :    ionic orbital   3 d accepted.
  | Species F :   atomic orbital   1 s accepted.
  | Species F :    hydro orbital   3 s accepted.
  | Species F :   atomic orbital   2 s accepted.
  | Species F :   atomic orbital   2 p accepted.
  | Species F :    hydro orbital   2 p accepted.
  | Species F :    hydro orbital   3 d accepted.
 
  Basis size parameters after reduction:
  | Total number of radial functions:       14
  | Total number of basis functions :      180
 
  Per-task memory consumption for arrays in subroutine allocate_ext:
  |           4.807768MB.
  Testing on-site integration grid accuracy.
  |  Species  Function  <phi|h_atom|phi> (log., in eV)  <phi|h_atom|phi> (rad., in eV)
           1        1              -1513.5277717935              -1513.5271881332
           1        2               -107.6762691836               -107.6762662489
           1        3                 -6.9467474784                 -6.9471269649
           1        4                  5.5771951849                  5.4862107220 ***
           1        5                -69.1427313144                -69.1427312731
           1        6                 -1.5197375330                 -1.5230432022
           1        7                  6.8210948310                  6.5529872240 ***
           1        8                  4.3216540965                  4.2851170187 ***
           2        9               -663.9471986398               -663.9470363334
           2       10                 16.8514011578                 16.8512525338
           2       11                -28.4490593856                -28.4490661472
           2       12                -11.1080115307                -11.1080620173
           2       13                  7.1940182175                  7.1685154137
           2       14                 44.8544281765                 44.8543763625
 * Note: Onsite integrals marked "***" above are less accurate than
 * onsite_accuracy_threshold =    0.03000 eV. Usually, this is harmless.
 * When in doubt, tighten the "radial" and/or "radial_multiplier" flags to check.

  Preparing densities etc. for the partition functions (integrals / Hartree potential).

  Preparations completed.
  max(cpu_time)          :      0.185 s.
  Wall clock time (cpu1) :      0.185 s.
------------------------------------------------------------

------------------------------------------------------------
          Begin self-consistency loop: Initialization.

          Date     :  20220517, Time     :  120323.239
------------------------------------------------------------

  Initializing index lists of integration centers etc. from given atomic structure:
  | Number of centers in hartree potential         :        12
  | Number of centers in hartree multipole         :        12
  | Number of centers in electron density summation:        12
  | Number of centers in basis integrals           :        12
  | Number of centers in integrals                 :        12
  | Number of centers in hamiltonian               :        12
  * Using 24 tasks for Scalapack Eigenvalue solver.
  Detailed listing of tasks and assigned k-points:
  (for non-periodic systems, the "k-point" denotes an internal label only)
   Task     0 k-point     1 on node-k98a-011
   Task     1 k-point     1 on node-k98a-011
   Task     2 k-point     1 on node-k98a-011
   Task     3 k-point     1 on node-k98a-011
   Task     4 k-point     1 on node-k98a-011
   Task     5 k-point     1 on node-k98a-011
   Task     6 k-point     1 on node-k98a-011
   Task     7 k-point     1 on node-k98a-011
   Task     8 k-point     1 on node-k98a-011
   Task     9 k-point     1 on node-k98a-011
   Task    10 k-point     1 on node-k98a-011
   Task    11 k-point     1 on node-k98a-011
   Task    12 k-point     1 on node-k98a-011
   Task    13 k-point     1 on node-k98a-011
   Task    14 k-point     1 on node-k98a-011
   Task    15 k-point     1 on node-k98a-011
   Task    16 k-point     1 on node-k98a-011
   Task    17 k-point     1 on node-k98a-011
   Task    18 k-point     1 on node-k98a-011
   Task    19 k-point     1 on node-k98a-011
   Task    20 k-point     1 on node-k98a-011
   Task    21 k-point     1 on node-k98a-011
   Task    22 k-point     1 on node-k98a-011
   Task    23 k-point     1 on node-k98a-011
  Tasks:    24 split into      6 X      4 BLACS grid
  Calculating block size based on n_basis =          180  max_nprow =            6  max_npcol =            4
  ScaLAPACK block size set to:           16
  Allocating        0.012 MB for ovlp
  Allocating        0.012 MB for ham
  Allocating        0.012 MB for eigenvec
  Required Scalapack workspace - INTEGER:            1  REAL:             1
  Partitioning the integration grid into batches with parallel hashing+maxmin method.
  | Number of batches:     1026
  | Maximal batch size:     192
  | Minimal batch size:      19
  | Average batch size:      89.591
  | Standard deviation of batch sizes:      24.365

  Integration load balanced across    24 MPI tasks.
  Work distribution over tasks is as follows:
  Task     0 has       3894 integration points.
  Task     1 has       3787 integration points.
  Task     2 has       3841 integration points.
  Task     3 has       3810 integration points.
  Task     4 has       3840 integration points.
  Task     5 has       3797 integration points.
  Task     6 has       3814 integration points.
  Task     7 has       3806 integration points.
  Task     8 has       3789 integration points.
  Task     9 has       3904 integration points.
  Task    10 has       3799 integration points.
  Task    11 has       3813 integration points.
  Task    12 has       3843 integration points.
  Task    13 has       3803 integration points.
  Task    14 has       3807 integration points.
  Task    15 has       3933 integration points.
  Task    16 has       3849 integration points.
  Task    17 has       3812 integration points.
  Task    18 has       3823 integration points.
  Task    19 has       3796 integration points.
  Task    20 has       3797 integration points.
  Task    21 has       3846 integration points.
  Task    22 has       3843 integration points.
  Task    23 has       3874 integration points.
  Initializing partition tables, free-atom densities, potentials, etc. across the integration grid (initialize_grid_storage).
  | initialize_grid_storage: Actual outermost partition radius vs. multipole_radius_free
  | (-- VB: in principle, multipole_radius_free should be larger, hence this output)
  | Species        1: Confinement radius =              4.999999999999999 AA, multipole_radius_free =              5.004487022111096 AA.
  | Species        1: outer_partition_radius set to              5.004487022111096 AA .
  | Species        2: Confinement radius =              4.999999999999999 AA, multipole_radius_free =              5.009370088163274 AA.
  | Species        2: outer_partition_radius set to              5.009370088163274 AA .
  | The sparse table of interatomic distances needs          1.64 kbyte instead of         1.15 kbyte of memory.
  | Using the partition_type stratmann_smoother will reduce your memory usage.
  | Net number of integration points:    91920
  | of which are non-zero points    :    85162
  Renormalizing the initial density to the exact electron count on the 3D integration grid.
  | Initial density: Formal number of electrons (from input files) :     120.0000000000
  | Integrated number of electrons on 3D grid     :     119.9999102845
  | Charge integration error                      :      -0.0000897155
  | Normalization factor for density and gradient :       1.0000007476
  Renormalizing the free-atom superposition density to the exact electron count on the 3D integration grid.
  | Formal number of electrons (from input files) :     120.0000000000
  | Integrated number of electrons on 3D grid     :     119.9999102845
  | Charge integration error                      :      -0.0000897155
  | Normalization factor for density and gradient :       1.0000007476
  Obtaining max. number of non-zero basis functions in each batch (get_n_compute_maxes).
  | Maximal number of non-zero basis functions:      164 in task     0
  | Maximal number of non-zero basis functions:      165 in task     1
  | Maximal number of non-zero basis functions:      165 in task     2
  | Maximal number of non-zero basis functions:      165 in task     3
  | Maximal number of non-zero basis functions:      166 in task     4
  | Maximal number of non-zero basis functions:      164 in task     5
  | Maximal number of non-zero basis functions:      164 in task     6
  | Maximal number of non-zero basis functions:      170 in task     7
  | Maximal number of non-zero basis functions:      166 in task     8
  | Maximal number of non-zero basis functions:      166 in task     9
  | Maximal number of non-zero basis functions:      166 in task    10
  | Maximal number of non-zero basis functions:      167 in task    11
  | Maximal number of non-zero basis functions:      167 in task    12
  | Maximal number of non-zero basis functions:      172 in task    13
  | Maximal number of non-zero basis functions:      171 in task    14
  | Maximal number of non-zero basis functions:      164 in task    15
  | Maximal number of non-zero basis functions:      165 in task    16
  | Maximal number of non-zero basis functions:      165 in task    17
  | Maximal number of non-zero basis functions:      170 in task    18
  | Maximal number of non-zero basis functions:      165 in task    19
  | Maximal number of non-zero basis functions:      172 in task    20
  | Maximal number of non-zero basis functions:      171 in task    21
  | Maximal number of non-zero basis functions:      163 in task    22
  | Maximal number of non-zero basis functions:      171 in task    23
  Selecting the method for density update.
  Loop over occupied states selected for charge density update.
  Allocating        0.132 MB for KS_eigenvector
  Integrating Hamiltonian matrix: batch-based integration.
  Time summed over all CPUs for integration: real work        0.753 s, elapsed        0.790 s
  Integrating overlap matrix.
  Time summed over all CPUs for integration: real work        0.290 s, elapsed        0.305 s
  Deallocating overlap matrix.

  Updating Kohn-Sham eigenvalues and eigenvectors using ELSI and the ELPA eigensolver.
  Overlap matrix is not singular
  | Lowest and highest eigenvalues :  0.2982E-02,  0.5737E+01
  Finished singularity check of overlap matrix
  | Time :     0.004 s
  Starting ELPA eigensolver
  Finished Cholesky decomposition
  | Time :     0.002 s
  Finished transformation to standard eigenproblem
  | Time :     0.001 s
  Finished solving standard eigenproblem
  | Time :     0.004 s
  Finished back-transformation of eigenvectors
  | Time :     0.000 s

  Obtaining occupation numbers and chemical potential using ELSI.
  | Chemical potential (Fermi level):    -7.43559604 eV
  Writing Kohn-Sham eigenvalues.

  State    Occupation    Eigenvalue [Ha]    Eigenvalue [eV]
      1       2.00000         -55.486064        -1509.85263
      2       2.00000         -55.484764        -1509.81725
      3       2.00000         -55.483649        -1509.78690
      4       2.00000         -24.360240         -662.87587
      5       2.00000         -24.357285         -662.79544
      6       2.00000         -24.356487         -662.77374
      7       2.00000         -24.353454         -662.69121
      8       2.00000         -24.352351         -662.66119
      9       2.00000         -24.341650         -662.36999
     10       2.00000         -24.340962         -662.35127
     11       2.00000         -24.337364         -662.25338
     12       2.00000         -24.334689         -662.18058
     13       2.00000          -3.951675         -107.53055
     14       2.00000          -3.950065         -107.48674
     15       2.00000          -3.948549         -107.44549
     16       2.00000          -2.544736          -69.24580
     17       2.00000          -2.543507          -69.21234
     18       2.00000          -2.543079          -69.20071
     19       2.00000          -2.542684          -69.18996
     20       2.00000          -2.541693          -69.16299
     21       2.00000          -2.540897          -69.14132
     22       2.00000          -2.540684          -69.13554
     23       2.00000          -2.540673          -69.13523
     24       2.00000          -2.539499          -69.10327
     25       2.00000          -1.189798          -32.37605
     26       2.00000          -1.178277          -32.06255
     27       2.00000          -1.174997          -31.97329
     28       2.00000          -1.170920          -31.86235
     29       2.00000          -1.161926          -31.61761
     30       2.00000          -1.150446          -31.30523
     31       2.00000          -1.149489          -31.27920
     32       2.00000          -1.144517          -31.14390
     33       2.00000          -1.139988          -31.02066
     34       2.00000          -0.559832          -15.23381
     35       2.00000          -0.553470          -15.06068
     36       2.00000          -0.542832          -14.77122
     37       2.00000          -0.522205          -14.20992
     38       2.00000          -0.518856          -14.11879
     39       2.00000          -0.510343          -13.88714
     40       2.00000          -0.506226          -13.77511
     41       2.00000          -0.501577          -13.64862
     42       2.00000          -0.497956          -13.55006
     43       2.00000          -0.493648          -13.43285
     44       2.00000          -0.487326          -13.26081
     45       2.00000          -0.485336          -13.20665
     46       2.00000          -0.477966          -13.00611
     47       2.00000          -0.471915          -12.84146
     48       2.00000          -0.471378          -12.82685
     49       2.00000          -0.467437          -12.71961
     50       2.00000          -0.463813          -12.62100
     51       2.00000          -0.458704          -12.48197
     52       2.00000          -0.453606          -12.34326
     53       2.00000          -0.452257          -12.30653
     54       2.00000          -0.451652          -12.29007
     55       2.00000          -0.451290          -12.28022
     56       2.00000          -0.450135          -12.24879
     57       2.00000          -0.445966          -12.13535
     58       2.00000          -0.443713          -12.07405
     59       2.00000          -0.441525          -12.01450
     60       2.00000          -0.437116          -11.89454
     61       0.00000          -0.144156           -3.92269
     62       0.00000          -0.088688           -2.41332
     63       0.00000          -0.073884           -2.01050
     64       0.00000          -0.030553           -0.83140
     65       0.00000          -0.023157           -0.63014
     66       0.00000           0.002562            0.06972
     67       0.00000           0.009868            0.26853
     68       0.00000           0.027345            0.74409
     69       0.00000           0.053732            1.46211
     70       0.00000           0.069404            1.88857
     71       0.00000           0.075844            2.06383
     72       0.00000           0.115281            3.13697
     73       0.00000           0.148218            4.03323
     74       0.00000           0.162399            4.41910
     75       0.00000           0.167749            4.56469
     76       0.00000           0.178925            4.86879
     77       0.00000           0.190591            5.18624
     78       0.00000           0.195317            5.31484
     79       0.00000           0.208459            5.67246
     80       0.00000           0.216287            5.88546
     81       0.00000           0.222373            6.05107
     82       0.00000           0.229548            6.24633
     83       0.00000           0.238831            6.49893
     84       0.00000           0.243490            6.62569
     85       0.00000           0.261982            7.12890
     86       0.00000           0.263278            7.16417
     87       0.00000           0.269408            7.33097
     88       0.00000           0.270619            7.36393
     89       0.00000           0.282860            7.69701
     90       0.00000           0.292334            7.95480
     91       0.00000           0.296042            8.05572
     92       0.00000           0.335317            9.12444
     93       0.00000           0.343807            9.35547
     94       0.00000           0.369746           10.06130
     95       0.00000           0.376149           10.23552
     96       0.00000           0.381444           10.37963

  Highest occupied state (VBM) at    -11.89453685 eV
  | Occupation number:      2.00000000

  Lowest unoccupied state (CBM) at    -3.92268676 eV
  | Occupation number:      0.00000000

  Overall HOMO-LUMO gap:      7.97185009 eV.
  Calculating total energy contributions from superposition of free atom densities.

  Total energy components:
  | Sum of eigenvalues            :        -887.59027901 Ha      -24152.56036051 eV
  | XC energy correction          :        -144.38521598 Ha       -3928.92162826 eV
  | XC potential correction       :         188.00063226 Ha        5115.75749054 eV
  | Free-atom electrostatic energy:        -781.37212087 Ha      -21262.21721857 eV
  | Hartree energy correction     :           0.00000000 Ha           0.00000000 eV
  | Entropy correction            :           0.00000000 Ha           0.00000000 eV
  | ---------------------------
  | Total energy                  :       -1625.34698361 Ha      -44227.94171681 eV
  | Total energy, T -> 0          :       -1625.34698361 Ha      -44227.94171681 eV  <-- do not rely on this value for anything but (periodic) metals
  | Electronic free energy        :       -1625.34698361 Ha      -44227.94171681 eV

  Derived energy quantities:
  | Kinetic energy                :        1627.71880523 Ha       44292.48226706 eV
  | Electrostatic energy          :       -3108.68057285 Ha      -84591.50235560 eV
  | Energy correction for multipole
  | error in Hartree potential    :           0.00000000 Ha           0.00000000 eV
  | Sum of eigenvalues per atom                           :       -2012.71336338 eV
  | Total energy (T->0) per atom                          :       -3685.66180973 eV  <-- do not rely on this value for anything but (periodic) metals
  | Electronic free energy per atom                       :       -3685.66180973 eV
  Initialize hartree_potential_storage
  Max. number of atoms included in rho_multipole:           12

  End scf initialization - timings             :  max(cpu_time)    wall_clock(cpu1)
  | Time for scf. initialization                :        0.122 s           0.122 s
  | Boundary condition initialization           :        0.000 s           0.000 s
  | Integration                                 :        0.047 s           0.047 s
  | Solution of K.-S. eqns.                     :        0.012 s           0.013 s
  | Grid partitioning                           :        0.040 s           0.040 s
  | Preloading free-atom quantities on grid     :        0.016 s           0.016 s
  | Free-atom superposition energy              :        0.005 s           0.005 s
  | Total energy evaluation                     :        0.000 s           0.000 s

  Partial memory accounting:
  | Current value for overall tracked memory usage:
  |   Minimum:        0.273 MB (on task 23)
  |   Maximum:        0.292 MB (on task  0)
  |   Average:        0.287 MB
  | Peak value for overall tracked memory usage:
  |   Minimum:        1.326 MB (on task 22 after allocating wave)
  |   Maximum:        1.402 MB (on task 13 after allocating wave)
  |   Average:        1.361 MB
  | Largest tracked array allocation so far:
  |   Minimum:        0.239 MB (H_times_psi on task 22)
  |   Maximum:        0.564 MB (all_coords on task 14)
  |   Average:        0.270 MB
  Note:  These values currently only include a subset of arrays which are explicitly tracked.
  The "true" memory usage will be greater.
------------------------------------------------------------
  Evaluating new KS density.
  Integration grid: deviation in total charge (<rho> - N_e) =   0.000000E+00

  Time for density update prior                :  max(cpu_time)    wall_clock(cpu1)
  | self-consistency iterative process          :        0.030 s           0.030 s

------------------------------------------------------------
          Begin self-consistency iteration #    1

  Date     :  20220517, Time     :  120323.391
------------------------------------------------------------
  Pulay mixing of updated and previous charge densities.
  Renormalizing the density to the exact electron count on the 3D integration grid.
  | Formal number of electrons (from input files) :     120.0000000000
  | Integrated number of electrons on 3D grid     :     120.0000000000
  | Charge integration error                      :      -0.0000000000
  | Normalization factor for density and gradient :       1.0000000000

  Evaluating partitioned Hartree potential by multipole expansion.
  | Original multipole sum: apparent total charge =  -0.268115E-14
  | Sum of charges compensated after spline to logarithmic grids =   0.795598E-04
  | Analytical far-field extrapolation by fixed multipoles:
  | Hartree multipole sum: apparent total charge =  -0.269345E-14
  Summing up the Hartree potential.
  Time summed over all CPUs for potential: real work        0.382 s, elapsed        0.413 s
  | RMS charge density error from multipole expansion :   0.110370E-01

  Integrating Hamiltonian matrix: batch-based integration.
  Time summed over all CPUs for integration: real work        0.703 s, elapsed        0.744 s

  Updating Kohn-Sham eigenvalues and eigenvectors using ELSI and the ELPA eigensolver.
  Starting ELPA eigensolver
  Finished transformation to standard eigenproblem
  | Time :     0.001 s
  Finished solving standard eigenproblem
  | Time :     0.003 s
  Finished back-transformation of eigenvectors
  | Time :     0.000 s

  Obtaining occupation numbers and chemical potential using ELSI.
  | Chemical potential (Fermi level):    -7.24460730 eV
  Writing Kohn-Sham eigenvalues.

  State    Occupation    Eigenvalue [Ha]    Eigenvalue [eV]
      1       2.00000         -55.675442        -1515.00585
      2       2.00000         -55.662049        -1514.64142
      3       2.00000         -55.629277        -1513.74965
      4       2.00000         -24.234303         -659.44892
      5       2.00000         -24.234230         -659.44695
      6       2.00000         -24.213201         -658.87473
      7       2.00000         -24.204893         -658.64864
      8       2.00000         -24.199352         -658.49788
      9       2.00000         -24.090987         -655.54910
     10       2.00000         -24.073862         -655.08311
     11       2.00000         -24.036444         -654.06492
     12       2.00000         -24.036210         -654.05855
     13       2.00000          -4.114056         -111.94916
     14       2.00000          -4.100490         -111.58001
     15       2.00000          -4.066677         -110.65991
     16       2.00000          -2.707054          -73.66269
     17       2.00000          -2.706751          -73.65445
     18       2.00000          -2.706412          -73.64522
     19       2.00000          -2.694119          -73.31070
     20       2.00000          -2.693027          -73.28101
     21       2.00000          -2.692341          -73.26232
     22       2.00000          -2.660313          -72.39081
     23       2.00000          -2.660045          -72.38351
     24       2.00000          -2.657638          -72.31801
     25       2.00000          -1.163013          -31.64720
     26       2.00000          -1.150717          -31.31260
     27       2.00000          -1.134117          -30.86089
     28       2.00000          -1.131095          -30.77866
     29       2.00000          -1.114144          -30.31740
     30       2.00000          -1.036234          -28.19737
     31       2.00000          -1.019693          -27.74726
     32       2.00000          -0.987817          -26.87986
     33       2.00000          -0.981022          -26.69497
     34       2.00000          -0.557202          -15.16225
     35       2.00000          -0.541415          -14.73267
     36       2.00000          -0.523707          -14.25079
     37       2.00000          -0.498283          -13.55897
     38       2.00000          -0.491421          -13.37225
     39       2.00000          -0.479216          -13.04014
     40       2.00000          -0.474841          -12.92107
     41       2.00000          -0.471223          -12.82264
     42       2.00000          -0.459244          -12.49667
     43       2.00000          -0.446378          -12.14656
     44       2.00000          -0.433352          -11.79211
     45       2.00000          -0.421989          -11.48291
     46       2.00000          -0.418735          -11.39435
     47       2.00000          -0.415825          -11.31517
     48       2.00000          -0.399752          -10.87782
     49       2.00000          -0.396297          -10.78380
     50       2.00000          -0.381347          -10.37698
     51       2.00000          -0.364148           -9.90897
     52       2.00000          -0.346091           -9.41761
     53       2.00000          -0.344901           -9.38524
     54       2.00000          -0.331624           -9.02394
     55       2.00000          -0.329731           -8.97243
     56       2.00000          -0.327608           -8.91466
     57       2.00000          -0.301972           -8.21709
     58       2.00000          -0.300316           -8.17201
     59       2.00000          -0.290945           -7.91701
     60       2.00000          -0.283726           -7.72058
     61       0.00000          -0.162571           -4.42379
     62       0.00000          -0.100811           -2.74321
     63       0.00000          -0.071289           -1.93988
     64       0.00000          -0.060525           -1.64698
     65       0.00000          -0.054170           -1.47404
     66       0.00000          -0.011130           -0.30286
     67       0.00000           0.004913            0.13370
     68       0.00000           0.014372            0.39108
     69       0.00000           0.040871            1.11217
     70       0.00000           0.055418            1.50799
     71       0.00000           0.084078            2.28787
     72       0.00000           0.095505            2.59883
     73       0.00000           0.142617            3.88082
     74       0.00000           0.153566            4.17875
     75       0.00000           0.160054            4.35530
     76       0.00000           0.163014            4.43585
     77       0.00000           0.177029            4.81720
     78       0.00000           0.191263            5.20454
     79       0.00000           0.194371            5.28911
     80       0.00000           0.212459            5.78129
     81       0.00000           0.215963            5.87665
     82       0.00000           0.226168            6.15435
     83       0.00000           0.229461            6.24395
     84       0.00000           0.232907            6.33772
     85       0.00000           0.249279            6.78324
     86       0.00000           0.251387            6.84059
     87       0.00000           0.257158            6.99763
     88       0.00000           0.265550            7.22599
     89       0.00000           0.271409            7.38541
     90       0.00000           0.283127            7.70429
     91       0.00000           0.290806            7.91325
     92       0.00000           0.337964            9.19646
     93       0.00000           0.349662            9.51479
     94       0.00000           0.371952           10.12133
     95       0.00000           0.378587           10.30189
     96       0.00000           0.390792           10.63398

  Highest occupied state (VBM) at     -7.72057747 eV
  | Occupation number:      2.00000000

  Lowest unoccupied state (CBM) at    -4.42378872 eV
  | Occupation number:      0.00000000

  Overall HOMO-LUMO gap:      3.29678875 eV.

  Total energy components:
  | Sum of eigenvalues            :        -882.99662943 Ha      -24027.56079552 eV
  | XC energy correction          :        -145.66754098 Ha       -3963.81546678 eV
  | XC potential correction       :         189.68608655 Ha        5161.62103537 eV
  | Free-atom electrostatic energy:        -781.37212087 Ha      -21262.21721857 eV
  | Hartree energy correction     :          -4.78408749 Ha        -130.18164411 eV
  | Entropy correction            :           0.00000000 Ha           0.00000000 eV
  | ---------------------------
  | Total energy                  :       -1625.13429222 Ha      -44222.15408962 eV
  | Total energy, T -> 0          :       -1625.13429222 Ha      -44222.15408962 eV  <-- do not rely on this value for anything but (periodic) metals
  | Electronic free energy        :       -1625.13429222 Ha      -44222.15408962 eV

  Derived energy quantities:
  | Kinetic energy                :        1633.79829989 Ha       44457.91373371 eV
  | Electrostatic energy          :       -3113.26505112 Ha      -84716.25235654 eV
  | Energy correction for multipole
  | error in Hartree potential    :           0.03332415 Ha           0.90679618 eV
  | Sum of eigenvalues per atom                           :       -2002.29673296 eV
  | Total energy (T->0) per atom                          :       -3685.17950747 eV  <-- do not rely on this value for anything but (periodic) metals
  | Electronic free energy per atom                       :       -3685.17950747 eV
  Evaluating new KS density.
  Integration grid: deviation in total charge (<rho> - N_e) =  -1.421085E-14

  Self-consistency convergence accuracy:
  | Change of charge density      :  0.5898E+00
  | Change of sum of eigenvalues  :  0.1250E+03 eV
  | Change of total energy        :  0.5788E+01 eV


------------------------------------------------------------
  End self-consistency iteration #     1       :  max(cpu_time)    wall_clock(cpu1)
  | Time for this iteration                     :        0.085 s           0.085 s
  | Charge density update                       :        0.028 s           0.029 s
  | Density mixing                              :        0.001 s           0.001 s
  | Hartree multipole update                    :        0.001 s           0.001 s
  | Hartree multipole summation                 :        0.018 s           0.018 s
  | Integration                                 :        0.031 s           0.031 s
  | Solution of K.-S. eqns.                     :        0.004 s           0.004 s
  | Total energy evaluation                     :        0.000 s           0.000 s

  Partial memory accounting:
  | Current value for overall tracked memory usage:
  |   Minimum:        0.273 MB (on task 23)
  |   Maximum:        0.292 MB (on task  0)
  |   Average:        0.287 MB
  | Peak value for overall tracked memory usage:
  |   Minimum:        1.326 MB (on task 22 after allocating wave)
  |   Maximum:        1.402 MB (on task 13 after allocating wave)
  |   Average:        1.361 MB
  | Largest tracked array allocation so far:
  |   Minimum:        0.716 MB (gradient_basis_wave on task 22)
  |   Maximum:        0.756 MB (gradient_basis_wave on task 13)
  |   Average:        0.733 MB
  Note:  These values currently only include a subset of arrays which are explicitly tracked.
  The "true" memory usage will be greater.
------------------------------------------------------------

------------------------------------------------------------
          Begin self-consistency iteration #    2

  Date     :  20220517, Time     :  120323.481
------------------------------------------------------------
  Pulay mixing of updated and previous charge densities.
  Renormalizing the density to the exact electron count on the 3D integration grid.
  | Formal number of electrons (from input files) :     120.0000000000
  | Integrated number of electrons on 3D grid     :     120.0000000000
  | Charge integration error                      :       0.0000000000
  | Normalization factor for density and gradient :       1.0000000000

  Evaluating partitioned Hartree potential by multipole expansion.
  | Original multipole sum: apparent total charge =   0.163606E-12
  | Sum of charges compensated after spline to logarithmic grids =   0.376832E-04
  | Analytical far-field extrapolation by fixed multipoles:
  | Hartree multipole sum: apparent total charge =   0.161453E-12
  Summing up the Hartree potential.
  Time summed over all CPUs for potential: real work        0.380 s, elapsed        0.411 s
  | RMS charge density error from multipole expansion :   0.127381E-01

  Integrating Hamiltonian matrix: batch-based integration.
  Time summed over all CPUs for integration: real work        0.704 s, elapsed        0.741 s

  Updating Kohn-Sham eigenvalues and eigenvectors using ELSI and the ELPA eigensolver.
  Starting ELPA eigensolver
  Finished transformation to standard eigenproblem
  | Time :     0.000 s
  Finished solving standard eigenproblem
  | Time :     0.003 s
  Finished back-transformation of eigenvectors
  | Time :     0.000 s

  Obtaining occupation numbers and chemical potential using ELSI.
  | Chemical potential (Fermi level):    -7.42736566 eV
  Highest occupied state (VBM) at     -8.83167080 eV
  | Occupation number:      2.00000000

  Lowest unoccupied state (CBM) at    -4.64458412 eV
  | Occupation number:      0.00000000

  Overall HOMO-LUMO gap:      4.18708667 eV.

  Checking to see if s.c.f. parameters should be adjusted.

  Total energy components:
  | Sum of eigenvalues            :        -885.87432407 Ha      -24105.86685108 eV
  | XC energy correction          :        -145.19345168 Ha       -3950.91484042 eV
  | XC potential correction       :         189.06238960 Ha        5144.64937798 eV
  | Free-atom electrostatic energy:        -781.37212087 Ha      -21262.21721857 eV
  | Hartree energy correction     :          -1.69655681 Ha         -46.16565972 eV
  | Entropy correction            :           0.00000000 Ha           0.00000000 eV
  | ---------------------------
  | Total energy                  :       -1625.07406383 Ha      -44220.51519182 eV
  | Total energy, T -> 0          :       -1625.07406383 Ha      -44220.51519182 eV  <-- do not rely on this value for anything but (periodic) metals
  | Electronic free energy        :       -1625.07406383 Ha      -44220.51519182 eV

  Derived energy quantities:
  | Kinetic energy                :        1630.02268310 Ha       44355.17397358 eV
  | Electrostatic energy          :       -3109.90329525 Ha      -84624.77432497 eV
  | Energy correction for multipole
  | error in Hartree potential    :           0.03730659 Ha           1.01516399 eV
  | Sum of eigenvalues per atom                           :       -2008.82223759 eV
  | Total energy (T->0) per atom                          :       -3685.04293265 eV  <-- do not rely on this value for anything but (periodic) metals
  | Electronic free energy per atom                       :       -3685.04293265 eV
  Evaluating new KS density.
  Integration grid: deviation in total charge (<rho> - N_e) =  -1.421085E-14

  Self-consistency convergence accuracy:
  | Change of charge density      :  0.4610E+00
  | Change of sum of eigenvalues  : -0.7831E+02 eV
  | Change of total energy        :  0.1639E+01 eV


------------------------------------------------------------
  End self-consistency iteration #     2       :  max(cpu_time)    wall_clock(cpu1)
  | Time for this iteration                     :        0.087 s           0.085 s
  | Charge density update                       :        0.028 s           0.029 s
  | Density mixing                              :        0.005 s           0.002 s
  | Hartree multipole update                    :        0.001 s           0.001 s
  | Hartree multipole summation                 :        0.017 s           0.018 s
  | Integration                                 :        0.031 s           0.031 s
  | Solution of K.-S. eqns.                     :        0.004 s           0.004 s
  | Total energy evaluation                     :        0.000 s           0.000 s

  Partial memory accounting:
  | Current value for overall tracked memory usage:
  |   Minimum:        0.274 MB (on task 23)
  |   Maximum:        0.293 MB (on task  0)
  |   Average:        0.288 MB
  | Peak value for overall tracked memory usage:
  |   Minimum:        1.326 MB (on task 22 after allocating wave)
  |   Maximum:        1.402 MB (on task 13 after allocating wave)
  |   Average:        1.361 MB
  | Largest tracked array allocation so far:
  |   Minimum:        0.716 MB (gradient_basis_wave on task 22)
  |   Maximum:        0.756 MB (gradient_basis_wave on task 13)
  |   Average:        0.733 MB
  Note:  These values currently only include a subset of arrays which are explicitly tracked.
  The "true" memory usage will be greater.
------------------------------------------------------------

------------------------------------------------------------
          Begin self-consistency iteration #    3

  Date     :  20220517, Time     :  120323.571
------------------------------------------------------------
  Pulay mixing of updated and previous charge densities.
  Renormalizing the density to the exact electron count on the 3D integration grid.
  | Formal number of electrons (from input files) :     120.0000000000
  | Integrated number of electrons on 3D grid     :     120.0000000000
  | Charge integration error                      :      -0.0000000000
  | Normalization factor for density and gradient :       1.0000000000

  Evaluating partitioned Hartree potential by multipole expansion.
  | Original multipole sum: apparent total charge =   0.204284E-13
  | Sum of charges compensated after spline to logarithmic grids =   0.445796E-04
  | Analytical far-field extrapolation by fixed multipoles:
  | Hartree multipole sum: apparent total charge =   0.200287E-13
  Summing up the Hartree potential.
  Time summed over all CPUs for potential: real work        0.380 s, elapsed        0.411 s
  | RMS charge density error from multipole expansion :   0.172348E-01

  Integrating Hamiltonian matrix: batch-based integration.
  Time summed over all CPUs for integration: real work        0.704 s, elapsed        0.744 s

  Updating Kohn-Sham eigenvalues and eigenvectors using ELSI and the ELPA eigensolver.
  Starting ELPA eigensolver
  Finished transformation to standard eigenproblem
  | Time :     0.001 s
  Finished solving standard eigenproblem
  | Time :     0.003 s
  Finished back-transformation of eigenvectors
  | Time :     0.000 s

  Obtaining occupation numbers and chemical potential using ELSI.
  | Chemical potential (Fermi level):    -7.48020288 eV
  Highest occupied state (VBM) at     -8.40027858 eV
  | Occupation number:      2.00000000

  Lowest unoccupied state (CBM) at    -4.88066882 eV
  | Occupation number:      0.00000000

  Overall HOMO-LUMO gap:      3.51960976 eV.

  Total energy components:
  | Sum of eigenvalues            :        -886.84946553 Ha      -24132.40180020 eV
  | XC energy correction          :        -145.15707291 Ha       -3949.92492375 eV
  | XC potential correction       :         189.01339431 Ha        5143.31614825 eV
  | Free-atom electrostatic energy:        -781.37212087 Ha      -21262.21721857 eV
  | Hartree energy correction     :          -0.70782814 Ha         -19.26098357 eV
  | Entropy correction            :           0.00000000 Ha           0.00000000 eV
  | ---------------------------
  | Total energy                  :       -1625.07309313 Ha      -44220.48877785 eV
  | Total energy, T -> 0          :       -1625.07309313 Ha      -44220.48877785 eV  <-- do not rely on this value for anything but (periodic) metals
  | Electronic free energy        :       -1625.07309313 Ha      -44220.48877785 eV

  Derived energy quantities:
  | Kinetic energy                :        1628.35829890 Ha       44309.88377500 eV
  | Electrostatic energy          :       -3108.27431912 Ha      -84580.44762910 eV
  | Energy correction for multipole
  | error in Hartree potential    :           0.05024752 Ha           1.36730455 eV
  | Sum of eigenvalues per atom                           :       -2011.03348335 eV
  | Total energy (T->0) per atom                          :       -3685.04073149 eV  <-- do not rely on this value for anything but (periodic) metals
  | Electronic free energy per atom                       :       -3685.04073149 eV
  Evaluating new KS density.
  Integration grid: deviation in total charge (<rho> - N_e) =   0.000000E+00

  Self-consistency convergence accuracy:
  | Change of charge density      :  0.1241E+00
  | Change of sum of eigenvalues  : -0.2653E+02 eV
  | Change of total energy        :  0.2641E-01 eV


------------------------------------------------------------
  End self-consistency iteration #     3       :  max(cpu_time)    wall_clock(cpu1)
  | Time for this iteration                     :        0.087 s           0.084 s
  | Charge density update                       :        0.028 s           0.028 s
  | Density mixing                              :        0.004 s           0.001 s
  | Hartree multipole update                    :        0.001 s           0.002 s
  | Hartree multipole summation                 :        0.017 s           0.017 s
  | Integration                                 :        0.031 s           0.031 s
  | Solution of K.-S. eqns.                     :        0.004 s           0.004 s
  | Total energy evaluation                     :        0.000 s           0.000 s

  Partial memory accounting:
  | Current value for overall tracked memory usage:
  |   Minimum:        0.274 MB (on task 23)
  |   Maximum:        0.293 MB (on task  0)
  |   Average:        0.288 MB
  | Peak value for overall tracked memory usage:
  |   Minimum:        1.326 MB (on task 22 after allocating wave)
  |   Maximum:        1.402 MB (on task 13 after allocating wave)
  |   Average:        1.361 MB
  | Largest tracked array allocation so far:
  |   Minimum:        0.716 MB (gradient_basis_wave on task 22)
  |   Maximum:        0.756 MB (gradient_basis_wave on task 13)
  |   Average:        0.733 MB
  Note:  These values currently only include a subset of arrays which are explicitly tracked.
  The "true" memory usage will be greater.
------------------------------------------------------------

------------------------------------------------------------
          Begin self-consistency iteration #    4

  Date     :  20220517, Time     :  120323.662
------------------------------------------------------------
  Pulay mixing of updated and previous charge densities.
  Renormalizing the density to the exact electron count on the 3D integration grid.
  | Formal number of electrons (from input files) :     120.0000000000
  | Integrated number of electrons on 3D grid     :     120.0000000000
  | Charge integration error                      :      -0.0000000000
  | Normalization factor for density and gradient :       1.0000000000

  Evaluating partitioned Hartree potential by multipole expansion.
  | Original multipole sum: apparent total charge =  -0.607626E-13
  | Sum of charges compensated after spline to logarithmic grids =   0.470060E-04
  | Analytical far-field extrapolation by fixed multipoles:
  | Hartree multipole sum: apparent total charge =  -0.614574E-13
  Summing up the Hartree potential.
  Time summed over all CPUs for potential: real work        0.380 s, elapsed        0.411 s
  | RMS charge density error from multipole expansion :   0.192850E-01

  Integrating Hamiltonian matrix: batch-based integration.
  Time summed over all CPUs for integration: real work        0.704 s, elapsed        0.742 s

  Updating Kohn-Sham eigenvalues and eigenvectors using ELSI and the ELPA eigensolver.
  Starting ELPA eigensolver
  Finished transformation to standard eigenproblem
  | Time :     0.000 s
  Finished solving standard eigenproblem
  | Time :     0.003 s
  Finished back-transformation of eigenvectors
  | Time :     0.000 s

  Obtaining occupation numbers and chemical potential using ELSI.
  | Chemical potential (Fermi level):    -7.46070247 eV
  Highest occupied state (VBM) at     -8.44838494 eV
  | Occupation number:      2.00000000

  Lowest unoccupied state (CBM) at    -4.85580795 eV
  | Occupation number:      0.00000000

  Overall HOMO-LUMO gap:      3.59257699 eV.

  Total energy components:
  | Sum of eigenvalues            :        -886.97643375 Ha      -24135.85678123 eV
  | XC energy correction          :        -145.14078943 Ha       -3949.48182791 eV
  | XC potential correction       :         188.99133104 Ha        5142.71577603 eV
  | Free-atom electrostatic energy:        -781.37212087 Ha      -21262.21721857 eV
  | Hartree energy correction     :          -0.57288998 Ha         -15.58912950 eV
  | Entropy correction            :           0.00000000 Ha           0.00000000 eV
  | ---------------------------
  | Total energy                  :       -1625.07090300 Ha      -44220.42918119 eV
  | Total energy, T -> 0          :       -1625.07090300 Ha      -44220.42918119 eV  <-- do not rely on this value for anything but (periodic) metals
  | Electronic free energy        :       -1625.07090300 Ha      -44220.42918119 eV

  Derived energy quantities:
  | Kinetic energy                :        1627.68577742 Ha       44291.58353464 eV
  | Electrostatic energy          :       -3107.61589099 Ha      -84562.53088792 eV
  | Energy correction for multipole
  | error in Hartree potential    :           0.05567696 Ha           1.51504726 eV
  | Sum of eigenvalues per atom                           :       -2011.32139844 eV
  | Total energy (T->0) per atom                          :       -3685.03576510 eV  <-- do not rely on this value for anything but (periodic) metals
  | Electronic free energy per atom                       :       -3685.03576510 eV
  Evaluating new KS density.
  Integration grid: deviation in total charge (<rho> - N_e) =   4.263256E-14

  Self-consistency convergence accuracy:
  | Change of charge density      :  0.8366E-01
  | Change of sum of eigenvalues  : -0.3455E+01 eV
  | Change of total energy        :  0.5960E-01 eV


------------------------------------------------------------
  End self-consistency iteration #     4       :  max(cpu_time)    wall_clock(cpu1)
  | Time for this iteration                     :        0.087 s           0.084 s
  | Charge density update                       :        0.028 s           0.028 s
  | Density mixing                              :        0.004 s           0.002 s
  | Hartree multipole update                    :        0.001 s           0.001 s
  | Hartree multipole summation                 :        0.017 s           0.017 s
  | Integration                                 :        0.031 s           0.032 s
  | Solution of K.-S. eqns.                     :        0.004 s           0.004 s
  | Total energy evaluation                     :        0.000 s           0.000 s

  Partial memory accounting:
  | Current value for overall tracked memory usage:
  |   Minimum:        0.274 MB (on task 23)
  |   Maximum:        0.293 MB (on task  0)
  |   Average:        0.288 MB
  | Peak value for overall tracked memory usage:
  |   Minimum:        1.326 MB (on task 22 after allocating wave)
  |   Maximum:        1.402 MB (on task 13 after allocating wave)
  |   Average:        1.361 MB
  | Largest tracked array allocation so far:
  |   Minimum:        0.716 MB (gradient_basis_wave on task 22)
  |   Maximum:        0.756 MB (gradient_basis_wave on task 13)
  |   Average:        0.733 MB
  Note:  These values currently only include a subset of arrays which are explicitly tracked.
  The "true" memory usage will be greater.
------------------------------------------------------------

------------------------------------------------------------
          Begin self-consistency iteration #    5

  Date     :  20220517, Time     :  120323.753
------------------------------------------------------------
  Pulay mixing of updated and previous charge densities.
  Renormalizing the density to the exact electron count on the 3D integration grid.
  | Formal number of electrons (from input files) :     120.0000000000
  | Integrated number of electrons on 3D grid     :     120.0000000000
  | Charge integration error                      :       0.0000000000
  | Normalization factor for density and gradient :       1.0000000000

  Evaluating partitioned Hartree potential by multipole expansion.
  | Original multipole sum: apparent total charge =   0.301322E-13
  | Sum of charges compensated after spline to logarithmic grids =   0.480694E-04
  | Analytical far-field extrapolation by fixed multipoles:
  | Hartree multipole sum: apparent total charge =   0.289761E-13
  Summing up the Hartree potential.
  Time summed over all CPUs for potential: real work        0.380 s, elapsed        0.411 s
  | RMS charge density error from multipole expansion :   0.190880E-01

  Integrating Hamiltonian matrix: batch-based integration.
  Time summed over all CPUs for integration: real work        0.704 s, elapsed        0.742 s

  Updating Kohn-Sham eigenvalues and eigenvectors using ELSI and the ELPA eigensolver.
  Starting ELPA eigensolver
  Finished transformation to standard eigenproblem
  | Time :     0.001 s
  Finished solving standard eigenproblem
  | Time :     0.003 s
  Finished back-transformation of eigenvectors
  | Time :     0.000 s

  Obtaining occupation numbers and chemical potential using ELSI.
  | Chemical potential (Fermi level):    -7.43956965 eV
  Highest occupied state (VBM) at     -8.53502408 eV
  | Occupation number:      2.00000000

  Lowest unoccupied state (CBM) at    -4.79007333 eV
  | Occupation number:      0.00000000

  Overall HOMO-LUMO gap:      3.74495075 eV.

  Total energy components:
  | Sum of eigenvalues            :        -886.77223303 Ha      -24130.30019699 eV
  | XC energy correction          :        -145.13803545 Ha       -3949.40688820 eV
  | XC potential correction       :         188.98788606 Ha        5142.62203343 eV
  | Free-atom electrostatic energy:        -781.37212087 Ha      -21262.21721857 eV
  | Hartree energy correction     :          -0.77626873 Ha         -21.12334680 eV
  | Entropy correction            :           0.00000000 Ha           0.00000000 eV
[...]
   Total forces(   7)            : -0.256166E+00  0.226354E+01  0.250227E+00
  atom #    8
   Hellmann-Feynman              :  0.847357E+00 -0.758860E+00  0.349106E+00
   Ionic forces                  :  0.000000E+00  0.000000E+00  0.000000E+00
   Multipole                     :  0.407862E+00 -0.206790E+00 -0.511744E-01
   Hartree pot. SCF incomplete   :  0.473800E-05 -0.240680E-05 -0.406449E-05
   Pulay + GGA                   : -0.335443E+01  0.227962E+01  0.945002E-01
   ----------------------------------------------------------------
   Total forces(   8)            : -0.209921E+01  0.131397E+01  0.392428E+00
  atom #    9
   Hellmann-Feynman              : -0.463616E+00  0.835515E+00 -0.319850E+01
   Ionic forces                  :  0.000000E+00  0.000000E+00  0.000000E+00
   Multipole                     : -0.806272E-01  0.248385E+00 -0.860098E+00
   Hartree pot. SCF incomplete   : -0.114723E-05  0.842923E-06 -0.193078E-05
   Pulay + GGA                   :  0.987619E+00 -0.198271E+01  0.739194E+01
   ----------------------------------------------------------------
   Total forces(   9)            :  0.443375E+00 -0.898812E+00  0.333334E+01
  atom #   10
   Hellmann-Feynman              : -0.536828E+00  0.526643E+00  0.683086E+00
   Ionic forces                  :  0.000000E+00  0.000000E+00  0.000000E+00
   Multipole                     : -0.163574E-01  0.482193E+00  0.108138E+00
   Hartree pot. SCF incomplete   : -0.234890E-05  0.726811E-05 -0.170375E-05
   Pulay + GGA                   :  0.858030E+00 -0.323310E+01 -0.174061E+01
   ----------------------------------------------------------------
   Total forces(  10)            :  0.304842E+00 -0.222425E+01 -0.949385E+00
  atom #   11
   Hellmann-Feynman              :  0.300561E+01  0.919175E+00  0.129909E+01
   Ionic forces                  :  0.000000E+00  0.000000E+00  0.000000E+00
   Multipole                     :  0.739982E+00  0.277528E+00  0.285711E+00
   Hartree pot. SCF incomplete   :  0.232972E-05  0.768756E-06  0.219232E-05
   Pulay + GGA                   : -0.671827E+01 -0.211165E+01 -0.297522E+01
   ----------------------------------------------------------------
   Total forces(  11)            : -0.297268E+01 -0.914944E+00 -0.139041E+01
  atom #   12
   Hellmann-Feynman              : -0.469634E+00 -0.504192E+00  0.830471E+00
   Ionic forces                  :  0.000000E+00  0.000000E+00  0.000000E+00
   Multipole                     : -0.309697E+00 -0.303757E+00  0.858513E-02
   Hartree pot. SCF incomplete   : -0.453331E-05 -0.151440E-05 -0.341769E-05
   Pulay + GGA                   :  0.228238E+01  0.159386E+01 -0.112476E+01
   ----------------------------------------------------------------
   Total forces(  12)            :  0.150305E+01  0.785907E+00 -0.285702E+00


  Self-consistency convergence accuracy:
  | Change of charge density      :  0.2040E-06
  | Change of sum of eigenvalues  :  0.5722E-05 eV
  | Change of total energy        :  0.1114E-09 eV
  | Change of forces              :  0.4522E-06 eV/A

  Writing Kohn-Sham eigenvalues.

  State    Occupation    Eigenvalue [Ha]    Eigenvalue [eV]
      1       2.00000         -55.665445        -1514.73384
      2       2.00000         -55.644163        -1514.15470
      3       2.00000         -55.604254        -1513.06874
      4       2.00000         -24.315102         -661.64758
      5       2.00000         -24.308473         -661.46722
      6       2.00000         -24.303332         -661.32732
      7       2.00000         -24.281259         -660.72669
      8       2.00000         -24.280457         -660.70486
      9       2.00000         -24.243457         -659.69802
     10       2.00000         -24.217052         -658.97952
     11       2.00000         -24.172509         -657.76743
     12       2.00000         -24.169546         -657.68680
     13       2.00000          -4.117855         -112.05252
     14       2.00000          -4.095747         -111.45095
     15       2.00000          -4.054243         -110.32157
     16       2.00000          -2.711078          -73.77218
     17       2.00000          -2.709605          -73.73211
     18       2.00000          -2.707647          -73.67883
     19       2.00000          -2.688744          -73.16443
     20       2.00000          -2.687335          -73.12611
     21       2.00000          -2.685956          -73.08858
     22       2.00000          -2.648317          -72.06438
     23       2.00000          -2.646295          -72.00935
     24       2.00000          -2.642738          -71.91256
     25       2.00000          -1.186839          -32.29553
     26       2.00000          -1.173521          -31.93314
     27       2.00000          -1.161897          -31.61683
     28       2.00000          -1.150778          -31.31426
     29       2.00000          -1.134817          -30.87994
     30       2.00000          -1.090628          -29.67751
     31       2.00000          -1.063587          -28.94168
     32       2.00000          -1.017017          -27.67444
     33       2.00000          -1.012561          -27.55318
     34       2.00000          -0.575766          -15.66739
     35       2.00000          -0.560247          -15.24510
     36       2.00000          -0.543182          -14.78074
     37       2.00000          -0.519471          -14.13551
     38       2.00000          -0.515709          -14.03317
     39       2.00000          -0.497932          -13.54943
     40       2.00000          -0.495256          -13.47660
     41       2.00000          -0.494435          -13.45426
     42       2.00000          -0.481079          -13.09082
     43       2.00000          -0.469777          -12.78328
     44       2.00000          -0.460611          -12.53387
     45       2.00000          -0.450767          -12.26601
     46       2.00000          -0.446260          -12.14337
     47       2.00000          -0.441018          -12.00070
     48       2.00000          -0.435338          -11.84615
     49       2.00000          -0.421175          -11.46076
     50       2.00000          -0.417584          -11.36303
     51       2.00000          -0.396383          -10.78612
     52       2.00000          -0.395037          -10.74950
     53       2.00000          -0.388128          -10.56150
     54       2.00000          -0.370163          -10.07266
     55       2.00000          -0.368262          -10.02091
     56       2.00000          -0.360853           -9.81930
     57       2.00000          -0.327857           -8.92145
     58       2.00000          -0.326733           -8.89087
     59       2.00000          -0.319192           -8.68565
     60       2.00000          -0.312614           -8.50666
     61       0.00000          -0.176203           -4.79474
     62       0.00000          -0.113856           -3.09817
     63       0.00000          -0.080132           -2.18051
     64       0.00000          -0.064656           -1.75939
     65       0.00000          -0.061936           -1.68537
     66       0.00000          -0.018751           -0.51024
     67       0.00000           0.003589            0.09766
     68       0.00000           0.009020            0.24544
     69       0.00000           0.040891            1.11269
     70       0.00000           0.051422            1.39926
     71       0.00000           0.082504            2.24505
     72       0.00000           0.092135            2.50712
     73       0.00000           0.134168            3.65089
     74       0.00000           0.147218            4.00600
     75       0.00000           0.151920            4.13396
     76       0.00000           0.158327            4.30829
     77       0.00000           0.172576            4.69602
     78       0.00000           0.186024            5.06198
     79       0.00000           0.190281            5.17780
     80       0.00000           0.209882            5.71117
     81       0.00000           0.211961            5.76776
     82       0.00000           0.221457            6.02616
     83       0.00000           0.225216            6.12843
     84       0.00000           0.228138            6.20796
     85       0.00000           0.245092            6.66928
     86       0.00000           0.247323            6.73000
     87       0.00000           0.250441            6.81484
     88       0.00000           0.257917            7.01827
     89       0.00000           0.270086            7.34942
     90       0.00000           0.277981            7.56424
     91       0.00000           0.288735            7.85689
     92       0.00000           0.335765            9.13664
     93       0.00000           0.342024            9.30694
     94       0.00000           0.364660            9.92290
     95       0.00000           0.369043           10.04218
     96       0.00000           0.383440           10.43395

  Highest occupied state (VBM) at     -8.50666087 eV
  | Occupation number:      2.00000000

  Lowest unoccupied state (CBM) at    -4.79473596 eV
  | Occupation number:      0.00000000

  Overall HOMO-LUMO gap:      3.71192491 eV.
  | Chemical Potential                          :    -7.43911447 eV

  Self-consistency cycle converged.


------------------------------------------------------------
  End self-consistency iteration #    14       :  max(cpu_time)    wall_clock(cpu1)
  | Time for this iteration                     :        0.273 s           0.270 s
  | Charge density & force component update     :        0.149 s           0.149 s
  | Density mixing                              :        0.005 s           0.003 s
  | Hartree multipole update                    :        0.001 s           0.001 s
  | Hartree multipole summation                 :        0.049 s           0.049 s
  | Hartree pot. SCF incomplete forces          :        0.031 s           0.032 s
  | Integration                                 :        0.031 s           0.032 s
  | Solution of K.-S. eqns.                     :        0.004 s           0.004 s
  | Total energy evaluation                     :        0.000 s           0.000 s

  Partial memory accounting:
  | Current value for overall tracked memory usage:
  |   Minimum:        0.274 MB (on task 23)
  |   Maximum:        0.293 MB (on task  0)
  |   Average:        0.289 MB
  | Peak value for overall tracked memory usage:
  |   Minimum:        2.931 MB (on task 22 after allocating hessian_basis_wave)
  |   Maximum:        3.076 MB (on task 13 after allocating hessian_basis_wave)
  |   Average:        2.996 MB
  | Largest tracked array allocation so far:
  |   Minimum:        1.433 MB (hessian_basis_wave on task 22)
  |   Maximum:        1.512 MB (hessian_basis_wave on task 13)
  |   Average:        1.466 MB
  Note:  These values currently only include a subset of arrays which are explicitly tracked.
  The "true" memory usage will be greater.
------------------------------------------------------------
  Removing unitary transformations (pure translations, rotations) from forces on atoms.
  Atomic forces before filtering:
  | Net force on center of mass :  -0.623370E-02 -0.485046E-02  0.440206E-02 eV/A
  | Net torque on center of mass:  -0.339404E-02  0.493161E-02 -0.125867E-01 eV
  Atomic forces after filtering:
  | Net force on center of mass :   0.356812E-15 -0.178406E-15  0.847429E-15 eV/A
  | Net torque on center of mass:  -0.849676E-15  0.944085E-15  0.566451E-15 eV

  Energy and forces in a compact form:
  | Total energy uncorrected      :         -0.442204252684248E+05 eV
  | Total energy corrected        :         -0.442204252684248E+05 eV  <-- do not rely on this value for anything but (periodic) metals
  | Electronic free energy        :         -0.442204252684248E+05 eV
  Total atomic forces (unitary forces cleaned) [eV/Ang]:
  |    1         -0.314041547817552E+01         -0.116595916053408E+01          0.189474777498774E+01
  |    2          0.265202473022120E+01          0.515420588713273E+00          0.196033190208748E+01
  |    3         -0.200710404548091E+00          0.646813537043130E+00         -0.232344467887617E+01
  |    4          0.657224138167592E+00         -0.149828134103798E+01         -0.136304872556836E+01
  |    5          0.244234414462876E+01         -0.165389311386021E+01          0.423073519399470E+00
  |    6          0.663022579179791E+00          0.282645321356009E+01         -0.194053090518593E+01
  |    7         -0.255245645925829E+00          0.226410376919381E+01          0.249875743210547E+00
  |    8         -0.209842610291383E+01          0.131501178342416E+01          0.392268152757698E+00
  |    9          0.444037738047244E+00         -0.898305454182958E+00          0.333299996676128E+01
  |   10          0.304853809543691E+00         -0.222368352375466E+01         -0.949636236866201E+00
  |   11         -0.297257920145408E+01         -0.913634213135592E+00         -0.139040282636337E+01
  |   12          0.150386969322907E+01          0.785953914571025E+00         -0.286233686344180E+00

  ------------------------------------ 
  Start decomposition of the XC Energy 
  ------------------------------------ 
  X and C from original XC functional choice 
  Hartree-Fock Energy :          0.000000000 Ha              0.000000000 eV
  X Energy            :       -140.188046855 Ha          -3814.710845271 eV
  C Energy            :         -4.953906045 Ha           -134.802642171 eV
  Total XC Energy     :       -145.141952900 Ha          -3949.513487442 eV
  ------------------------------------ 
  LDA X and C from self-consistent density 
  X Energy LDA        :       -132.774646728 Ha          -3612.981963971 eV
  C Energy LDA        :         -8.826501720 Ha           -240.181332100 eV
  ------------------------------------ 
  End decomposition of the XC Energy 
  ------------------------------------ 

------------------------------------------------------------

------------------------------------------------------------------------------
  Final output of selected total energy values:

  The following output summarizes some interesting total energy values
  at the end of a run (AFTER all relaxation, molecular dynamics, etc.).

  | Total energy of the DFT / Hartree-Fock s.c.f. calculation      :         -44220.425268425 eV
  | Final zero-broadening corrected energy (caution - metals only) :         -44220.425268425 eV
  | For reference only, the value of 1 Hartree used in FHI-aims is :             27.211384500 eV

  Before relying on these values, please be sure to understand exactly which
  total energy value is referred to by a given number. Different objects may
  all carry the same name 'total energy'. Definitions:

  Total energy of the DFT / Hartree-Fock s.c.f. calculation:
  | Note that this energy does not include ANY quantities calculated after the
  | s.c.f. cycle, in particular not ANY RPA, MP2, etc. many-body perturbation terms.

  Final zero-broadening corrected energy:
  | For metallic systems only, a broadening of the occupation numbers at the Fermi
  | level can be extrapolated back to zero broadening by an electron-gas inspired
  | formula. For all systems that are not real metals, this value can be
  | meaningless and should be avoided.

------------------------------------------------------------------------------
  Methods described in the following list of references were used in this FHI-aims run.
  If you publish the results, please make sure to cite these reference if they apply.
  FHI-aims is an academic code, and for our developers (often, Ph.D. students
  and postdocs), scientific credit in the community is essential.
  Thank you for helping us!

  For any use of FHI-aims, please cite:

    Volker Blum, Ralf Gehrke, Felix Hanke, Paula Havu, Ville Havu,
    Xinguo Ren, Karsten Reuter, and Matthias Scheffler
    'Ab initio molecular simulations with numeric atom-centered orbitals'
    Computer Physics Communications 180, 2175-2196 (2009)
    http://dx.doi.org/10.1016/j.cpc.2009.06.022


  The ELSI infrastructure was used in your run to solve the Kohn-Sham electronic structure.
  Please check out http://elsi-interchange.org to learn more.
  If scalability is important for your project, please acknowledge ELSI by citing:

    V. W-z. Yu, F. Corsetti, A. Garcia, W. P. Huhn, M. Jacquelin, W. Jia,
    B. Lange, L. Lin, J. Lu, W. Mi, A. Seifitokaldani, A. Vazquez-Mayagoitia,
    C. Yang, H. Yang, and V. Blum
    'ELSI: A unified software interface for Kohn-Sham electronic structure solvers'
    Computer Physics Communications 222, 267-285 (2018).
    http://dx.doi.org/10.1016/j.cpc.2017.09.007


  For the real-space grid partitioning and parallelization used in this calculation, please cite:

    Ville Havu, Volker Blum, Paula Havu, and Matthias Scheffler,
    'Efficient O(N) integration for all-electron electronic structure calculation'
    'using numerically tabulated basis functions'
    Journal of Computational Physics 228, 8367-8379 (2009).
    http://dx.doi.org/10.1016/j.jcp.2009.08.008

  Of course, there are many other important community references, e.g., those cited in the
  above references. Our list is limited to references that describe implementations in the
  FHI-aims code. The reason is purely practical (length of this list) - please credit others as well.

------------------------------------------------------------
          Leaving FHI-aims.
          Date     :  20220517, Time     :  120325.043

          Computational steps:
          | Number of self-consistency cycles          :           14
          | Number of SCF (re)initializations          :            1

          Detailed time accounting                     :  max(cpu_time)    wall_clock(cpu1)
          | Total time                                  :        1.967 s           3.141 s
          | Preparation time                            :        0.185 s           0.185 s
          | Boundary condition initalization            :        0.000 s           0.000 s
          | Grid partitioning                           :        0.040 s           0.040 s
          | Preloading free-atom quantities on grid     :        0.016 s           0.016 s
          | Free-atom superposition energy              :        0.005 s           0.005 s
          | Total time for integrations                 :        0.485 s           0.485 s
          | Total time for solution of K.-S. equations  :        0.068 s           0.070 s
          | Total time for density & force components   :        0.670 s           0.671 s
          | Total time for mixing                       :        0.060 s           0.029 s
          | Total time for Hartree multipole update     :        0.018 s           0.018 s
          | Total time for Hartree multipole sum        :        0.308 s           0.309 s
          | Total time for total energy evaluation      :        0.002 s           0.002 s
          | Total time NSC force correction             :        0.063 s           0.063 s
          | Total time for scaled ZORA corrections      :        0.000 s           0.000 s

          Partial memory accounting:
          | Residual value for overall tracked memory usage across tasks:     0.000000 MB (should be 0.000000 MB)
          | Peak values for overall tracked memory usage:
          |   Minimum:        2.931 MB (on task 22 after allocating hessian_basis_wave)
          |   Maximum:        3.076 MB (on task 13 after allocating hessian_basis_wave)
          |   Average:        2.996 MB
          | Largest tracked array allocation:
          |   Minimum:        1.433 MB (hessian_basis_wave on task 22)
          |   Maximum:        1.512 MB (hessian_basis_wave on task 13)
          |   Average:        1.466 MB
          Note:  These values currently only include a subset of arrays which are explicitly tracked.
          The "true" memory usage will be greater.

          Have a nice day.
------------------------------------------------------------
