------------------------------------------------------------
          Invoking FHI-aims ...

          When using FHI-aims, please cite the following reference:

            Volker Blum, Ralf Gehrke, Felix Hanke, Paula Havu,
            Ville Havu, Xinguo Ren, Karsten Reuter, and Matthias Scheffler,
            'Ab Initio Molecular Simulations with Numeric Atom-Centered Orbitals',
            Computer Physics Communications 180, 2175-2196 (2009)

          In addition, many other developments in FHI-aims are likely important for
          your particular application. A partial list of references is given at the end of
          this file. Thank you for giving credit to the authors of these developments.

          For any questions about FHI-aims, please visit our slack channel at

            https://fhi-aims.slack.com

          and our main development and support site at

            https://aims-git.rz-berlin.mpg.de .

          The latter site, in particular, has a wiki to collect information, as well
          as an issue tracker to log discussions, suggest improvements, and report issues
          or bugs. https://aims-git.rz-berlin.mpg.de is also the main development site
          of the project and all new and updated code versions can be obtained there.
          Please send an email to aims-coordinators@fhi-berlin.mpg.de and we will add
          you to these sites. They are for you and everyone is welcome there.

------------------------------------------------------------



  Date     :  20220517, Time     :  105651.777
  Time zero on CPU 1             :   0.386600000000000E-01  s.
  Internal wall clock time zero  :           422017011.777  s.

  FHI-aims created a unique identifier for this run for later identification
  aims_uuid : 5C9B127A-2616-41F7-A37D-903B408AB5A0

  Build configuration of the current instance of FHI-aims
  -------------------------------------------------------
  FHI-aims version      : 210914
  Commit number         : GITDIR-NOTFOUND
  CMake host system     : Linux-3.10.0-693.17.1.el7.x86_64
  CMake version         : 3.21.1
  Fortran compiler      : /shared/ucl/apps/intel/2018.Update3/impi/2018.3.222/intel64/bin/mpiifort (Intel) version 18.0.3.20180410
  Fortran compiler flags: -O3 -ip -fp-model precise
  C compiler            : /shared/ucl/apps/intel/2018.Update3/compilers_and_libraries_2018.3.222/linux/bin/intel64/icc (Intel) version 18.0.3.20180410
  C compiler flags      : -O3 -ip -fp-model precise -std=gnu99
  ELPA2 kernel          : AVX2
  Using MPI
  Using ScaLAPACK
  Using LibXC
  Using i-PI
  Using RLSY
  Linking against: /shared/ucl/apps/intel/2019.Update5/compilers_and_libraries_2019.5.281/linux/mkl/lib/intel64/libmkl_intel_lp64.so
                   /shared/ucl/apps/intel/2019.Update5/compilers_and_libraries_2019.5.281/linux/mkl/lib/intel64/libmkl_sequential.so
                   /shared/ucl/apps/intel/2019.Update5/compilers_and_libraries_2019.5.281/linux/mkl/lib/intel64/libmkl_core.so
                   /shared/ucl/apps/intel/2019.Update5/compilers_and_libraries_2019.5.281/linux/mkl/lib/intel64/libmkl_blacs_intelmpi_lp64.so
                   /shared/ucl/apps/intel/2019.Update5/compilers_and_libraries_2019.5.281/linux/mkl/lib/intel64/libmkl_scalapack_lp64.so

  Using       24 parallel tasks.
  Task        0 on host node-k98e-003 reporting.
  Task        1 on host node-k98e-003 reporting.
  Task        2 on host node-k98e-003 reporting.
  Task        3 on host node-k98e-003 reporting.
  Task        4 on host node-k98e-003 reporting.
  Task        5 on host node-k98e-003 reporting.
  Task        6 on host node-k98e-003 reporting.
  Task        7 on host node-k98e-003 reporting.
  Task        8 on host node-k98e-003 reporting.
  Task        9 on host node-k98e-003 reporting.
  Task       10 on host node-k98e-003 reporting.
  Task       11 on host node-k98e-003 reporting.
  Task       12 on host node-k98e-003 reporting.
  Task       13 on host node-k98e-003 reporting.
  Task       14 on host node-k98e-003 reporting.
  Task       15 on host node-k98e-003 reporting.
  Task       16 on host node-k98e-003 reporting.
  Task       17 on host node-k98e-003 reporting.
  Task       18 on host node-k98e-003 reporting.
  Task       19 on host node-k98e-003 reporting.
  Task       20 on host node-k98e-003 reporting.
  Task       21 on host node-k98e-003 reporting.
  Task       22 on host node-k98e-003 reporting.
  Task       23 on host node-k98e-003 reporting.

  Performing system and environment tests:
  | Environment variable OMP_NUM_THREADS correctly set to 1.
  | Checking for ScaLAPACK...
  | Testing pdtran()...
  | All pdtran() tests passed.

  Obtaining array dimensions for all initial allocations:
  
  -----------------------------------------------------------------------
  Parsing control.in (first pass over file, find array dimensions only).
  The contents of control.in will be repeated verbatim below
  unless switched off by setting 'verbatim_writeout .false.' .
  in the first line of control.in .
  -----------------------------------------------------------------------
  
  #########################################################################################  Physical model
  #########################################################################################
  xc                 pbesol
  spin               none
  relativistic       atomic_zora scalar
  charge             0.0
  #  SCF convergence
  occupation_type    gaussian 0.01
  mixer              pulay
  n_max_pulay        10
  charge_mix_param   0.5
  sc_accuracy_rho    1E-5
  sc_accuracy_eev    1E-3
  sc_accuracy_etot   1E-6
  sc_accuracy_forces 1E-4
  sc_iter_limit      1500
  #  Relaxation
  #relax_geometry   bfgs 1.e-3
  
  ################################################################################
  #
  #  FHI-aims code project
  #  VB, Fritz-Haber Institut, 2009
  #
  #  Suggested "light" defaults for Al atom (to be pasted into control.in file)
  #  Be sure to double-check any results obtained with these settings for post-processing,
  #  e.g., with the "tight" defaults and larger basis sets.
  #
  ################################################################################
    species        Al
  #     global species definitions
      nucleus             13
      mass                26.9815386
  #
      l_hartree           4
  #
      cut_pot             3.5          1.5  1.0
      basis_dep_cutoff    1e-4
  #
      radial_base         41 5.0
      radial_multiplier   1
      angular_grids       specified
        division   0.6594  110
        division   0.8170  194
        division   0.9059  302
  #      division   1.0363  434
  #      division   1.1443  590
  #      division   1.2621  770
  #      division   2.8177  974
  #      outer_grid   974
        outer_grid   302
  ################################################################################
  #
  #  Definition of "minimal" basis
  #
  ################################################################################
  #     valence basis states
      valence      3  s   2.
      valence      3  p   1.
  #     ion occupancy
      ion_occ      3  s   1.
      ion_occ      2  p   6.
  ################################################################################
  #
  #  Suggested additional basis functions. For production calculations,
  #  uncomment them one after another (the most important basis functions are
  #  listed first).
  #
  #  Constructed for dimers: 2.0 A, 2.5 A, 3.0 A, 3.75 A, 4.5 A
  #
  ################################################################################
  #  "First tier" - improvements: -199.47 meV to -10.63 meV
       ionic 3 d auto
       ionic 3 p auto
  #     hydro 4 f 4.7
       ionic 3 s auto
  #  "Second tier" - improvements: -5.35 meV to -1.57 meV
  #     hydro 5 g 7
  #     hydro 3 d 6
  #     hydro 2 s 11.6
  #     hydro 2 p 0.9
  #  "Third tier" - improvements: -0.63 meV to -0.20 meV
  #     hydro 5 f 7.6
  #     hydro 4 p 7.2
  #     hydro 4 s 3.7
  #     hydro 4 d 7.6
  #  "Fourth tier" - improvements: -0.17 meV to -0.08 meV
  #     hydro 4 d 13.6
  #     hydro 5 g 11.2
  #     hydro 4 d 0.9
  #     hydro 1 s 0.4
  #     hydro 4 p 0.1
  #     hydro 5 f 9.8
  #  Further basis functions that fell out of the optimization - noise level...
  #     hydro 4 p 5
  
  ################################################################################
  #
  #  FHI-aims code project
  #  VB, Fritz-Haber Institut, 2009
  #
  #  Suggested "light" defaults for F atom (to be pasted into control.in file)
  #  Be sure to double-check any results obtained with these settings for post-processing,
  #  e.g., with the "tight" defaults and larger basis sets.
  #
  ################################################################################
    species        F
  #     global species definitions
      nucleus             9
      mass                18.9984032
  #
      l_hartree           4
  #
      cut_pot             3.5  1.5  1.0
      basis_dep_cutoff    1e-4
  #
      radial_base         37 5.0
      radial_multiplier   1
      angular_grids specified
        division   0.4014  110
        division   0.5291  194
        division   0.6019  302
  #      division   0.6814  434
  #      division   0.7989  590
  #      division   0.8965  770
  #      division   1.3427  974
  #      outer_grid   974
        outer_grid   302
  ################################################################################
  #
  #  Definition of "minimal" basis
  #
  ################################################################################
  #     valence basis states
      valence      2  s   2.
      valence      2  p   5.
  #     ion occupancy
      ion_occ      2  s   1.
      ion_occ      2  p   4.
  ################################################################################
  #
  #  Suggested additional basis functions. For production calculations,
  #  uncomment them one after another (the most important basis functions are
  #  listed first).
  #
  #  Constructed for dimers: 1.2 A, 1.418 A, 1.75 A, 2.25 A, 3.25 A
  #
  ################################################################################
  #  "First tier" - improvements: -149.44 meV to -45.88 meV
       hydro 2 p 1.7
       hydro 3 d 7.4
       hydro 3 s 6.8
  #  "Second tier" - improvements: -12.96 meV to -1.56 meV
  #     hydro 4 f 11.2
  #     ionic 2 p auto
  #     hydro 1 s 0.75
  #     hydro 4 d 8.8
  #     hydro 5 g 16.8
  #  "Third tier" - improvements: -0.58 meV to -0.05 meV
  #     hydro 3 p 6.2
  #     hydro 3 s 3.2
  #     hydro 4 f 9.6
  #     hydro 3 s 19.6
  #     hydro 4 d 8.6
  #     hydro 5 g 14.4
  # Further basis functions: -0.05 meV and below
  #     hydro 3 p 4.2
  
  -----------------------------------------------------------------------
  Completed first pass over input file control.in .
  -----------------------------------------------------------------------
  
  
  -----------------------------------------------------------------------
  Parsing geometry.in (first pass over file, find array dimensions only).
  The contents of geometry.in will be repeated verbatim below
  unless switched off by setting 'verbatim_writeout .false.' .
  in the first line of geometry.in .
  -----------------------------------------------------------------------
  
  atom 1.294498262 0.035106316 2.437563637 Al
  atom 1.276784000 1.189243000 -0.083083000 Al
  atom -0.330963385 0.849625964 -2.315976473 Al
  atom -1.724398604 -0.307102144 -2.190280277 F
  atom 2.117217192 -0.325558754 0.764181113 F
  atom 0.091272984 1.772039454 -3.819786994 F
  atom -0.332167026 1.982062081 -0.791266095 F
  atom 2.587876553 2.420946509 -0.320355444 F
  atom 1.221727423 0.008133728 -1.595304177 F
  atom 0.401469671 1.496317023 1.597510302 F
  atom 2.502224530 0.643958219 3.646395009 F
  atom 0.074399959 -1.263444859 2.784846786 F
  
  -----------------------------------------------------------------------
  Completed first pass over input file geometry.in .
  -----------------------------------------------------------------------
  

  Basic array size parameters:
  | Number of species                 :        2
  | Number of atoms                   :       12
  | Max. basis fn. angular momentum   :        2
  | Max. atomic/ionic basis occupied n:        3
  | Max. number of basis fn. types    :        3
  | Max. radial fns per species/type  :        5
  | Max. logarithmic grid size        :     1340
  | Max. radial integration grid size :       41
  | Max. angular integration grid size:      302
  | Max. angular grid division number :        8
  | Radial grid for Hartree potential :     1340
  | Number of spin channels           :        1

------------------------------------------------------------
          Reading file control.in.
------------------------------------------------------------
  XC: Using PBEsol gradient-corrected functionals.
  Spin treatment: No spin polarisation.
  Scalar relativistic treatment of kinetic energy: on-site free-atom approximation to ZORA.
  Charge =   0.000000E+00: Neutral system requested explicitly.
  Occupation type: Gaussian broadening, width =   0.100000E-01 eV.
  Using pulay charge density mixing.
  Pulay mixing - number of memorized iterations:   10
  Charge density mixing - mixing parameter:     0.5000
  Convergence accuracy of self-consistent charge density:  0.1000E-04
  Convergence accuracy of sum of eigenvalues:  0.1000E-02
  Convergence accuracy of total energy:  0.1000E-05
  Convergence accuracy of forces:  0.1000E-03
  Maximum number of s.-c. iterations  :  1500
 
  Reading configuration options for species Al                  .
  | Found nuclear charge :  13.0000
  | Found atomic mass :    26.9815386000000      amu
  | Found l_max for Hartree potential  :   4
  | Found cutoff potl. onset [A], width [A], scale factor :    3.50000    1.50000    1.00000
  | Threshold for basis-dependent cutoff potential is   0.100000E-03
  | Found data for basic radial integration grid :    41 points, outermost radius =    5.000 A
  | Found multiplier for basic radial grid :   1
  | Found angular grid specification: user-specified.
  | Specified grid contains     4 separate shells.
  | Check grid settings after all constraints further below.
  | Found free-atom valence shell :  3 s   2.000
  | Found free-atom valence shell :  3 p   1.000
  | Found free-ion valence shell :  3 s   1.000
  | Found free-ion valence shell :  2 p   6.000
  | Found ionic basis function :  3 d , default cutoff radius.
  | Found ionic basis function :  3 p , default cutoff radius.
  | Found ionic basis function :  3 s , default cutoff radius.
  Species Al                  : Missing cutoff potential type.
  Defaulting to exp(1/x)/(1-x)^2 type cutoff potential.
  Species Al: No 'logarithmic' tag. Using default grid for free atom:
  | Default logarithmic grid data [bohr] : 0.1000E-03 0.1000E+03 0.1012E+01
  | Will include ionic basis functions of  2.0-fold positive Al                   ion.
  Species Al: On-site basis accuracy parameter (for Gram-Schmidt orthonormalisation) not specified.
  Using default value basis_acc =  0.1000000E-03.
  Species Al                  : Using default innermost maximum threshold i_radial=  2 for radial functions.
  Species Al                  : Default cutoff onset for free atom density etc. : 0.35000000E+01 AA.
  Species Al                  : Basic radial grid will be enhanced according to radial_multiplier =   1, to contain    41 grid points.
 
  Reading configuration options for species F                   .
  | Found nuclear charge :   9.0000
  | Found atomic mass :    18.9984032000000      amu
  | Found l_max for Hartree potential  :   4
  | Found cutoff potl. onset [A], width [A], scale factor :    3.50000    1.50000    1.00000
  | Threshold for basis-dependent cutoff potential is   0.100000E-03
  | Found data for basic radial integration grid :    37 points, outermost radius =    5.000 A
  | Found multiplier for basic radial grid :   1
  | Found angular grid specification: user-specified.
  | Specified grid contains     4 separate shells.
  | Check grid settings after all constraints further below.
  | Found free-atom valence shell :  2 s   2.000
  | Found free-atom valence shell :  2 p   5.000
  | Found free-ion valence shell :  2 s   1.000
  | Found free-ion valence shell :  2 p   4.000
  | Found hydrogenic basis function :  2 p   1.700
  | Found hydrogenic basis function :  3 d   7.400
  | Found hydrogenic basis function :  3 s   6.800
  Species F                   : Missing cutoff potential type.
  Defaulting to exp(1/x)/(1-x)^2 type cutoff potential.
  Species F : No 'logarithmic' tag. Using default grid for free atom:
  | Default logarithmic grid data [bohr] : 0.1000E-03 0.1000E+03 0.1012E+01
  Species F : On-site basis accuracy parameter (for Gram-Schmidt orthonormalisation) not specified.
  Using default value basis_acc =  0.1000000E-03.
  Species F                   : Using default innermost maximum threshold i_radial=  2 for radial functions.
  Species F                   : Default cutoff onset for free atom density etc. : 0.35000000E+01 AA.
  Species F                   : Basic radial grid will be enhanced according to radial_multiplier =   1, to contain    37 grid points.
 
  Finished reading input file 'control.in'.
 
------------------------------------------------------------


------------------------------------------------------------
          Reading geometry description geometry.in.
------------------------------------------------------------
  | The smallest distance between any two atoms is         1.81399456 AA.
  | The first atom of this pair is atom number                      3 .
  | The second atom of this pair is atom number                     6 .
  Input structure read successfully.
  The structure contains       12 atoms,  and a total of        120.000 electrons.

  Input geometry:
  | No unit cell requested.
  | Atomic structure:
  |       Atom                x [A]            y [A]            z [A]
  |    1: Species Al            1.29449826        0.03510632        2.43756364
  |    2: Species Al            1.27678400        1.18924300       -0.08308300
  |    3: Species Al           -0.33096338        0.84962596       -2.31597647
  |    4: Species F            -1.72439860       -0.30710214       -2.19028028
  |    5: Species F             2.11721719       -0.32555875        0.76418111
  |    6: Species F             0.09127298        1.77203945       -3.81978699
  |    7: Species F            -0.33216703        1.98206208       -0.79126610
  |    8: Species F             2.58787655        2.42094651       -0.32035544
  |    9: Species F             1.22172742        0.00813373       -1.59530418
  |   10: Species F             0.40146967        1.49631702        1.59751030
  |   11: Species F             2.50222453        0.64395822        3.64639501
  |   12: Species F             0.07439996       -1.26344486        2.78484679

 
  Finished reading input file 'control.in'.
 

------------------------------------------------------------
          Reading geometry description geometry.in.
------------------------------------------------------------
 
  Consistency checks for stacksize environment parameter are next.
 
  | Maximum stacksize for task 0: unlimited
  | Maximum stacksize for task 1: unlimited
  | Maximum stacksize for task 2: unlimited
  | Maximum stacksize for task 3: unlimited
  | Maximum stacksize for task 4: unlimited
  | Maximum stacksize for task 5: unlimited
  | Maximum stacksize for task 6: unlimited
  | Maximum stacksize for task 7: unlimited
  | Maximum stacksize for task 8: unlimited
  | Maximum stacksize for task 9: unlimited
  | Maximum stacksize for task 10: unlimited
  | Maximum stacksize for task 11: unlimited
  | Maximum stacksize for task 12: unlimited
  | Maximum stacksize for task 13: unlimited
  | Maximum stacksize for task 14: unlimited
  | Maximum stacksize for task 15: unlimited
  | Maximum stacksize for task 16: unlimited
  | Maximum stacksize for task 17: unlimited
  | Maximum stacksize for task 18: unlimited
  | Maximum stacksize for task 19: unlimited
  | Maximum stacksize for task 20: unlimited
  | Maximum stacksize for task 21: unlimited
  | Maximum stacksize for task 22: unlimited
  | Maximum stacksize for task 23: unlimited
  | Current stacksize for task 0: unlimited
  | Current stacksize for task 1: unlimited
  | Current stacksize for task 2: unlimited
  | Current stacksize for task 3: unlimited
  | Current stacksize for task 4: unlimited
  | Current stacksize for task 5: unlimited
  | Current stacksize for task 6: unlimited
  | Current stacksize for task 7: unlimited
  | Current stacksize for task 8: unlimited
  | Current stacksize for task 9: unlimited
  | Current stacksize for task 10: unlimited
  | Current stacksize for task 11: unlimited
  | Current stacksize for task 12: unlimited
  | Current stacksize for task 13: unlimited
  | Current stacksize for task 14: unlimited
  | Current stacksize for task 15: unlimited
  | Current stacksize for task 16: unlimited
  | Current stacksize for task 17: unlimited
  | Current stacksize for task 18: unlimited
  | Current stacksize for task 19: unlimited
  | Current stacksize for task 20: unlimited
  | Current stacksize for task 21: unlimited
  | Current stacksize for task 22: unlimited
  | Current stacksize for task 23: unlimited
 
  Consistency checks for the contents of control.in are next.
 
  MPI_IN_PLACE appears to work with this MPI implementation.
  | Keeping use_mpi_in_place .true. (see manual).
  Target number of points in a grid batch is not set. Defaulting to  100
  Method for grid partitioning is not set. Defaulting to parallel hash+maxmin partitioning.
  Batch size limit is not set. Defaulting to    200
  By default, will store active basis functions for each batch.
  If in need of memory, prune_basis_once .false. can be used to disable this option.
  communication_type for Hartree potential was not specified.
  Defaulting to calc_hartree .
  Pulay mixer: Number of initial linear mixing iterations not set.
  Defaulting to    0 iterations.
  Work space size for distributed Hartree potential not set.
  Defaulting to   0.200000E+03 MB.
  Algorithm-dependent basis array size parameters:
  | n_max_pulay                         :       10
  Presetting      1001 iterations before the initial mixing cycle
  is restarted anyway using the sc_init_iter criterion / keyword.
  Presetting a factor      1.000 between actual scf density residual
  and density convergence criterion sc_accuracy_rho below which sc_init_iter
  takes no effect.
  Geometry relaxation not requested: no relaxation will be performed.
  Forces evaluation will include force correction term due to incomplete self-consistency (default).
  Handling of forces: Unphysical translation and rotation will be removed from forces.
  No accuracy limit for integral partition fn. given. Defaulting to  0.1000E-14.
  No threshold value for u(r) in integrations given. Defaulting to  0.1000E-05.
  No accuracy for occupation numbers given. Defaulting to  0.1000E-12.
  No threshold value for occupation numbers given. Defaulting to  0.0000E+00.
  No accuracy for fermi level given. Defaulting to  0.1000E-19.
  Maximum # of iterations to find E_F not set. Defaulting to  200.
  Preferred method for the eigenvalue solver ('KS_method') not specified in 'control.in'.
  Calling BLACS routine to test compilation state
  Since ScaLAPACK support is enabled, defaulting to ELPA (via ELSI).
  Will not use alltoall communication since running on < 1024 CPUs.
  Threshold for basis singularities not set.
  Default threshold for basis singularities:  0.1000E-04
  partition_type (choice of integration weights) for integrals was not specified.
  | Using a version of the partition function of Stratmann and coworkers ('stratmann_sparse').
  | At each grid point, the set of atoms used to build the partition table is smoothly restricted to
  | only those atoms whose free-atom density would be non-zero at that grid point.
  Partitioning for Hartree potential was not defined. Using partition_type for integrals.
  | Adjusted default value of keyword multip_moments_threshold to:       0.10000000E-11
  | This value may affect high angular momentum components of the Hartree potential in periodic systems.
  No q(lm)/r^(l+1) cutoff set for long-range Hartree potential.
  | Using default value of  0.100000E-09 .
  | Verify using the multipole_threshold keyword.
  Defaulting to new monopole extrapolation.
  Density update method: automatic selection selected.
  Charge integration errors on the 3D integration grid will be compensated
  by explicit normalization and distribution of residual charges.
  Use the "compensate_multipole_errors" flag to change this behaviour.
  Set 'collect_eigenvectors' to be '.true.' for use_density_matrix .false.
 
  Consistency checks for the contents of geometry.in are next.
 
  Number of empty states per atom not set in control.in - providing a guess from actual geometry.
  | Total number of empty states used during s.c.f. cycle:       36
  If you use a very high smearing, use empty_states (per atom!) in control.in to increase this value.

  Structure-dependent array size parameters: 
  | Maximum number of distinct radial functions  :       14
  | Maximum number of basis functions            :      180
  | Number of Kohn-Sham states (occupied + empty):       96
------------------------------------------------------------

------------------------------------------------------------
          Preparing all fixed parts of the calculation.
------------------------------------------------------------
  Determining machine precision:
    2.225073858507201E-308
  Setting up grids for atomic and cluster calculations.

  Creating wave function, potential, and density for free atoms.

  Species: Al

  List of occupied orbitals and eigenvalues:
    n    l              occ      energy [Ha]    energy [eV]
    1    0           2.0000       -55.621123     -1513.5278
    2    0           2.0000        -3.957030      -107.6763
    3    0           2.0000        -0.272233        -7.4078
    2    1           6.0000        -2.540949       -69.1427
    3    1           1.0000        -0.083300        -2.2667


  Species: F

  List of occupied orbitals and eigenvalues:
    n    l              occ      energy [Ha]    energy [eV]
    1    0           2.0000       -24.399611      -663.9472
    2    0           2.0000        -1.098702       -29.8972
    2    1           5.0000        -0.408210       -11.1080


  Adding cutoff potential to free-atom effective potential.
  Creating fixed part of basis set: Ionic, confined, hydrogenic.
 
  Al                   ion:

  List of free ionic orbitals and eigenvalues:
    n    l      energy [Ha]    energy [eV]
    1    0       -56.418846     -1535.2349
    2    0        -4.732717      -128.7838
    3    0        -0.872690       -23.7471
    2    1        -3.317230       -90.2664


  List of ionic basis orbitals and eigenvalues:
    n    l      energy [Ha]    energy [eV]    outer radius [A]
    3    2        -0.346815        -9.4373       4.594041
    3    1        -0.631870       -17.1940       4.538221
    3    0        -0.872657       -23.7462       4.538221

 
  F                    hydrogenic:
 
  List of hydrogenic basis orbitals: 
    n    l      effective z      eigenvalue [eV]  inner max. [A]     outer max. [A]     outer radius [A]   
    2    1         1.700000        -9.7616           1.243167           1.243167           4.598524
    3    2         7.400000       -82.7828           0.642437           0.642437           3.305741
    3    0         6.800000       -69.9026           0.057798           1.022307           3.781556
 
  Creating atomic-like basis functions for current effective potential.

  Species Al                  :

  List of atomic basis orbitals and eigenvalues:
    n    l      energy [Ha]    energy [eV]    outer radius [A]
    1    0       -55.621123     -1513.5278       0.850197
    2    0        -3.957030      -107.6763       3.144911
    3    0        -0.272233        -7.4078       4.594041
    2    1        -2.540949       -69.1427       3.731966
    3    1        -0.083300        -2.2667       4.594041


  Species F                   :

  List of atomic basis orbitals and eigenvalues:
    n    l      energy [Ha]    energy [eV]    outer radius [A]
    1    0       -24.399611      -663.9472       1.258458
    2    0        -1.098702       -29.8972       4.325857
    2    1        -0.408210       -11.1080       4.487453

  Assembling full basis from fixed parts.
  | Species Al :   atomic orbital   1 s accepted.
  | Species Al :   atomic orbital   2 s accepted.
  | Species Al :    ionic orbital   3 s accepted.
  | Species Al :   atomic orbital   3 s accepted.
  | Species Al :   atomic orbital   2 p accepted.
  | Species Al :    ionic orbital   3 p accepted.
  | Species Al :   atomic orbital   3 p accepted.
  | Species Al :    ionic orbital   3 d accepted.
  | Species F :   atomic orbital   1 s accepted.
  | Species F :    hydro orbital   3 s accepted.
  | Species F :   atomic orbital   2 s accepted.
  | Species F :   atomic orbital   2 p accepted.
  | Species F :    hydro orbital   2 p accepted.
  | Species F :    hydro orbital   3 d accepted.
 
  Basis size parameters after reduction:
  | Total number of radial functions:       14
  | Total number of basis functions :      180
 
  Per-task memory consumption for arrays in subroutine allocate_ext:
  |           4.807768MB.
  Testing on-site integration grid accuracy.
  |  Species  Function  <phi|h_atom|phi> (log., in eV)  <phi|h_atom|phi> (rad., in eV)
           1        1              -1513.5277717935              -1513.5271881332
           1        2               -107.6762691836               -107.6762662489
           1        3                 -6.9467474784                 -6.9471269649
           1        4                  5.5771951849                  5.4862107220 ***
           1        5                -69.1427313144                -69.1427312731
           1        6                 -1.5197375330                 -1.5230432022
           1        7                  6.8210948310                  6.5529872240 ***
           1        8                  4.3216540965                  4.2851170187 ***
           2        9               -663.9471986398               -663.9470363334
           2       10                 16.8514011578                 16.8512525338
           2       11                -28.4490593856                -28.4490661472
           2       12                -11.1080115307                -11.1080620173
           2       13                  7.1940182175                  7.1685154137
           2       14                 44.8544281765                 44.8543763625
 * Note: Onsite integrals marked "***" above are less accurate than
 * onsite_accuracy_threshold =    0.03000 eV. Usually, this is harmless.
 * When in doubt, tighten the "radial" and/or "radial_multiplier" flags to check.

  Preparing densities etc. for the partition functions (integrals / Hartree potential).

  Preparations completed.
  max(cpu_time)          :      0.184 s.
  Wall clock time (cpu1) :      0.184 s.
------------------------------------------------------------

------------------------------------------------------------
          Begin self-consistency loop: Initialization.

          Date     :  20220517, Time     :  105652.006
------------------------------------------------------------

  Initializing index lists of integration centers etc. from given atomic structure:
  | Number of centers in hartree potential         :        12
  | Number of centers in hartree multipole         :        12
  | Number of centers in electron density summation:        12
  | Number of centers in basis integrals           :        12
  | Number of centers in integrals                 :        12
  | Number of centers in hamiltonian               :        12
  * Using 24 tasks for Scalapack Eigenvalue solver.
  Detailed listing of tasks and assigned k-points:
  (for non-periodic systems, the "k-point" denotes an internal label only)
   Task     0 k-point     1 on node-k98e-003
   Task     1 k-point     1 on node-k98e-003
   Task     2 k-point     1 on node-k98e-003
   Task     3 k-point     1 on node-k98e-003
   Task     4 k-point     1 on node-k98e-003
   Task     5 k-point     1 on node-k98e-003
   Task     6 k-point     1 on node-k98e-003
   Task     7 k-point     1 on node-k98e-003
   Task     8 k-point     1 on node-k98e-003
   Task     9 k-point     1 on node-k98e-003
   Task    10 k-point     1 on node-k98e-003
   Task    11 k-point     1 on node-k98e-003
   Task    12 k-point     1 on node-k98e-003
   Task    13 k-point     1 on node-k98e-003
   Task    14 k-point     1 on node-k98e-003
   Task    15 k-point     1 on node-k98e-003
   Task    16 k-point     1 on node-k98e-003
   Task    17 k-point     1 on node-k98e-003
   Task    18 k-point     1 on node-k98e-003
   Task    19 k-point     1 on node-k98e-003
   Task    20 k-point     1 on node-k98e-003
   Task    21 k-point     1 on node-k98e-003
   Task    22 k-point     1 on node-k98e-003
   Task    23 k-point     1 on node-k98e-003
  Tasks:    24 split into      6 X      4 BLACS grid
  Calculating block size based on n_basis =          180  max_nprow =            6  max_npcol =            4
  ScaLAPACK block size set to:           16
  Allocating        0.012 MB for ovlp
  Allocating        0.012 MB for ham
  Allocating        0.012 MB for eigenvec
  Required Scalapack workspace - INTEGER:            1  REAL:             1
  Partitioning the integration grid into batches with parallel hashing+maxmin method.
  | Number of batches:     1050
  | Maximal batch size:     200
  | Minimal batch size:      18
  | Average batch size:      87.543
  | Standard deviation of batch sizes:      27.232

  Integration load balanced across    24 MPI tasks.
  Work distribution over tasks is as follows:
  Task     0 has       3791 integration points.
  Task     1 has       3877 integration points.
  Task     2 has       3769 integration points.
  Task     3 has       3881 integration points.
  Task     4 has       3787 integration points.
  Task     5 has       3781 integration points.
  Task     6 has       3857 integration points.
  Task     7 has       3816 integration points.
  Task     8 has       3813 integration points.
  Task     9 has       3860 integration points.
  Task    10 has       3893 integration points.
  Task    11 has       3876 integration points.
  Task    12 has       3799 integration points.
  Task    13 has       3785 integration points.
  Task    14 has       3899 integration points.
  Task    15 has       3879 integration points.
  Task    16 has       3888 integration points.
  Task    17 has       3814 integration points.
  Task    18 has       3787 integration points.
  Task    19 has       3809 integration points.
  Task    20 has       3861 integration points.
  Task    21 has       3818 integration points.
  Task    22 has       3778 integration points.
  Task    23 has       3802 integration points.
  Initializing partition tables, free-atom densities, potentials, etc. across the integration grid (initialize_grid_storage).
  | initialize_grid_storage: Actual outermost partition radius vs. multipole_radius_free
  | (-- VB: in principle, multipole_radius_free should be larger, hence this output)
  | Species        1: Confinement radius =              4.999999999999999 AA, multipole_radius_free =              5.004487022111096 AA.
  | Species        1: outer_partition_radius set to              5.004487022111096 AA .
  | Species        2: Confinement radius =              4.999999999999999 AA, multipole_radius_free =              5.009370088163274 AA.
  | Species        2: outer_partition_radius set to              5.009370088163274 AA .
  | The sparse table of interatomic distances needs          1.64 kbyte instead of         1.15 kbyte of memory.
  | Using the partition_type stratmann_smoother will reduce your memory usage.
  | Net number of integration points:    91920
  | of which are non-zero points    :    85868
  Renormalizing the initial density to the exact electron count on the 3D integration grid.
  | Initial density: Formal number of electrons (from input files) :     120.0000000000
  | Integrated number of electrons on 3D grid     :     119.9998949803
  | Charge integration error                      :      -0.0001050197
  | Normalization factor for density and gradient :       1.0000008752
  Renormalizing the free-atom superposition density to the exact electron count on the 3D integration grid.
  | Formal number of electrons (from input files) :     120.0000000000
  | Integrated number of electrons on 3D grid     :     119.9998949803
  | Charge integration error                      :      -0.0001050197
  | Normalization factor for density and gradient :       1.0000008752
  Obtaining max. number of non-zero basis functions in each batch (get_n_compute_maxes).
  | Maximal number of non-zero basis functions:      161 in task     0
  | Maximal number of non-zero basis functions:      159 in task     1
  | Maximal number of non-zero basis functions:      159 in task     2
  | Maximal number of non-zero basis functions:      164 in task     3
  | Maximal number of non-zero basis functions:      164 in task     4
  | Maximal number of non-zero basis functions:      166 in task     5
  | Maximal number of non-zero basis functions:      161 in task     6
  | Maximal number of non-zero basis functions:      165 in task     7
  | Maximal number of non-zero basis functions:      163 in task     8
  | Maximal number of non-zero basis functions:      161 in task     9
  | Maximal number of non-zero basis functions:      164 in task    10
  | Maximal number of non-zero basis functions:      149 in task    11
  | Maximal number of non-zero basis functions:      160 in task    12
  | Maximal number of non-zero basis functions:      159 in task    13
  | Maximal number of non-zero basis functions:      160 in task    14
  | Maximal number of non-zero basis functions:      158 in task    15
  | Maximal number of non-zero basis functions:      163 in task    16
  | Maximal number of non-zero basis functions:      159 in task    17
  | Maximal number of non-zero basis functions:      159 in task    18
  | Maximal number of non-zero basis functions:      165 in task    19
  | Maximal number of non-zero basis functions:      160 in task    20
  | Maximal number of non-zero basis functions:      160 in task    21
  | Maximal number of non-zero basis functions:      161 in task    22
  | Maximal number of non-zero basis functions:      160 in task    23
  Selecting the method for density update.
  Loop over occupied states selected for charge density update.
  Allocating        0.132 MB for KS_eigenvector
  Integrating Hamiltonian matrix: batch-based integration.
  Time summed over all CPUs for integration: real work        0.684 s, elapsed        0.736 s
  Integrating overlap matrix.
  Time summed over all CPUs for integration: real work        0.264 s, elapsed        0.282 s
  Deallocating overlap matrix.

  Updating Kohn-Sham eigenvalues and eigenvectors using ELSI and the ELPA eigensolver.
  Overlap matrix is not singular
  | Lowest and highest eigenvalues :  0.3409E-02,  0.4863E+01
  Finished singularity check of overlap matrix
  | Time :     0.004 s
  Starting ELPA eigensolver
  Finished Cholesky decomposition
  | Time :     0.002 s
  Finished transformation to standard eigenproblem
  | Time :     0.000 s
  Finished solving standard eigenproblem
  | Time :     0.004 s
  Finished back-transformation of eigenvectors
  | Time :     0.000 s

  Obtaining occupation numbers and chemical potential using ELSI.
  | Chemical potential (Fermi level):    -7.64283069 eV
  Writing Kohn-Sham eigenvalues.

  State    Occupation    Eigenvalue [Ha]    Eigenvalue [eV]
      1       2.00000         -55.485792        -1509.84521
      2       2.00000         -55.484024        -1509.79712
      3       2.00000         -55.484024        -1509.79712
      4       2.00000         -24.359762         -662.86286
      5       2.00000         -24.359762         -662.86286
      6       2.00000         -24.359753         -662.86261
      7       2.00000         -24.359753         -662.86261
      8       2.00000         -24.340801         -662.34688
      9       2.00000         -24.340801         -662.34688
     10       2.00000         -24.340757         -662.34570
     11       2.00000         -24.340644         -662.34262
     12       2.00000         -24.340644         -662.34262
     13       2.00000          -3.951469         -107.52493
     14       2.00000          -3.949121         -107.46106
     15       2.00000          -3.949120         -107.46103
     16       2.00000          -2.544009          -69.22600
     17       2.00000          -2.543277          -69.20609
     18       2.00000          -2.542814          -69.19348
     19       2.00000          -2.541561          -69.15939
     20       2.00000          -2.541556          -69.15927
     21       2.00000          -2.541485          -69.15732
     22       2.00000          -2.541470          -69.15692
     23       2.00000          -2.539884          -69.11377
     24       2.00000          -2.539884          -69.11375
     25       2.00000          -1.190963          -32.40774
     26       2.00000          -1.181117          -32.13984
     27       2.00000          -1.178430          -32.06671
     28       2.00000          -1.170455          -31.84971
     29       2.00000          -1.150402          -31.30403
     30       2.00000          -1.150246          -31.29979
     31       2.00000          -1.149225          -31.27200
     32       2.00000          -1.148033          -31.23956
     33       2.00000          -1.148024          -31.23932
     34       2.00000          -0.556309          -15.13793
     35       2.00000          -0.549450          -14.95129
     36       2.00000          -0.539158          -14.67123
     37       2.00000          -0.533134          -14.50732
     38       2.00000          -0.515123          -14.01721
     39       2.00000          -0.504726          -13.73428
     40       2.00000          -0.497113          -13.52714
     41       2.00000          -0.495822          -13.49201
     42       2.00000          -0.493342          -13.42451
     43       2.00000          -0.487095          -13.25452
     44       2.00000          -0.485792          -13.21907
     45       2.00000          -0.483042          -13.14424
     46       2.00000          -0.480286          -13.06925
     47       2.00000          -0.476977          -12.97920
     48       2.00000          -0.475928          -12.95066
     49       2.00000          -0.472265          -12.85099
     50       2.00000          -0.466284          -12.68823
     51       2.00000          -0.455388          -12.39174
     52       2.00000          -0.454890          -12.37818
     53       2.00000          -0.453818          -12.34902
     54       2.00000          -0.451949          -12.29816
     55       2.00000          -0.451086          -12.27467
     56       2.00000          -0.450295          -12.25315
     57       2.00000          -0.448657          -12.20858
     58       2.00000          -0.448124          -12.19407
     59       2.00000          -0.447639          -12.18087
     60       2.00000          -0.446442          -12.14830
     61       0.00000          -0.136236           -3.70717
     62       0.00000          -0.107173           -2.91634
     63       0.00000          -0.060983           -1.65943
     64       0.00000          -0.027036           -0.73569
     65       0.00000          -0.021468           -0.58416
     66       0.00000          -0.006823           -0.18566
     67       0.00000          -0.005945           -0.16177
     68       0.00000           0.039247            1.06795
     69       0.00000           0.049073            1.33533
     70       0.00000           0.065463            1.78133
     71       0.00000           0.083445            2.27065
     72       0.00000           0.120364            3.27528
     73       0.00000           0.144195            3.92374
     74       0.00000           0.153078            4.16547
     75       0.00000           0.172304            4.68863
     76       0.00000           0.174479            4.74781
     77       0.00000           0.174817            4.75700
     78       0.00000           0.180484            4.91123
     79       0.00000           0.190867            5.19376
     80       0.00000           0.202392            5.50736
     81       0.00000           0.206610            5.62213
     82       0.00000           0.215064            5.85220
     83       0.00000           0.224755            6.11589
     84       0.00000           0.232731            6.33292
     85       0.00000           0.251296            6.83812
     86       0.00000           0.267664            7.28352
     87       0.00000           0.269873            7.34363
     88       0.00000           0.273622            7.44564
     89       0.00000           0.281370            7.65647
     90       0.00000           0.292569            7.96121
     91       0.00000           0.294232            8.00647
     92       0.00000           0.304691            8.29108
     93       0.00000           0.337711            9.18957
     94       0.00000           0.347740            9.46249
     95       0.00000           0.363508            9.89157
     96       0.00000           0.373735           10.16985

  Highest occupied state (VBM) at    -12.14829756 eV
  | Occupation number:      2.00000000

  Lowest unoccupied state (CBM) at    -3.70717105 eV
  | Occupation number:      0.00000000

  Overall HOMO-LUMO gap:      8.44112651 eV.
  Calculating total energy contributions from superposition of free atom densities.

  Total energy components:
  | Sum of eigenvalues            :        -887.61839003 Ha      -24153.32530041 eV
  | XC energy correction          :        -144.33808533 Ha       -3927.63913779 eV
  | XC potential correction       :         187.93601276 Ha        5113.99910456 eV
  | Free-atom electrostatic energy:        -781.34421621 Ha      -21261.45789422 eV
  | Hartree energy correction     :           0.00000000 Ha           0.00000000 eV
  | Entropy correction            :           0.00000000 Ha           0.00000000 eV
  | ---------------------------
  | Total energy                  :       -1625.36467881 Ha      -44228.42322786 eV
  | Total energy, T -> 0          :       -1625.36467881 Ha      -44228.42322786 eV  <-- do not rely on this value for anything but (periodic) metals
  | Electronic free energy        :       -1625.36467881 Ha      -44228.42322786 eV

  Derived energy quantities:
  | Kinetic energy                :        1627.61635709 Ha       44289.69451125 eV
  | Electrostatic energy          :       -3108.64295058 Ha      -84590.47860132 eV
  | Energy correction for multipole
  | error in Hartree potential    :           0.00000000 Ha           0.00000000 eV
  | Sum of eigenvalues per atom                           :       -2012.77710837 eV
  | Total energy (T->0) per atom                          :       -3685.70193566 eV  <-- do not rely on this value for anything but (periodic) metals
  | Electronic free energy per atom                       :       -3685.70193566 eV
  Initialize hartree_potential_storage
  Max. number of atoms included in rho_multipole:           12

  End scf initialization - timings             :  max(cpu_time)    wall_clock(cpu1)
  | Time for scf. initialization                :        0.110 s           0.111 s
  | Boundary condition initialization           :        0.000 s           0.000 s
  | Integration                                 :        0.044 s           0.044 s
  | Solution of K.-S. eqns.                     :        0.011 s           0.011 s
  | Grid partitioning                           :        0.033 s           0.032 s
  | Preloading free-atom quantities on grid     :        0.015 s           0.017 s
  | Free-atom superposition energy              :        0.005 s           0.004 s
  | Total energy evaluation                     :        0.000 s           0.001 s

  Partial memory accounting:
  | Current value for overall tracked memory usage:
  |   Minimum:        0.273 MB (on task 23)
  |   Maximum:        0.292 MB (on task  0)
  |   Average:        0.287 MB
  | Peak value for overall tracked memory usage:
  |   Minimum:        1.262 MB (on task 11 after allocating wave)
  |   Maximum:        1.390 MB (on task  5 after allocating wave)
  |   Average:        1.349 MB
  | Largest tracked array allocation so far:
  |   Minimum:        0.227 MB (H_times_psi on task 11)
  |   Maximum:        0.436 MB (all_coords on task 10)
  |   Average:        0.268 MB
  Note:  These values currently only include a subset of arrays which are explicitly tracked.
  The "true" memory usage will be greater.
------------------------------------------------------------
  Evaluating new KS density.
  Integration grid: deviation in total charge (<rho> - N_e) =   1.421085E-14

  Time for density update prior                :  max(cpu_time)    wall_clock(cpu1)
  | self-consistency iterative process          :        0.027 s           0.027 s

------------------------------------------------------------
          Begin self-consistency iteration #    1

  Date     :  20220517, Time     :  105652.144
------------------------------------------------------------
  Pulay mixing of updated and previous charge densities.
  Renormalizing the density to the exact electron count on the 3D integration grid.
  | Formal number of electrons (from input files) :     120.0000000000
  | Integrated number of electrons on 3D grid     :     120.0000000000
  | Charge integration error                      :       0.0000000000
  | Normalization factor for density and gradient :       1.0000000000

  Evaluating partitioned Hartree potential by multipole expansion.
  | Original multipole sum: apparent total charge =   0.687999E-13
  | Sum of charges compensated after spline to logarithmic grids =   0.100280E-03
  | Analytical far-field extrapolation by fixed multipoles:
  | Hartree multipole sum: apparent total charge =   0.689229E-13
  Summing up the Hartree potential.
  Time summed over all CPUs for potential: real work        0.381 s, elapsed        0.397 s
  | RMS charge density error from multipole expansion :   0.106995E-01

  Integrating Hamiltonian matrix: batch-based integration.
  Time summed over all CPUs for integration: real work        0.635 s, elapsed        0.667 s

  Updating Kohn-Sham eigenvalues and eigenvectors using ELSI and the ELPA eigensolver.
  Starting ELPA eigensolver
  Finished transformation to standard eigenproblem
  | Time :     0.000 s
  Finished solving standard eigenproblem
  | Time :     0.003 s
  Finished back-transformation of eigenvectors
  | Time :     0.000 s

  Obtaining occupation numbers and chemical potential using ELSI.
  | Chemical potential (Fermi level):    -7.72525207 eV
  Writing Kohn-Sham eigenvalues.

  State    Occupation    Eigenvalue [Ha]    Eigenvalue [eV]
      1       2.00000         -55.656204        -1514.48236
      2       2.00000         -55.640985        -1514.06825
      3       2.00000         -55.640981        -1514.06812
      4       2.00000         -24.228976         -659.30398
      5       2.00000         -24.228974         -659.30394
      6       2.00000         -24.226852         -659.24617
      7       2.00000         -24.226845         -659.24600
      8       2.00000         -24.074276         -655.09437
      9       2.00000         -24.074274         -655.09432
     10       2.00000         -24.072025         -655.03312
     11       2.00000         -24.072021         -655.03303
     12       2.00000         -24.069157         -654.95509
     13       2.00000          -4.095791         -111.45213
     14       2.00000          -4.080400         -111.03334
     15       2.00000          -4.080395         -111.03320
     16       2.00000          -2.690050          -73.19999
     17       2.00000          -2.687849          -73.14008
     18       2.00000          -2.687468          -73.12972
     19       2.00000          -2.673971          -72.76245
     20       2.00000          -2.673965          -72.76230
     21       2.00000          -2.673585          -72.75196
     22       2.00000          -2.673581          -72.75185
     23       2.00000          -2.671561          -72.69688
     24       2.00000          -2.671554          -72.69669
     25       2.00000          -1.161597          -31.60867
     26       2.00000          -1.149895          -31.29023
     27       2.00000          -1.144412          -31.14103
     28       2.00000          -1.135096          -30.88753
     29       2.00000          -1.021600          -27.79915
     30       2.00000          -1.021560          -27.79807
     31       2.00000          -1.016761          -27.66747
     32       2.00000          -1.016738          -27.66686
     33       2.00000          -1.016417          -27.65812
     34       2.00000          -0.545135          -14.83387
     35       2.00000          -0.532813          -14.49859
     36       2.00000          -0.520092          -14.15241
     37       2.00000          -0.512958          -13.95830
     38       2.00000          -0.485584          -13.21342
     39       2.00000          -0.470540          -12.80404
     40       2.00000          -0.466632          -12.69769
     41       2.00000          -0.447260          -12.17056
     42       2.00000          -0.446294          -12.14428
     43       2.00000          -0.443411          -12.06583
     44       2.00000          -0.439295          -11.95383
     45       2.00000          -0.426322          -11.60082
     46       2.00000          -0.399745          -10.87761
     47       2.00000          -0.394356          -10.73097
     48       2.00000          -0.375935          -10.22970
     49       2.00000          -0.367276           -9.99409
     50       2.00000          -0.367239           -9.99308
     51       2.00000          -0.335856           -9.13909
     52       2.00000          -0.335417           -9.12716
     53       2.00000          -0.334385           -9.09909
     54       2.00000          -0.332793           -9.05576
     55       2.00000          -0.325543           -8.85849
     56       2.00000          -0.324699           -8.83552
     57       2.00000          -0.324191           -8.82168
     58       2.00000          -0.323264           -8.79646
     59       2.00000          -0.320987           -8.73451
     60       2.00000          -0.320532           -8.72211
     61       0.00000          -0.146021           -3.97343
     62       0.00000          -0.104140           -2.83379
     63       0.00000          -0.068562           -1.86566
     64       0.00000          -0.039803           -1.08311
     65       0.00000          -0.033308           -0.90636
     66       0.00000          -0.015130           -0.41171
     67       0.00000          -0.013522           -0.36794
     68       0.00000           0.026966            0.73379
     69       0.00000           0.033898            0.92241
     70       0.00000           0.061455            1.67229
     71       0.00000           0.063901            1.73883
     72       0.00000           0.107647            2.92921
     73       0.00000           0.137156            3.73220
     74       0.00000           0.144658            3.93634
     75       0.00000           0.169807            4.62068
     76       0.00000           0.172592            4.69646
     77       0.00000           0.176176            4.79398
     78       0.00000           0.180845            4.92105
     79       0.00000           0.195898            5.33065
     80       0.00000           0.196072            5.33539
     81       0.00000           0.202588            5.51270
     82       0.00000           0.213729            5.81586
     83       0.00000           0.216985            5.90446
     84       0.00000           0.226976            6.17632
     85       0.00000           0.240987            6.55760
     86       0.00000           0.249311            6.78409
     87       0.00000           0.253239            6.89099
     88       0.00000           0.256686            6.98479
     89       0.00000           0.264932            7.20916
     90       0.00000           0.273330            7.43769
     91       0.00000           0.296372            8.06468
     92       0.00000           0.307012            8.35421
     93       0.00000           0.323026            8.78999
     94       0.00000           0.358872            9.76540
     95       0.00000           0.369121           10.04430
     96       0.00000           0.372691           10.14143

  Highest occupied state (VBM) at     -8.72211202 eV
  | Occupation number:      2.00000000

  Lowest unoccupied state (CBM) at    -3.97343430 eV
  | Occupation number:      0.00000000

  Overall HOMO-LUMO gap:      4.74867772 eV.

  Total energy components:
  | Sum of eigenvalues            :        -882.34874517 Ha      -24009.93096800 eV
  | XC energy correction          :        -145.66135982 Ha       -3963.64726884 eV
  | XC potential correction       :         189.67556171 Ha        5161.33464004 eV
  | Free-atom electrostatic energy:        -781.34421621 Ha      -21261.45789422 eV
  | Hartree energy correction     :          -5.47873326 Ha        -149.08391738 eV
  | Entropy correction            :           0.00000000 Ha           0.00000000 eV
  | ---------------------------
  | Total energy                  :       -1625.15749275 Ha      -44222.78540840 eV
  | Total energy, T -> 0          :       -1625.15749275 Ha      -44222.78540840 eV  <-- do not rely on this value for anything but (periodic) metals
  | Electronic free energy        :       -1625.15749275 Ha      -44222.78540840 eV

  Derived energy quantities:
  | Kinetic energy                :        1633.93577289 Ha       44461.65456449 eV
  | Electrostatic energy          :       -3113.43190583 Ha      -84720.79270405 eV
  | Energy correction for multipole
  | error in Hartree potential    :           0.04166798 Ha           1.13384339 eV
  | Sum of eigenvalues per atom                           :       -2000.82758067 eV
  | Total energy (T->0) per atom                          :       -3685.23211737 eV  <-- do not rely on this value for anything but (periodic) metals
  | Electronic free energy per atom                       :       -3685.23211737 eV
  Evaluating new KS density.
  Integration grid: deviation in total charge (<rho> - N_e) =   1.421085E-14

  Self-consistency convergence accuracy:
  | Change of charge density      :  0.5958E+00
  | Change of sum of eigenvalues  :  0.1434E+03 eV
  | Change of total energy        :  0.5638E+01 eV


------------------------------------------------------------
  End self-consistency iteration #     1       :  max(cpu_time)    wall_clock(cpu1)
  | Time for this iteration                     :        0.078 s           0.078 s
  | Charge density update                       :        0.026 s           0.026 s
  | Density mixing                              :        0.001 s           0.001 s
  | Hartree multipole update                    :        0.001 s           0.001 s
  | Hartree multipole summation                 :        0.017 s           0.017 s
  | Integration                                 :        0.028 s           0.028 s
  | Solution of K.-S. eqns.                     :        0.004 s           0.004 s
  | Total energy evaluation                     :        0.000 s           0.000 s

  Partial memory accounting:
  | Current value for overall tracked memory usage:
  |   Minimum:        0.273 MB (on task 23)
  |   Maximum:        0.292 MB (on task  0)
  |   Average:        0.287 MB
  | Peak value for overall tracked memory usage:
  |   Minimum:        1.262 MB (on task 11 after allocating wave)
  |   Maximum:        1.390 MB (on task  5 after allocating wave)
  |   Average:        1.349 MB
  | Largest tracked array allocation so far:
  |   Minimum:        0.682 MB (gradient_basis_wave on task 11)
  |   Maximum:        0.760 MB (gradient_basis_wave on task  5)
  |   Average:        0.736 MB
  Note:  These values currently only include a subset of arrays which are explicitly tracked.
  The "true" memory usage will be greater.
------------------------------------------------------------

------------------------------------------------------------
          Begin self-consistency iteration #    2

  Date     :  20220517, Time     :  105652.228
------------------------------------------------------------
  Pulay mixing of updated and previous charge densities.
  Renormalizing the density to the exact electron count on the 3D integration grid.
  | Formal number of electrons (from input files) :     120.0000000000
  | Integrated number of electrons on 3D grid     :     120.0000000000
  | Charge integration error                      :      -0.0000000000
  | Normalization factor for density and gradient :       1.0000000000

  Evaluating partitioned Hartree potential by multipole expansion.
  | Original multipole sum: apparent total charge =   0.760070E-14
  | Sum of charges compensated after spline to logarithmic grids =   0.626843E-04
  | Analytical far-field extrapolation by fixed multipoles:
  | Hartree multipole sum: apparent total charge =   0.555909E-14
  Summing up the Hartree potential.
  Time summed over all CPUs for potential: real work        0.380 s, elapsed        0.396 s
  | RMS charge density error from multipole expansion :   0.125698E-01

  Integrating Hamiltonian matrix: batch-based integration.
  Time summed over all CPUs for integration: real work        0.636 s, elapsed        0.668 s

  Updating Kohn-Sham eigenvalues and eigenvectors using ELSI and the ELPA eigensolver.
  Starting ELPA eigensolver
  Finished transformation to standard eigenproblem
  | Time :     0.000 s
  Finished solving standard eigenproblem
  | Time :     0.003 s
  Finished back-transformation of eigenvectors
  | Time :     0.001 s

  Obtaining occupation numbers and chemical potential using ELSI.
  | Chemical potential (Fermi level):    -7.78647713 eV
  Highest occupied state (VBM) at     -9.90462997 eV
  | Occupation number:      2.00000000

  Lowest unoccupied state (CBM) at    -4.17859053 eV
  | Occupation number:      0.00000000

  Overall HOMO-LUMO gap:      5.72603944 eV.

  Checking to see if s.c.f. parameters should be adjusted.

  Total energy components:
  | Sum of eigenvalues            :        -885.45784320 Ha      -24094.53382988 eV
  | XC energy correction          :        -145.17157312 Ha       -3950.31949465 eV
  | XC potential correction       :         189.03114163 Ha        5143.79907744 eV
  | Free-atom electrostatic energy:        -781.34421621 Ha      -21261.45789422 eV
  | Hartree energy correction     :          -2.15201053 Ha         -58.55918603 eV
  | Entropy correction            :           0.00000000 Ha           0.00000000 eV
  | ---------------------------
  | Total energy                  :       -1625.09450143 Ha      -44221.07132734 eV
  | Total energy, T -> 0          :       -1625.09450143 Ha      -44221.07132734 eV  <-- do not rely on this value for anything but (periodic) metals
  | Electronic free energy        :       -1625.09450143 Ha      -44221.07132734 eV

  Derived energy quantities:
  | Kinetic energy                :        1630.07785022 Ha       44356.67514737 eV
  | Electrostatic energy          :       -3110.00077854 Ha      -84627.42698007 eV
  | Energy correction for multipole
  | error in Hartree potential    :           0.04584837 Ha           1.24759763 eV
  | Sum of eigenvalues per atom                           :       -2007.87781916 eV
  | Total energy (T->0) per atom                          :       -3685.08927728 eV  <-- do not rely on this value for anything but (periodic) metals
  | Electronic free energy per atom                       :       -3685.08927728 eV
  Evaluating new KS density.
  Integration grid: deviation in total charge (<rho> - N_e) =   2.842171E-14

  Self-consistency convergence accuracy:
  | Change of charge density      :  0.4714E+00
  | Change of sum of eigenvalues  : -0.8460E+02 eV
  | Change of total energy        :  0.1714E+01 eV


------------------------------------------------------------
  End self-consistency iteration #     2       :  max(cpu_time)    wall_clock(cpu1)
  | Time for this iteration                     :        0.081 s           0.078 s
  | Charge density update                       :        0.026 s           0.026 s
  | Density mixing                              :        0.004 s           0.001 s
  | Hartree multipole update                    :        0.001 s           0.002 s
  | Hartree multipole summation                 :        0.017 s           0.017 s
  | Integration                                 :        0.028 s           0.028 s
  | Solution of K.-S. eqns.                     :        0.004 s           0.004 s
  | Total energy evaluation                     :        0.000 s           0.000 s

  Partial memory accounting:
  | Current value for overall tracked memory usage:
  |   Minimum:        0.274 MB (on task 23)
  |   Maximum:        0.293 MB (on task  0)
  |   Average:        0.288 MB
  | Peak value for overall tracked memory usage:
  |   Minimum:        1.262 MB (on task 11 after allocating wave)
  |   Maximum:        1.390 MB (on task  5 after allocating wave)
  |   Average:        1.349 MB
  | Largest tracked array allocation so far:
  |   Minimum:        0.682 MB (gradient_basis_wave on task 11)
  |   Maximum:        0.760 MB (gradient_basis_wave on task  5)
  |   Average:        0.736 MB
  Note:  These values currently only include a subset of arrays which are explicitly tracked.
  The "true" memory usage will be greater.
------------------------------------------------------------

------------------------------------------------------------
          Begin self-consistency iteration #    3

  Date     :  20220517, Time     :  105652.312
------------------------------------------------------------
  Pulay mixing of updated and previous charge densities.
  Renormalizing the density to the exact electron count on the 3D integration grid.
  | Formal number of electrons (from input files) :     120.0000000000
  | Integrated number of electrons on 3D grid     :     120.0000000000
  | Charge integration error                      :       0.0000000000
  | Normalization factor for density and gradient :       1.0000000000

  Evaluating partitioned Hartree potential by multipole expansion.
  | Original multipole sum: apparent total charge =   0.168937E-12
  | Sum of charges compensated after spline to logarithmic grids =   0.809854E-04
  | Analytical far-field extrapolation by fixed multipoles:
  | Hartree multipole sum: apparent total charge =   0.169380E-12
  Summing up the Hartree potential.
  Time summed over all CPUs for potential: real work        0.379 s, elapsed        0.396 s
  | RMS charge density error from multipole expansion :   0.174211E-01

  Integrating Hamiltonian matrix: batch-based integration.
  Time summed over all CPUs for integration: real work        0.636 s, elapsed        0.668 s

  Updating Kohn-Sham eigenvalues and eigenvectors using ELSI and the ELPA eigensolver.
  Starting ELPA eigensolver
  Finished transformation to standard eigenproblem
  | Time :     0.001 s
  Finished solving standard eigenproblem
  | Time :     0.003 s
  Finished back-transformation of eigenvectors
  | Time :     0.000 s

  Obtaining occupation numbers and chemical potential using ELSI.
  | Chemical potential (Fermi level):    -7.97248797 eV
  Highest occupied state (VBM) at     -9.62172296 eV
  | Occupation number:      2.00000000

  Lowest unoccupied state (CBM) at    -4.38748074 eV
  | Occupation number:      0.00000000

  Overall HOMO-LUMO gap:      5.23424222 eV.

  Total energy components:
  | Sum of eigenvalues            :        -886.44505318 Ha      -24121.39718024 eV
  | XC energy correction          :        -145.13703643 Ha       -3949.37970359 eV
  | XC potential correction       :         188.98441619 Ha        5142.52761354 eV
  | Free-atom electrostatic energy:        -781.34421621 Ha      -21261.45789422 eV
  | Hartree energy correction     :          -1.15203554 Ha         -31.34848216 eV
  | Entropy correction            :           0.00000000 Ha           0.00000000 eV
  | ---------------------------
  | Total energy                  :       -1625.09392518 Ha      -44221.05564667 eV
  | Total energy, T -> 0          :       -1625.09392518 Ha      -44221.05564667 eV  <-- do not rely on this value for anything but (periodic) metals
  | Electronic free energy        :       -1625.09392518 Ha      -44221.05564667 eV

  Derived energy quantities:
  | Kinetic energy                :        1628.33633864 Ha       44309.28620614 eV
  | Electrostatic energy          :       -3108.29322739 Ha      -84580.96214922 eV
  | Energy correction for multipole
  | error in Hartree potential    :           0.06199075 Ha           1.68685405 eV
  | Sum of eigenvalues per atom                           :       -2010.11643169 eV
  | Total energy (T->0) per atom                          :       -3685.08797056 eV  <-- do not rely on this value for anything but (periodic) metals
  | Electronic free energy per atom                       :       -3685.08797056 eV
  Evaluating new KS density.
  Integration grid: deviation in total charge (<rho> - N_e) =   0.000000E+00

  Self-consistency convergence accuracy:
  | Change of charge density      :  0.1230E+00
  | Change of sum of eigenvalues  : -0.2686E+02 eV
  | Change of total energy        :  0.1568E-01 eV


------------------------------------------------------------
  End self-consistency iteration #     3       :  max(cpu_time)    wall_clock(cpu1)
  | Time for this iteration                     :        0.080 s           0.078 s
  | Charge density update                       :        0.026 s           0.026 s
  | Density mixing                              :        0.004 s           0.002 s
  | Hartree multipole update                    :        0.001 s           0.001 s
  | Hartree multipole summation                 :        0.017 s           0.017 s
  | Integration                                 :        0.028 s           0.028 s
  | Solution of K.-S. eqns.                     :        0.004 s           0.004 s
  | Total energy evaluation                     :        0.000 s           0.000 s

  Partial memory accounting:
  | Current value for overall tracked memory usage:
  |   Minimum:        0.274 MB (on task 23)
  |   Maximum:        0.293 MB (on task  0)
  |   Average:        0.288 MB
  | Peak value for overall tracked memory usage:
  |   Minimum:        1.262 MB (on task 11 after allocating wave)
  |   Maximum:        1.390 MB (on task  5 after allocating wave)
  |   Average:        1.349 MB
  | Largest tracked array allocation so far:
  |   Minimum:        0.682 MB (gradient_basis_wave on task 11)
  |   Maximum:        0.760 MB (gradient_basis_wave on task  5)
  |   Average:        0.736 MB
  Note:  These values currently only include a subset of arrays which are explicitly tracked.
  The "true" memory usage will be greater.
------------------------------------------------------------

------------------------------------------------------------
          Begin self-consistency iteration #    4

  Date     :  20220517, Time     :  105652.396
------------------------------------------------------------
  Pulay mixing of updated and previous charge densities.
  Renormalizing the density to the exact electron count on the 3D integration grid.
  | Formal number of electrons (from input files) :     120.0000000000
  | Integrated number of electrons on 3D grid     :     120.0000000000
  | Charge integration error                      :      -0.0000000000
  | Normalization factor for density and gradient :       1.0000000000

  Evaluating partitioned Hartree potential by multipole expansion.
  | Original multipole sum: apparent total charge =  -0.310915E-13
  | Sum of charges compensated after spline to logarithmic grids =   0.873039E-04
  | Analytical far-field extrapolation by fixed multipoles:
  | Hartree multipole sum: apparent total charge =  -0.303536E-13
  Summing up the Hartree potential.
  Time summed over all CPUs for potential: real work        0.380 s, elapsed        0.396 s
  | RMS charge density error from multipole expansion :   0.193063E-01

  Integrating Hamiltonian matrix: batch-based integration.
  Time summed over all CPUs for integration: real work        0.636 s, elapsed        0.667 s

  Updating Kohn-Sham eigenvalues and eigenvectors using ELSI and the ELPA eigensolver.
  Starting ELPA eigensolver
  Finished transformation to standard eigenproblem
  | Time :     0.001 s
  Finished solving standard eigenproblem
  | Time :     0.003 s
  Finished back-transformation of eigenvectors
  | Time :     0.000 s

  Obtaining occupation numbers and chemical potential using ELSI.
  | Chemical potential (Fermi level):    -7.92937723 eV
  Highest occupied state (VBM) at     -9.74560146 eV
  | Occupation number:      2.00000000

  Lowest unoccupied state (CBM) at    -4.33573599 eV
  | Occupation number:      0.00000000

  Overall HOMO-LUMO gap:      5.40986547 eV.

  Total energy components:
  | Sum of eigenvalues            :        -886.55682946 Ha      -24124.43876748 eV
  | XC energy correction          :        -145.12267208 Ha       -3948.98882961 eV
  | XC potential correction       :         188.96490608 Ha        5141.99671630 eV
  | Free-atom electrostatic energy:        -781.34421621 Ha      -21261.45789422 eV
  | Hartree energy correction     :          -1.03314795 Ha         -28.11338620 eV
  | Entropy correction            :           0.00000000 Ha           0.00000000 eV
  | ---------------------------
  | Total energy                  :       -1625.09195962 Ha      -44221.00216120 eV
  | Total energy, T -> 0          :       -1625.09195962 Ha      -44221.00216120 eV  <-- do not rely on this value for anything but (periodic) metals
  | Electronic free energy        :       -1625.09195962 Ha      -44221.00216120 eV

  Derived energy quantities:
  | Kinetic energy                :        1627.73231992 Ha       44292.85002054 eV
  | Electrostatic energy          :       -3107.70160747 Ha      -84564.86335213 eV
  | Energy correction for multipole
  | error in Hartree potential    :           0.06778251 Ha           1.84445602 eV
  | Sum of eigenvalues per atom                           :       -2010.36989729 eV
  | Total energy (T->0) per atom                          :       -3685.08351343 eV  <-- do not rely on this value for anything but (periodic) metals
  | Electronic free energy per atom                       :       -3685.08351343 eV
  Evaluating new KS density.
  Integration grid: deviation in total charge (<rho> - N_e) =   0.000000E+00

  Self-consistency convergence accuracy:
  | Change of charge density      :  0.7881E-01
  | Change of sum of eigenvalues  : -0.3042E+01 eV
  | Change of total energy        :  0.5349E-01 eV


------------------------------------------------------------
  End self-consistency iteration #     4       :  max(cpu_time)    wall_clock(cpu1)
  | Time for this iteration                     :        0.081 s           0.079 s
  | Charge density update                       :        0.026 s           0.025 s
  | Density mixing                              :        0.004 s           0.002 s
  | Hartree multipole update                    :        0.001 s           0.001 s
  | Hartree multipole summation                 :        0.017 s           0.017 s
  | Integration                                 :        0.028 s           0.028 s
  | Solution of K.-S. eqns.                     :        0.004 s           0.004 s
  | Total energy evaluation                     :        0.000 s           0.000 s

  Partial memory accounting:
  | Current value for overall tracked memory usage:
  |   Minimum:        0.274 MB (on task 23)
  |   Maximum:        0.293 MB (on task  0)
  |   Average:        0.288 MB
  | Peak value for overall tracked memory usage:
  |   Minimum:        1.262 MB (on task 11 after allocating wave)
  |   Maximum:        1.390 MB (on task  5 after allocating wave)
  |   Average:        1.349 MB
  | Largest tracked array allocation so far:
  |   Minimum:        0.682 MB (gradient_basis_wave on task 11)
  |   Maximum:        0.760 MB (gradient_basis_wave on task  5)
  |   Average:        0.736 MB
  Note:  These values currently only include a subset of arrays which are explicitly tracked.
  The "true" memory usage will be greater.
------------------------------------------------------------

------------------------------------------------------------
          Begin self-consistency iteration #    5

  Date     :  20220517, Time     :  105652.480
------------------------------------------------------------
  Pulay mixing of updated and previous charge densities.
  Renormalizing the density to the exact electron count on the 3D integration grid.
  | Formal number of electrons (from input files) :     120.0000000000
  | Integrated number of electrons on 3D grid     :     120.0000000000
  | Charge integration error                      :       0.0000000000
  | Normalization factor for density and gradient :       1.0000000000

  Evaluating partitioned Hartree potential by multipole expansion.
  | Original multipole sum: apparent total charge =   0.560828E-13
  | Sum of charges compensated after spline to logarithmic grids =   0.878103E-04
  | Analytical far-field extrapolation by fixed multipoles:
  | Hartree multipole sum: apparent total charge =   0.562796E-13
  Summing up the Hartree potential.
  Time summed over all CPUs for potential: real work        0.380 s, elapsed        0.396 s
  | RMS charge density error from multipole expansion :   0.190893E-01

  Integrating Hamiltonian matrix: batch-based integration.
  Time summed over all CPUs for integration: real work        0.636 s, elapsed        0.668 s

  Updating Kohn-Sham eigenvalues and eigenvectors using ELSI and the ELPA eigensolver.
  Starting ELPA eigensolver
  Finished transformation to standard eigenproblem
  | Time :     0.001 s
  Finished solving standard eigenproblem
  | Time :     0.003 s
  Finished back-transformation of eigenvectors
  | Time :     0.000 s

  Obtaining occupation numbers and chemical potential using ELSI.
  | Chemical potential (Fermi level):    -7.88094580 eV
  Highest occupied state (VBM) at     -9.79103180 eV
  | Occupation number:      2.00000000

  Lowest unoccupied state (CBM) at    -4.28029871 eV
  | Occupation number:      0.00000000

  Overall HOMO-LUMO gap:      5.51073309 eV.

  Total energy components:
  | Sum of eigenvalues            :        -886.37019204 Ha      -24119.36010496 eV
  | XC energy correction          :        -145.11824293 Ha       -3948.86830629 eV
  | XC potential correction       :         188.95927281 Ha        5141.84342714 eV
  | Free-atom electrostatic energy:        -781.34421621 Ha      -21261.45789422 eV
  | Hartree energy correction     :          -1.21845370 Ha         -33.15581213 eV
  | Entropy correction            :           0.00000000 Ha           0.00000000 eV
[...]
   Total forces(   7)            :  0.122278E+01 -0.167545E+01 -0.902541E+00
  atom #    8
   Hellmann-Feynman              :  0.240687E+01  0.226209E+01 -0.435937E+00
   Ionic forces                  :  0.000000E+00  0.000000E+00  0.000000E+00
   Multipole                     :  0.397308E+00  0.373272E+00 -0.717977E-01
   Hartree pot. SCF incomplete   : -0.306116E-06 -0.286706E-06  0.520232E-07
   Pulay + GGA                   : -0.519292E+01 -0.487793E+01  0.940083E+00
   ----------------------------------------------------------------
   Total forces(   8)            : -0.238874E+01 -0.224257E+01  0.432348E+00
  atom #    9
   Hellmann-Feynman              :  0.541059E+00 -0.100740E+01  0.153293E+00
   Ionic forces                  :  0.000000E+00  0.000000E+00  0.000000E+00
   Multipole                     :  0.334356E+00 -0.333900E+00 -0.287605E+00
   Hartree pot. SCF incomplete   : -0.229419E-06 -0.393104E-06 -0.146520E-05
   Pulay + GGA                   : -0.230239E+01  0.303718E+01  0.672160E+00
   ----------------------------------------------------------------
   Total forces(   9)            : -0.142697E+01  0.169588E+01  0.537846E+00
  atom #   10
   Hellmann-Feynman              : -0.991745E+00  0.582660E+00 -0.696791E-01
   Ionic forces                  :  0.000000E+00  0.000000E+00  0.000000E+00
   Multipole                     : -0.258466E+00  0.405071E+00  0.273607E+00
   Hartree pot. SCF incomplete   : -0.118013E-06  0.610044E-07  0.152472E-05
   Pulay + GGA                   :  0.275018E+01 -0.261561E+01 -0.754094E+00
   ----------------------------------------------------------------
   Total forces(  10)            :  0.149997E+01 -0.162788E+01 -0.550165E+00
  atom #   11
   Hellmann-Feynman              :  0.210833E+01  0.111281E+01  0.201079E+01
   Ionic forces                  :  0.000000E+00  0.000000E+00  0.000000E+00
   Multipole                     :  0.537391E+00  0.317929E+00  0.445843E+00
   Hartree pot. SCF incomplete   :  0.451179E-06  0.551675E-06 -0.372102E-06
   Pulay + GGA                   : -0.479701E+01 -0.249614E+01 -0.466663E+01
   ----------------------------------------------------------------
   Total forces(  11)            : -0.215129E+01 -0.106540E+01 -0.221000E+01
  atom #   12
   Hellmann-Feynman              : -0.216908E+01 -0.221810E+01  0.419084E+00
   Ionic forces                  :  0.000000E+00  0.000000E+00  0.000000E+00
   Multipole                     : -0.513593E+00 -0.502063E+00  0.555702E-01
   Hartree pot. SCF incomplete   : -0.279683E-06 -0.305144E-06 -0.349370E-07
   Pulay + GGA                   :  0.481618E+01  0.502587E+01 -0.116718E+01
   ----------------------------------------------------------------
   Total forces(  12)            :  0.213351E+01  0.230571E+01 -0.692524E+00


  Self-consistency convergence accuracy:
  | Change of charge density      :  0.9962E-07
  | Change of sum of eigenvalues  : -0.2487E-05 eV
  | Change of total energy        : -0.1596E-08 eV
  | Change of forces              :  0.2516E-06 eV/A

  Writing Kohn-Sham eigenvalues.

  State    Occupation    Eigenvalue [Ha]    Eigenvalue [eV]
      1       2.00000         -55.642112        -1514.09891
      2       2.00000         -55.620816        -1513.51940
      3       2.00000         -55.620807        -1513.51916
      4       2.00000         -24.306123         -661.40326
      5       2.00000         -24.306122         -661.40324
      6       2.00000         -24.304169         -661.35008
      7       2.00000         -24.304165         -661.34999
      8       2.00000         -24.212760         -658.86272
      9       2.00000         -24.212755         -658.86260
     10       2.00000         -24.211394         -658.82554
     11       2.00000         -24.211389         -658.82541
     12       2.00000         -24.208098         -658.73587
     13       2.00000          -4.094472         -111.41624
     14       2.00000          -4.074130         -110.86272
     15       2.00000          -4.074121         -110.86248
     16       2.00000          -2.687476          -73.12994
     17       2.00000          -2.685667          -73.08072
     18       2.00000          -2.684904          -73.05995
     19       2.00000          -2.667877          -72.59663
     20       2.00000          -2.667870          -72.59643
     21       2.00000          -2.666394          -72.55628
     22       2.00000          -2.666386          -72.55604
     23       2.00000          -2.662729          -72.45653
     24       2.00000          -2.662718          -72.45624
     25       2.00000          -1.184708          -32.23754
     26       2.00000          -1.173545          -31.93378
     27       2.00000          -1.168611          -31.79953
     28       2.00000          -1.159689          -31.55674
     29       2.00000          -1.061589          -28.88732
     30       2.00000          -1.061554          -28.88637
     31       2.00000          -1.057762          -28.78316
     32       2.00000          -1.057745          -28.78271
     33       2.00000          -1.055521          -28.72219
     34       2.00000          -0.565236          -15.38087
     35       2.00000          -0.552896          -15.04507
     36       2.00000          -0.540953          -14.72008
     37       2.00000          -0.535428          -14.56973
     38       2.00000          -0.508398          -13.83421
     39       2.00000          -0.492327          -13.39689
     40       2.00000          -0.489195          -13.31169
     41       2.00000          -0.472900          -12.86826
     42       2.00000          -0.468781          -12.75619
     43       2.00000          -0.465877          -12.67715
     44       2.00000          -0.465726          -12.67304
     45       2.00000          -0.449906          -12.24256
     46       2.00000          -0.433084          -11.78481
     47       2.00000          -0.428503          -11.66016
     48       2.00000          -0.412431          -11.22281
     49       2.00000          -0.406579          -11.06358
     50       2.00000          -0.406213          -11.05361
     51       2.00000          -0.371434          -10.10724
     52       2.00000          -0.371102          -10.09819
     53       2.00000          -0.370011          -10.06851
     54       2.00000          -0.368919          -10.03880
     55       2.00000          -0.362949           -9.87635
     56       2.00000          -0.362662           -9.86854
     57       2.00000          -0.361524           -9.83758
     58       2.00000          -0.359623           -9.78584
     59       2.00000          -0.359492           -9.78228
     60       2.00000          -0.359151           -9.77301
     61       0.00000          -0.157378           -4.28247
     62       0.00000          -0.115843           -3.15225
     63       0.00000          -0.078306           -2.13080
     64       0.00000          -0.045561           -1.23979
     65       0.00000          -0.036844           -1.00258
     66       0.00000          -0.019103           -0.51983
     67       0.00000          -0.018246           -0.49649
     68       0.00000           0.021395            0.58219
     69       0.00000           0.028921            0.78699
     70       0.00000           0.057310            1.55948
     71       0.00000           0.057912            1.57587
     72       0.00000           0.102877            2.79943
     73       0.00000           0.130153            3.54163
     74       0.00000           0.142997            3.89115
     75       0.00000           0.164092            4.46516
     76       0.00000           0.167321            4.55304
     77       0.00000           0.167541            4.55902
     78       0.00000           0.176360            4.79899
     79       0.00000           0.188151            5.11984
     80       0.00000           0.189885            5.16703
     81       0.00000           0.197272            5.36805
     82       0.00000           0.208775            5.68106
     83       0.00000           0.212299            5.77696
     84       0.00000           0.219473            5.97216
     85       0.00000           0.235380            6.40502
     86       0.00000           0.245770            6.68774
     87       0.00000           0.249820            6.79794
     88       0.00000           0.250519            6.81698
     89       0.00000           0.259075            7.04978
     90       0.00000           0.270460            7.35959
     91       0.00000           0.290096            7.89392
     92       0.00000           0.302505            8.23157
     93       0.00000           0.319411            8.69161
     94       0.00000           0.350303            9.53222
     95       0.00000           0.361570            9.83882
     96       0.00000           0.366624            9.97635

  Highest occupied state (VBM) at     -9.77300854 eV
  | Occupation number:      2.00000000

  Lowest unoccupied state (CBM) at    -4.28247462 eV
  | Occupation number:      0.00000000

  Overall HOMO-LUMO gap:      5.49053392 eV.
  | Chemical Potential                          :    -7.88390449 eV

  Self-consistency cycle converged.


------------------------------------------------------------
  End self-consistency iteration #    14       :  max(cpu_time)    wall_clock(cpu1)
  | Time for this iteration                     :        0.261 s           0.258 s
  | Charge density & force component update     :        0.139 s           0.139 s
  | Density mixing                              :        0.005 s           0.002 s
  | Hartree multipole update                    :        0.001 s           0.001 s
  | Hartree multipole summation                 :        0.050 s           0.050 s
  | Hartree pot. SCF incomplete forces          :        0.032 s           0.033 s
  | Integration                                 :        0.028 s           0.028 s
  | Solution of K.-S. eqns.                     :        0.004 s           0.004 s
  | Total energy evaluation                     :        0.000 s           0.000 s

  Partial memory accounting:
  | Current value for overall tracked memory usage:
  |   Minimum:        0.274 MB (on task 23)
  |   Maximum:        0.293 MB (on task  0)
  |   Average:        0.289 MB
  | Peak value for overall tracked memory usage:
  |   Minimum:        2.832 MB (on task 11 after allocating hessian_basis_wave)
  |   Maximum:        3.100 MB (on task  5 after allocating hessian_basis_wave)
  |   Average:        3.017 MB
  | Largest tracked array allocation so far:
  |   Minimum:        1.364 MB (hessian_basis_wave on task 11)
  |   Maximum:        1.520 MB (hessian_basis_wave on task  5)
  |   Average:        1.472 MB
  Note:  These values currently only include a subset of arrays which are explicitly tracked.
  The "true" memory usage will be greater.
------------------------------------------------------------
  Removing unitary transformations (pure translations, rotations) from forces on atoms.
  Atomic forces before filtering:
  | Net force on center of mass :  -0.526351E-02  0.366202E-02 -0.142136E-02 eV/A
  | Net torque on center of mass:   0.457966E-03 -0.271427E-02 -0.110511E-02 eV
  Atomic forces after filtering:
  | Net force on center of mass :  -0.713624E-15  0.000000E+00  0.178406E-15 eV/A
  | Net torque on center of mass:  -0.226580E-14 -0.330430E-14 -0.151054E-14 eV

  Energy and forces in a compact form:
  | Total energy uncorrected      :         -0.442209985177924E+05 eV
  | Total energy corrected        :         -0.442209985177924E+05 eV  <-- do not rely on this value for anything but (periodic) metals
  | Electronic free energy        :         -0.442209985177924E+05 eV
  Total atomic forces (unitary forces cleaned) [eV/Ang]:
  |    1          0.414345318661833E-01         -0.990587780693017E+00          0.235265067322771E+01
  |    2          0.213972010960551E+01          0.201044812896532E+01         -0.387333778398188E+00
  |    3         -0.141698863467063E+01         -0.298913681480616E+00         -0.210508799863612E+01
  |    4          0.248786452453403E+01          0.203537506132568E+01         -0.144896525244456E+00
  |    5         -0.142030229854347E+01          0.148904234555295E+01          0.937555308009984E+00
  |    6         -0.723747887865255E+00         -0.163386741592672E+01          0.273149838246413E+01
  |    7          0.122315727432134E+01         -0.167578578509332E+01         -0.902386395381058E+00
  |    8         -0.238835646205827E+01         -0.224282882350529E+01          0.432408589053155E+00
  |    9         -0.142656866032867E+01          0.169558549318337E+01          0.537949662900201E+00
  |   10          0.150043537217408E+01         -0.162819251967732E+01         -0.550034369278266E+00
  |   11         -0.215073623573620E+01         -0.106566071110048E+01         -0.220993923716808E+01
  |   12          0.213408836670135E+01          0.230538568844943E+01         -0.692384311549015E+00

  ------------------------------------ 
  Start decomposition of the XC Energy 
  ------------------------------------ 
  X and C from original XC functional choice 
  Hartree-Fock Energy :          0.000000000 Ha              0.000000000 eV
  X Energy            :       -140.181222208 Ha          -3814.525137169 eV
  C Energy            :         -4.941198116 Ha           -134.456841837 eV
  Total XC Energy     :       -145.122420324 Ha          -3948.981979006 eV
  ------------------------------------ 
  LDA X and C from self-consistent density 
  X Energy LDA        :       -132.753744464 Ha          -3612.413184431 eV
  C Energy LDA        :         -8.823325175 Ha           -240.094893899 eV
  ------------------------------------ 
  End decomposition of the XC Energy 
  ------------------------------------ 

------------------------------------------------------------

------------------------------------------------------------------------------
  Final output of selected total energy values:

  The following output summarizes some interesting total energy values
  at the end of a run (AFTER all relaxation, molecular dynamics, etc.).

  | Total energy of the DFT / Hartree-Fock s.c.f. calculation      :         -44220.998517792 eV
  | Final zero-broadening corrected energy (caution - metals only) :         -44220.998517792 eV
  | For reference only, the value of 1 Hartree used in FHI-aims is :             27.211384500 eV

  Before relying on these values, please be sure to understand exactly which
  total energy value is referred to by a given number. Different objects may
  all carry the same name 'total energy'. Definitions:

  Total energy of the DFT / Hartree-Fock s.c.f. calculation:
  | Note that this energy does not include ANY quantities calculated after the
  | s.c.f. cycle, in particular not ANY RPA, MP2, etc. many-body perturbation terms.

  Final zero-broadening corrected energy:
  | For metallic systems only, a broadening of the occupation numbers at the Fermi
  | level can be extrapolated back to zero broadening by an electron-gas inspired
  | formula. For all systems that are not real metals, this value can be
  | meaningless and should be avoided.

------------------------------------------------------------------------------
  Methods described in the following list of references were used in this FHI-aims run.
  If you publish the results, please make sure to cite these reference if they apply.
  FHI-aims is an academic code, and for our developers (often, Ph.D. students
  and postdocs), scientific credit in the community is essential.
  Thank you for helping us!

  For any use of FHI-aims, please cite:

    Volker Blum, Ralf Gehrke, Felix Hanke, Paula Havu, Ville Havu,
    Xinguo Ren, Karsten Reuter, and Matthias Scheffler
    'Ab initio molecular simulations with numeric atom-centered orbitals'
    Computer Physics Communications 180, 2175-2196 (2009)
    http://dx.doi.org/10.1016/j.cpc.2009.06.022


  The ELSI infrastructure was used in your run to solve the Kohn-Sham electronic structure.
  Please check out http://elsi-interchange.org to learn more.
  If scalability is important for your project, please acknowledge ELSI by citing:

    V. W-z. Yu, F. Corsetti, A. Garcia, W. P. Huhn, M. Jacquelin, W. Jia,
    B. Lange, L. Lin, J. Lu, W. Mi, A. Seifitokaldani, A. Vazquez-Mayagoitia,
    C. Yang, H. Yang, and V. Blum
    'ELSI: A unified software interface for Kohn-Sham electronic structure solvers'
    Computer Physics Communications 222, 267-285 (2018).
    http://dx.doi.org/10.1016/j.cpc.2017.09.007


  For the real-space grid partitioning and parallelization used in this calculation, please cite:

    Ville Havu, Volker Blum, Paula Havu, and Matthias Scheffler,
    'Efficient O(N) integration for all-electron electronic structure calculation'
    'using numerically tabulated basis functions'
    Journal of Computational Physics 228, 8367-8379 (2009).
    http://dx.doi.org/10.1016/j.jcp.2009.08.008

  Of course, there are many other important community references, e.g., those cited in the
  above references. Our list is limited to references that describe implementations in the
  FHI-aims code. The reason is purely practical (length of this list) - please credit others as well.

------------------------------------------------------------
          Leaving FHI-aims.
          Date     :  20220517, Time     :  105653.782

          Computational steps:
          | Number of self-consistency cycles          :           14
          | Number of SCF (re)initializations          :            1

          Detailed time accounting                     :  max(cpu_time)    wall_clock(cpu1)
          | Total time                                  :        1.934 s           2.005 s
          | Preparation time                            :        0.184 s           0.184 s
          | Boundary condition initalization            :        0.000 s           0.000 s
          | Grid partitioning                           :        0.033 s           0.032 s
          | Preloading free-atom quantities on grid     :        0.015 s           0.017 s
          | Free-atom superposition energy              :        0.005 s           0.004 s
          | Total time for integrations                 :        0.438 s           0.438 s
          | Total time for solution of K.-S. equations  :        0.067 s           0.067 s
          | Total time for density & force components   :        0.616 s           0.616 s
          | Total time for mixing                       :        0.140 s           0.074 s
          | Total time for Hartree multipole update     :        0.018 s           0.020 s
          | Total time for Hartree multipole sum        :        0.302 s           0.302 s
          | Total time for total energy evaluation      :        0.002 s           0.002 s
          | Total time NSC force correction             :        0.065 s           0.066 s
          | Total time for scaled ZORA corrections      :        0.000 s           0.000 s

          Partial memory accounting:
          | Residual value for overall tracked memory usage across tasks:     0.000000 MB (should be 0.000000 MB)
          | Peak values for overall tracked memory usage:
          |   Minimum:        2.832 MB (on task 11 after allocating hessian_basis_wave)
          |   Maximum:        3.100 MB (on task  5 after allocating hessian_basis_wave)
          |   Average:        3.017 MB
          | Largest tracked array allocation:
          |   Minimum:        1.364 MB (hessian_basis_wave on task 11)
          |   Maximum:        1.520 MB (hessian_basis_wave on task  5)
          |   Average:        1.472 MB
          Note:  These values currently only include a subset of arrays which are explicitly tracked.
          The "true" memory usage will be greater.

          Have a nice day.
------------------------------------------------------------
