********************************************************************************
*                       GENERAL UTILITY LATTICE PROGRAM                        *
*                                 Julian Gale                                  *
*                       Curtin Institute for Computation                       *
*                           Department of Chemistry                            *
*                    Curtin University, Western Australia                      *
********************************************************************************
* Version = 5.1.1 * Last modified =  11th January 2019                         *
********************************************************************************
*  single       - perform a single point run                                   *
*  phonon       - calculate phonons for final geometry                         *
*  eigenvectors - output phonon eigenvectors                                   *
********************************************************************************

  Job Started  at 10:29.17 17th May        2022                               

  Number of CPUs =     1

  Host name      = login04                                 


  Total number of configurations input =      1

********************************************************************************
*  Input for Configuration =   1                                               *
********************************************************************************

  Formula = Al3F9                                                       

  Number of irreducible atoms/shells =      21


  Total number atoms/shells =      21

  Dimensionality = 0               :  Cluster


  Charge on cluster =  -0.000000


  Initial cluster dipoles : x =     -0.218666 e.Angs
                            y =     -0.205425 e.Angs
                            z =      0.039572 e.Angs

  Temperature of configuration =  0.000     K 

  Symmetry number =      1

  Cartesian coordinates of cluster :

--------------------------------------------------------------------------------
   No.  Atomic       x           y          z         Charge      Occupancy
        Label      (Angs)      (Angs)     (Angs)        (e)         (Frac)  
--------------------------------------------------------------------------------
      1 Al    c      1.2945      0.0351      2.4376     3.00000    1.000000    
      2 Al    c      1.2768      1.1892     -0.0831     3.00000    1.000000    
      3 Al    c     -0.3310      0.8496     -2.3160     3.00000    1.000000    
      4 F     c     -1.7244     -0.3071     -2.1903     0.59000    1.000000    
      5 F     c      2.1172     -0.3256      0.7642     0.59000    1.000000    
      6 F     c      0.0913      1.7720     -3.8198     0.59000    1.000000    
      7 F     c     -0.3322      1.9821     -0.7913     0.59000    1.000000    
      8 F     c      2.5879      2.4209     -0.3204     0.59000    1.000000    
      9 F     c      1.2217      0.0081     -1.5953     0.59000    1.000000    
     10 F     c      0.4015      1.4963      1.5975     0.59000    1.000000    
     11 F     c      2.5022      0.6440      3.6464     0.59000    1.000000    
     12 F     c      0.0744     -1.2634      2.7848     0.59000    1.000000    
     13 F     s     -1.7244     -0.3071     -2.1903    -1.59000    1.000000    
     14 F     s      2.1172     -0.3256      0.7642    -1.59000    1.000000    
     15 F     s      0.0913      1.7720     -3.8198    -1.59000    1.000000    
     16 F     s     -0.3322      1.9821     -0.7913    -1.59000    1.000000    
     17 F     s      2.5879      2.4209     -0.3204    -1.59000    1.000000    
     18 F     s      1.2217      0.0081     -1.5953    -1.59000    1.000000    
     19 F     s      0.4015      1.4963      1.5975    -1.59000    1.000000    
     20 F     s      2.5022      0.6440      3.6464    -1.59000    1.000000    
     21 F     s      0.0744     -1.2634      2.7848    -1.59000    1.000000    
--------------------------------------------------------------------------------


  Brillouin zone sampling points :

--------------------------------------------------------------------------------
  Point number          x          y          z            Weight
--------------------------------------------------------------------------------
        1           0.000000   0.000000   0.000000     1.00000000
--------------------------------------------------------------------------------


********************************************************************************
*  General input information                                                   *
********************************************************************************

  Species output for all configurations : 

--------------------------------------------------------------------------------
  Species    Type    Atomic    Atomic    Charge       Radii (Angs)     Library
                     Number     Mass       (e)     Cova   Ionic  VDW   Symbol
--------------------------------------------------------------------------------
    Al       Core       13      26.98   3.000000   1.350  0.000  2.050          
    F        Core        9      19.00   0.590000   0.710  0.000  1.300          
    F        Shell       9       0.00  -1.590000   0.710  0.000  1.300          
--------------------------------------------------------------------------------


  Accuracy factor for short range sums = 12.000

  Time limit = Infinity

  Maximum range for interatomic potentials =    100000.000000 Angstroms

  General interatomic potentials :

--------------------------------------------------------------------------------
Atom  Types   Potential      Parameter       Value         Units   Cutoffs(Ang)
  1     2                                                            Min /  Max 
--------------------------------------------------------------------------------
Al   c F    s Buckingham    Buckingham A     3760.0008    eV        0.000 10.000
                            Buckingham rho  0.22200000    Ang       
                            Buckingham C     0.0000000    eV*Ang^6  
--------------------------------------------------------------------------------
F    s F    s Buck 4 range  Buck4 A          1127.7000    eV        0.000 12.000
                            Buck4 rho       0.27530000    Ang       
                            Buck4 C          15.830000    eV*Ang^6  
                            Buck4 minimum    2.7900000    Ang       
--------------------------------------------------------------------------------
F    c F    s Spring (c-s)  Spring k 2       20.770000    eV*Ang^-2 0.000  0.800
                            Spring k 4       0.0000000    eV*Ang^-4 
--------------------------------------------------------------------------------

********************************************************************************
*  Output for configuration   1                                                *
********************************************************************************


  Components of energy : 

--------------------------------------------------------------------------------
  Interatomic potentials     =          10.45682790 eV    
  Monopole - monopole (real) =        -178.68586538 eV    
--------------------------------------------------------------------------------
  Total lattice energy       =        -168.22903748 eV    
--------------------------------------------------------------------------------
  Total lattice energy       =          -16231.5305 kJ/mol
--------------------------------------------------------------------------------

  Born effective charge tensors : 

-------------------------------------------------------------------------------
  Atom             x           y             z
-------------------------------------------------------------------------------
    1 Al    x       1.9976      0.2008      0.1458
            y       0.2214      1.9985     -0.1791
            z       0.1148     -0.2048      2.3922
-------------------------------------------------------------------------------
    2 Al    x       2.0996     -0.0675      0.1667
            y      -0.0674      2.0613     -0.0852
            z       0.1673     -0.0859      2.4848
-------------------------------------------------------------------------------
    3 Al    x       2.0998      0.2313      0.1900
            y       0.2107      1.9269     -0.1183
            z       0.2213     -0.0930      2.3616
-------------------------------------------------------------------------------
    4 F     x      -0.9184     -0.3340     -0.0335
            y      -0.3076     -0.7251      0.0045
            z      -0.0906     -0.0411     -0.5520
-------------------------------------------------------------------------------
    5 F     x      -0.5380      0.2441     -0.0142
            y       0.2182     -0.6602      0.1241
            z       0.0460      0.1721     -0.8965
-------------------------------------------------------------------------------
    6 F     x      -0.5285     -0.0497      0.0415
            y      -0.0663     -0.6420      0.2657
            z       0.0825      0.2939     -1.0648
-------------------------------------------------------------------------------
    7 F     x      -0.7035      0.1791     -0.1961
            y       0.2057     -0.5870     -0.0726
            z      -0.2525     -0.1247     -0.8042
-------------------------------------------------------------------------------
    8 F     x      -0.8490     -0.3532      0.0346
            y      -0.3536     -0.7949      0.0819
            z       0.0326      0.0840     -0.5705
-------------------------------------------------------------------------------
    9 F     x      -0.6312      0.1430     -0.1550
            y       0.1729     -0.5897     -0.1374
            z      -0.2206     -0.1867     -0.8576
-------------------------------------------------------------------------------
   10 F     x      -0.5224      0.2184      0.0410
            y       0.1872     -0.6015      0.0626
            z       0.0998      0.1191     -0.9546
-------------------------------------------------------------------------------
   11 F     x      -0.7667     -0.1304     -0.3061
            y      -0.1124     -0.5510     -0.0931
            z      -0.3400     -0.1288     -0.9176
-------------------------------------------------------------------------------
   12 F     x      -0.7393     -0.2818      0.0854
            y      -0.3088     -0.8352      0.1469
            z       0.1393      0.1959     -0.6210
-------------------------------------------------------------------------------




  Moment of inertia tensor (10^-46 x kgm^2): 

-------------------------------------------------------------------------------
                x           y           z           Principal axis system
-------------------------------------------------------------------------------
       x        242.00       -7.59      -56.23           79.884383
       y         -7.59      259.44       32.77          245.050377
       z        -56.23       32.77      104.46          280.963263
-------------------------------------------------------------------------------
  Centre of mass (Ang) =     0.763264     0.706817     0.009850
-------------------------------------------------------------------------------


  Vibrational Frequency Calculation : 

--------------------------------------------------------------------------------

  Frequencies (cm-1) and Eigenvectors : 

  Frequency    -330.7044 -216.3837  -66.6299  -61.9547   -0.0000   -0.0000
  IR Intensity    0.0010    0.0000    0.0007    0.0001    0.0000    0.0000
     in X         0.0005    0.0000    0.0001    0.0001    0.0000    0.0000
     in Y         0.0006    0.0000    0.0000    0.0000    0.0000    0.0000
     in Z         0.0000    0.0000    0.0006    0.0000    0.0000    0.0000
  Raman Intsty    0.0000    0.0000    0.0000    0.2439    0.0000    0.0000

     1 x       0.266464 -0.387487 -0.330705 -0.245542 -0.174982 -0.276400
     1 y      -0.288803  0.411922 -0.292785 -0.158544 -0.276406  0.174513
     1 z      -0.133506  0.178967  0.008563 -0.207997 -0.008353  0.015401
     2 x      -0.492810  0.031358  0.036158  0.362302 -0.174982 -0.276400
     2 y       0.572837  0.029459 -0.013710  0.340363 -0.276406  0.174513
     2 z       0.250538 -0.005675  0.128631 -0.065567 -0.008353  0.015401
     3 x       0.246301  0.353137  0.303459 -0.127080 -0.174982 -0.276400
     3 y      -0.307745 -0.444192  0.302978 -0.191515 -0.276406  0.174513
     3 z      -0.129857 -0.172751 -0.106204  0.275431 -0.008353  0.015401
     4 x       0.021488  0.074026  0.249005 -0.112125 -0.146842 -0.231950
     4 y      -0.024483 -0.093675  0.230422 -0.145534 -0.231955  0.146448
     4 z      -0.010292 -0.035559 -0.051597  0.183264 -0.007009  0.012924
     5 x      -0.039035 -0.152066 -0.133894  0.068526 -0.146842 -0.231950
     5 y       0.014729  0.187269 -0.126544  0.082131 -0.231955  0.146448
     5 z      -0.030003 -0.052180  0.051184 -0.067642 -0.007009  0.012924
     6 x       0.023196  0.076673  0.200816 -0.075559 -0.146842 -0.231950
     6 y      -0.027792 -0.094790  0.220605 -0.138731 -0.231955  0.146448
     6 z      -0.014259 -0.037079 -0.114479  0.229503 -0.007009  0.012924
     7 x      -0.018393  0.186845  0.139731  0.096382 -0.146842 -0.231950
     7 y       0.034121 -0.154596  0.130512  0.072792 -0.231955  0.146448
     7 z      -0.033739  0.045886  0.001665  0.037798 -0.007009  0.012924
     8 x      -0.043658  0.023069  0.016624  0.274265 -0.146842 -0.231950
     8 y       0.051657  0.021672 -0.008433  0.257657 -0.231955  0.146448
     8 z       0.026919 -0.004175  0.048086 -0.049634 -0.007009  0.012924
     9 x      -0.011108  0.066982  0.146057  0.065018 -0.146842 -0.231950
     9 y       0.011379 -0.145085  0.128637  0.070436 -0.231955  0.146448
     9 z       0.051523 -0.168768 -0.013687  0.058303 -0.007009  0.012924
    10 x      -0.000935 -0.107472 -0.135235  0.060953 -0.146842 -0.231950
    10 y       0.020936  0.107047 -0.135623  0.047908 -0.231955  0.146448
    10 z       0.049682  0.176096  0.037219 -0.081100 -0.007009  0.012924
    11 x       0.023544 -0.082591 -0.246923 -0.182805 -0.146842 -0.231950
    11 y      -0.027466  0.089231 -0.200023 -0.103988 -0.231955  0.146448
    11 z      -0.014322  0.038150 -0.033450 -0.182746 -0.007009  0.012924
    12 x       0.021122 -0.081901 -0.246800 -0.182358 -0.146842 -0.231950
    12 y      -0.024826  0.086277 -0.235362 -0.131116 -0.231955  0.146448
    12 z      -0.010226  0.036984  0.038131 -0.129971 -0.007009  0.012924


  Frequency       0.0000  143.6655  143.6655  147.3226  148.8448  152.5451
  IR Intensity    0.0000    0.0000    0.0003    0.0000    0.0012    0.0000
     in X         0.0000    0.0000    0.0000    0.0000    0.0006    0.0000
     in Y         0.0000    0.0000    0.0000    0.0000    0.0006    0.0000
     in Z         0.0000    0.0000    0.0003    0.0000    0.0000    0.0000
  Raman Intsty    0.0000    0.0024    0.0000    0.0000    0.7565    0.0636

     1 x      -0.008554  0.008331  0.009839 -0.034598 -0.001031  0.059854
     1 y       0.015290 -0.014369  0.011996 -0.048017  0.047981  0.048516
     1 z      -0.326775  0.001693 -0.003811  0.036779 -0.104090  0.014395
     2 x      -0.008554  0.007275 -0.004231 -0.018474 -0.107150 -0.079369
     2 y       0.015290  0.006983  0.001858  0.011875 -0.100662 -0.074563
     2 z      -0.326775 -0.001635 -0.011752 -0.040438  0.019391  0.014364
     3 x      -0.008554 -0.014685 -0.012193  0.055583  0.066693  0.047519
     3 y       0.015290  0.008510 -0.009833  0.036705  0.013706  0.052356
     3 z      -0.326775 -0.000642  0.000342  0.020458  0.092207 -0.033827
     4 x      -0.007178  0.054820  0.102709  0.140480  0.170712  0.205707
     4 y       0.012831 -0.072091 -0.081313 -0.027792 -0.068310 -0.039637
     4 z      -0.274224  0.011770  0.398343  0.287324  0.379747  0.483411
     5 x      -0.007178 -0.331896 -0.206261  0.054085 -0.107216  0.126962
     5 y       0.012831 -0.205400 -0.149637  0.064387 -0.124220  0.079267
     5 z      -0.274224 -0.130274 -0.076727  0.044371 -0.052830  0.045150
     6 x      -0.007178 -0.261998 -0.304615  0.020054  0.358212 -0.257906
     6 y       0.012831  0.224719 -0.153415  0.022868  0.177384 -0.173631
     6 z      -0.274224  0.058739 -0.188801  0.010301  0.287835 -0.275586
     7 x      -0.007178 -0.184121  0.150959 -0.057169 -0.116615  0.074842
     7 y       0.012831 -0.276993  0.191300 -0.040131 -0.086057  0.110318
     7 z      -0.274224  0.217620 -0.150894  0.064505  0.093338 -0.081671
     8 x      -0.007178  0.008055  0.066614 -0.256132 -0.119508 -0.065346
     8 y       0.012831  0.004946 -0.040542  0.114488 -0.112272 -0.061390
     8 z      -0.274224  0.002898  0.159337 -0.820989  0.021627  0.011825
     9 x      -0.007178  0.250997  0.142023 -0.014762 -0.041414  0.069026
     9 y       0.012831  0.274589  0.167333 -0.048190 -0.090614  0.055381
     9 z      -0.274224 -0.274520 -0.150798  0.045226  0.043605 -0.035758
    10 x      -0.007178  0.321810 -0.215551  0.056474 -0.098963  0.064138
    10 y       0.012831  0.265306 -0.166663  0.018731 -0.041263  0.069720
    10 z      -0.274224  0.164208 -0.097562  0.032335 -0.018201  0.011659
    11 x      -0.007178  0.204023  0.118077 -0.021373  0.135456 -0.129654
    11 y       0.012831 -0.271834  0.267426 -0.016052  0.286392 -0.190462
    11 z      -0.274224 -0.060621 -0.264406  0.017798 -0.377176  0.345723
    12 x      -0.007178 -0.062785  0.153890  0.075350 -0.131225 -0.121141
    12 y       0.012831  0.055417 -0.039279 -0.088980  0.105405  0.119084
    12 z      -0.274224  0.010876  0.389645  0.299112 -0.386891 -0.498714


  Frequency     152.9143  158.0540  160.0521  162.0023  176.1094  180.3358
  IR Intensity    0.0000    0.0000    0.0000    0.0000    0.0146    0.0000
     in X         0.0000    0.0000    0.0000    0.0000    0.0014    0.0000
     in Y         0.0000    0.0000    0.0000    0.0000    0.0003    0.0000
     in Z         0.0000    0.0000    0.0000    0.0000    0.0129    0.0000
  Raman Intsty    0.0000    0.0022    0.0000    0.0023    0.0000    0.0000

     1 x       0.001777 -0.012839 -0.017560 -0.020552  0.087714 -0.048905
     1 y      -0.004858  0.018340  0.013132  0.034776  0.098850  0.010253
     1 z      -0.000188  0.005456  0.006478  0.014490 -0.029942  0.005781
     2 x      -0.008730 -0.008026  0.024899 -0.012769 -0.047993  0.048897
     2 y       0.009551 -0.007540 -0.029026 -0.011996  0.019801 -0.055293
     2 z       0.001341  0.001453 -0.013094  0.002311 -0.162406 -0.016842
     3 x       0.004651  0.016392 -0.010882  0.030467 -0.106507 -0.006803
     3 y      -0.002157 -0.015002  0.019406 -0.025461 -0.083611  0.049806
     3 z      -0.000709 -0.006099  0.005270 -0.016285  0.005206 -0.001838
     4 x      -0.261525 -0.386824 -0.104023 -0.006413 -0.058425  0.171339
     4 y       0.335328  0.496400  0.139532  0.029420 -0.139229 -0.167211
     4 z       0.146001  0.226953  0.074105  0.042900  0.156961 -0.049999
     5 x      -0.208966 -0.116540  0.134820  0.117151 -0.215321 -0.247403
     5 y      -0.173960  0.051384  0.113511  0.250278 -0.081747 -0.209770
     5 z      -0.029161 -0.097347  0.012784 -0.017589 -0.183978 -0.054070
     6 x       0.163050  0.042581  0.271652 -0.347010  0.372601 -0.004256
     6 y      -0.204569 -0.037660 -0.355579  0.432730  0.167977 -0.032250
     6 z      -0.080069 -0.012395 -0.147164  0.158744  0.325193 -0.060743
     7 x       0.174381  0.063651 -0.114899  0.254022  0.054946  0.206502
     7 y       0.186175 -0.101070 -0.121087  0.098420  0.172155  0.216651
     7 z      -0.098537  0.106918  0.057977 -0.049583 -0.232889 -0.136215
     8 x       0.230895 -0.004809 -0.366470 -0.006116 -0.030356 -0.332822
     8 y      -0.273654 -0.004520  0.424889 -0.005743  0.040184  0.389193
     8 z      -0.144714  0.000870  0.180638  0.001107  0.040863  0.181273
     9 x      -0.181220  0.015287  0.128498 -0.157662  0.035697 -0.264123
     9 y      -0.173387 -0.031271  0.118726 -0.246495  0.086794 -0.271940
     9 z       0.103111 -0.146757 -0.073690  0.007528 -0.221507  0.175047
    10 x       0.197588 -0.002266 -0.136074 -0.250202 -0.128581  0.311527
    10 y       0.182484  0.043504 -0.129826 -0.136673 -0.067537  0.268853
    10 z       0.034557  0.144401 -0.025810  0.066284 -0.191777  0.070870
    11 x       0.178339 -0.032719  0.308994  0.379162 -0.119804  0.020346
    11 y      -0.190206  0.046925 -0.320493 -0.402529 -0.294613 -0.009137
    11 z      -0.082837  0.010611 -0.153921 -0.164564  0.414305 -0.065196
    12 x      -0.289800  0.426969 -0.118275  0.020469  0.168827  0.147007
    12 y       0.308768 -0.458684  0.126141 -0.016213  0.074262 -0.190069
    12 z       0.151120 -0.234218  0.076684 -0.045444  0.115835 -0.045595


  Frequency     193.6199  193.9492  223.2763  256.6288  287.9645  302.4003
  IR Intensity    0.0150    0.0222    0.0108    0.0002    0.0082    0.0000
     in X         0.0068    0.0007    0.0056    0.0001    0.0043    0.0000
     in Y         0.0081    0.0000    0.0050    0.0001    0.0038    0.0000
     in Z         0.0001    0.0215    0.0002    0.0000    0.0001    0.0000
  Raman Intsty    0.0000    0.0000    0.0383    0.0148    2.9268    0.0122

     1 x      -0.126758 -0.068876 -0.087604  0.000678  0.003620 -0.248354
     1 y       0.106697 -0.057168 -0.102321  0.010560  0.105616  0.269531
     1 z       0.018332 -0.155822  0.036425  0.003283 -0.278556  0.102437
     2 x      -0.067324 -0.025522 -0.193366  0.031905 -0.070352 -0.002482
     2 y       0.072855  0.003992 -0.181657  0.029973 -0.066092 -0.002332
     2 z       0.006188 -0.120299  0.034994 -0.005774  0.012732  0.000449
     3 x      -0.095599  0.029680 -0.111132  0.009769  0.156407  0.234067
     3 y       0.135969  0.035420 -0.084381 -0.000746  0.044721 -0.282952
     3 z       0.012693 -0.173658 -0.000460 -0.005174  0.249595 -0.099851
     4 x       0.224286  0.081063 -0.166938 -0.033578  0.201220 -0.079669
     4 y      -0.250421  0.059822 -0.111218  0.066611  0.215932  0.117794
     4 z      -0.030276  0.339814 -0.017681  0.029423 -0.159330  0.035242
     5 x      -0.129524  0.268582  0.275132 -0.200579  0.038419  0.234407
     5 y       0.275441  0.200760  0.212464 -0.004954  0.006106 -0.321629
     5 z       0.044533 -0.115877  0.190063  0.442707 -0.192504  0.073235
     6 x       0.221359  0.060580  0.093251 -0.044401 -0.180634 -0.097311
     6 y      -0.216297  0.202667  0.012200  0.059712 -0.246261  0.102004
     6 z      -0.126556 -0.110707  0.186337  0.005299  0.243508  0.055612
     7 x      -0.256061 -0.230716  0.184672 -0.097389  0.044067 -0.318989
     7 y       0.156566 -0.268305  0.219498 -0.274971  0.071385  0.242169
     7 z       0.067433 -0.025518 -0.273275 -0.388783  0.177576 -0.057928
     8 x       0.239709  0.091356 -0.256556  0.046678 -0.239775 -0.054017
     8 y      -0.257870 -0.034122 -0.241021  0.043852 -0.225256 -0.050746
     8 z      -0.014071  0.327671  0.046430 -0.008447  0.043393  0.009776
     9 x      -0.208322 -0.196677  0.237182  0.377313  0.174563 -0.074035
     9 y       0.183941 -0.228304  0.183165 -0.181390 -0.091558  0.274947
     9 z       0.087199 -0.049013 -0.225399  0.270752  0.094575  0.251230
    10 x      -0.154754  0.223397  0.232764 -0.212424 -0.099971  0.218970
    10 y       0.234265  0.166334  0.258325  0.336295  0.161633 -0.138789
    10 z       0.077505 -0.125035  0.140352 -0.300592 -0.108074 -0.277459
    11 x       0.178481 -0.222413 -0.019122  0.055612 -0.295582  0.085253
    11 y      -0.256578 -0.063190  0.057441 -0.049179 -0.201119 -0.113332
    11 z      -0.118796 -0.059493 -0.199753 -0.007328 -0.157325 -0.053430
    12 x       0.230021  0.001948 -0.113143  0.058300  0.250833  0.105372
    12 y      -0.245033 -0.014503 -0.151904 -0.043387  0.208748 -0.093647
    12 z      -0.031314  0.354132  0.068368 -0.033897  0.077521 -0.039893


  Frequency     327.1688  362.2932  365.5277  368.4941  374.7890  392.1958
  IR Intensity    0.0054    0.1280    0.0342    0.0125    0.0130    0.6935
     in X         0.0010    0.0248    0.0060    0.0065    0.0068    0.0887
     in Y         0.0004    0.0120    0.0115    0.0058    0.0060    0.0292
     in Z         0.0040    0.0912    0.0168    0.0002    0.0002    0.5756
  Raman Intsty    0.0000    0.0000    0.0000    0.8217    4.6878    0.0000

     1 x       0.005097 -0.014740  0.040567  0.000210 -0.006935 -0.015841
     1 y      -0.067281  0.068073 -0.029473 -0.031330  0.013283 -0.204579
     1 z       0.128635 -0.080657 -0.038648  0.078338 -0.051246  0.302517
     2 x      -0.024388 -0.098849  0.081088 -0.033687  0.086885  0.169699
     2 y       0.009919  0.073457 -0.102249 -0.031647  0.081624 -0.093789
     2 z      -0.083273 -0.164886 -0.082718  0.006097 -0.015724  0.450839
     3 x       0.090085 -0.081370  0.019815 -0.045529  0.022408  0.258558
     3 y       0.012561  0.005478 -0.048968 -0.011245  0.001254  0.053205
     3 z       0.113255 -0.068599 -0.034893 -0.070136  0.048446  0.252858
     4 x       0.255701  0.237288  0.057609  0.158256 -0.181076 -0.118503
     4 y       0.239822  0.171745  0.095795  0.131515 -0.148661 -0.073093
     4 z      -0.080162 -0.017397  0.006610 -0.013483  0.008763 -0.024593
     5 x      -0.169778  0.262300  0.014505  0.197011  0.240125  0.085365
     5 y       0.275333 -0.308284  0.080196 -0.292538 -0.236942  0.003817
     5 z      -0.084390  0.029868 -0.477202  0.210400 -0.256784 -0.280656
     6 x      -0.130212 -0.047629 -0.041623 -0.044414  0.053798 -0.029375
     6 y      -0.201252 -0.144800 -0.019834 -0.100407  0.127155 -0.001702
     6 z       0.263216  0.218533  0.087923  0.166814 -0.219707 -0.027432
     7 x      -0.278539  0.296468 -0.169494 -0.318025 -0.173293 -0.060556
     7 y       0.173158 -0.276184 -0.092658  0.178854  0.299726 -0.133268
     7 z      -0.064708  0.023683 -0.443905 -0.188496  0.244690 -0.254249
     8 x       0.012098  0.005484 -0.001254  0.263060 -0.086391 -0.025579
     8 y      -0.005823 -0.003408  0.001794  0.247131 -0.081160  0.014768
     8 z       0.036619  0.012609  0.002374 -0.047607  0.015634 -0.064684
     9 x       0.048169 -0.288627  0.112261 -0.022277  0.294851 -0.279560
     9 y      -0.235344  0.242344  0.163307 -0.216537 -0.305645  0.107136
     9 z      -0.220910 -0.059170  0.433610 -0.356478 -0.019419 -0.214747
    10 x       0.186993 -0.236156 -0.083226 -0.146038 -0.283127 -0.133320
    10 y      -0.104926  0.291638 -0.020341  0.058411  0.316660  0.244521
    10 z      -0.246033 -0.068664  0.468990  0.386935  0.017297 -0.241212
    11 x       0.252924  0.185450  0.037912 -0.131987  0.168636 -0.002216
    11 y       0.158685  0.074165  0.054885 -0.065312  0.081810  0.023813
    11 z       0.193878  0.176352  0.073528 -0.134892  0.179453 -0.032348
    12 x      -0.261716 -0.182258 -0.095271  0.138561 -0.155496  0.072295
    12 y      -0.246265 -0.222397 -0.047828  0.147328 -0.167532  0.106152
    12 z       0.013476  0.058530  0.034277 -0.040233  0.052148 -0.059122


  Frequency     431.0687  434.8596  466.3962  480.1879  531.8781  585.9944
  IR Intensity    0.0432    0.5068    0.1983    0.7229    0.0098    0.0049
     in X         0.0225    0.1818    0.0086    0.3774    0.0051    0.0004
     in Y         0.0199    0.2549    0.0002    0.3331    0.0045    0.0001
     in Z         0.0007    0.0701    0.1895    0.0124    0.0002    0.0045
  Raman Intsty    0.0749    0.0000    0.0000    0.0427    1.0892    0.0000

     1 x       0.124006  0.302352 -0.377130 -0.367983 -0.095975  0.012795
     1 y       0.064517 -0.267539 -0.292381 -0.355335  0.153155  0.192390
     1 z       0.176894 -0.150195 -0.210453  0.042675 -0.529426 -0.408629
     2 x      -0.407647  0.272305 -0.002876 -0.155542 -0.271056  0.227412
     2 y      -0.382961 -0.326102 -0.010561 -0.146124 -0.254643 -0.109921
     2 z       0.073773 -0.188144 -0.070714  0.028150  0.049054  0.685997
     3 x       0.035342  0.220701  0.263729 -0.372912  0.246047 -0.266518
     3 y       0.085186 -0.344246  0.309672 -0.340697 -0.012171 -0.070010
     3 z      -0.205732 -0.135419 -0.326431  0.091405  0.502268 -0.358081
     4 x      -0.105899 -0.026113 -0.234460  0.257911 -0.085549  0.085816
     4 y      -0.090434  0.079834 -0.202337  0.222919 -0.047977  0.059748
     4 z       0.027030  0.024452  0.054739 -0.040633 -0.046587  0.020779
     5 x       0.031312 -0.174772  0.006256  0.037411 -0.006720 -0.038521
     5 y       0.054431  0.161828  0.022356  0.049950  0.000252  0.031754
     5 z      -0.216895  0.210034  0.046275 -0.111047  0.127378 -0.005250
     6 x      -0.032925 -0.041213 -0.102134  0.091047  0.019118  0.004130
     6 y      -0.079497  0.071282 -0.184593  0.139329  0.088044 -0.033938
     6 z       0.148624  0.011259  0.277500 -0.167578 -0.181856  0.094674
     7 x       0.095769 -0.111332 -0.013463  0.071639 -0.024121 -0.030439
     7 y       0.064953  0.221427  0.003831  0.052497 -0.029226  0.039346
     7 z       0.193896  0.198554  0.049843  0.091311 -0.121797 -0.006712
     8 x       0.376701 -0.057476  0.004917  0.086555  0.184005 -0.018258
     8 y       0.353891  0.067499  0.000179  0.081314  0.172863  0.008712
     8 z      -0.068173  0.032787  0.028096 -0.015664 -0.033300 -0.055661
     9 x       0.148386 -0.202897 -0.001457  0.098309 -0.074087  0.016073
     9 y       0.015722  0.212263 -0.014005  0.025943  0.039119 -0.029235
     9 z       0.176823  0.020108  0.041595  0.077148 -0.089367 -0.042008
    10 x      -0.011430 -0.195456  0.021664  0.015217  0.051988  0.020030
    10 y       0.112939  0.219254  0.007715  0.080709 -0.059881 -0.025518
    10 z      -0.201608  0.018760  0.037412 -0.097693  0.093367 -0.042724
    11 x      -0.107527 -0.065978  0.238038  0.172374  0.121581  0.051001
    11 y      -0.052451  0.048017  0.134981  0.108141  0.044135  0.010095
    11 z      -0.123206  0.015740  0.215937  0.119907  0.156392  0.086191
    12 x      -0.098505 -0.072541  0.219200  0.237764 -0.042044 -0.058480
    12 y      -0.101593  0.036218  0.223853  0.242742 -0.071890 -0.075810
    12 z       0.009961  0.032854 -0.027361 -0.049071  0.069678  0.046893




--------------------------------------------------------------------------------
  Vibrational properties (for cluster):  Temperature  =       0.000 K
--------------------------------------------------------------------------------
  Zero point energy            =        0.514798 eV
--------------------------------------------------------------------------------

  Phonon density of states : 

--------------------------------------------------------------------------------
 Frequency (cm-1) Density of States                                             
--------------------------------------------------------------------------------
    0.00000 |***************                                               0.033
    9.15616 |                                                              0.000
   18.31233 |                                                              0.000
   27.46849 |                                                              0.000
   36.62465 |                                                              0.000
   45.78082 |                                                              0.000
   54.93698 |                                                              0.000
   64.09314 |                                                              0.000
   73.24931 |                                                              0.000
   82.40547 |                                                              0.000
   91.56163 |                                                              0.000
  100.71779 |                                                              0.000
  109.87396 |                                                              0.000
  119.03012 |                                                              0.000
  128.18628 |                                                              0.000
  137.34245 |******************************                                0.067
  146.49861 |************************************************************  0.133
  155.65477 |*********************************************                 0.100
  164.81094 |                                                              0.000
  173.96710 |******************************                                0.067
  183.12326 |                                                              0.000
  192.27943 |******************************                                0.067
  201.43559 |                                                              0.000
  210.59175 |                                                              0.000
  219.74792 |***************                                               0.033
  228.90408 |                                                              0.000
  238.06024 |                                                              0.000
  247.21641 |                                                              0.000
  256.37257 |***************                                               0.033
  265.52873 |                                                              0.000
  274.68490 |                                                              0.000
  283.84106 |***************                                               0.033
  292.99722 |                                                              0.000
  302.15338 |***************                                               0.033
  311.30955 |                                                              0.000
  320.46571 |***************                                               0.033
  329.62187 |                                                              0.000
  338.77804 |                                                              0.000
  347.93420 |                                                              0.000
  357.09036 |******************************                                0.067
  366.24653 |******************************                                0.067
  375.40269 |                                                              0.000
  384.55885 |***************                                               0.033
  393.71502 |                                                              0.000
  402.87118 |                                                              0.000
  412.02734 |                                                              0.000
  421.18351 |                                                              0.000
  430.33967 |******************************                                0.067
  439.49583 |                                                              0.000
  448.65200 |                                                              0.000
  457.80816 |***************                                               0.033
  466.96432 |                                                              0.000
  476.12048 |***************                                               0.033
  485.27665 |                                                              0.000
  494.43281 |                                                              0.000
  503.58897 |                                                              0.000
  512.74514 |                                                              0.000
  521.90130 |                                                              0.000
  531.05746 |***************                                               0.033
  540.21363 |                                                              0.000
  549.36979 |                                                              0.000
  558.52595 |                                                              0.000
  567.68212 |                                                              0.000
  576.83828 |***************                                               0.033
--------------------------------------------------------------------------------



  XYZ File written as 001/1/sp_mod_20/sp_mod_20_eig.xyz


  Time to end of properties =       0.0122 seconds


  Peak dynamic memory used =       0.64 MB 


  Timing analysis for GULP :

--------------------------------------------------------------------------------
  Task / Subroutine                                          Time (Seconds)
--------------------------------------------------------------------------------
  Calculation of phonons                                          0.0037
--------------------------------------------------------------------------------
  Total CPU time                                                  0.0122
--------------------------------------------------------------------------------


  Job Finished at 10:29.17 17th May        2022                               

