12
Properties=species:S:1:pos:R:3:forces:R:3 energy=-184.21970998 pbc="F F F"
Al    0.342788393    -0.443823758    1.897577939    -0.822253    5.330138    5.174286
Al    2.722094965    -1.807003072    -0.423197297    -3.822065    1.593837    2.794505
Al    -0.392179981    -1.729102558    -0.836947543    2.824746    1.679195    3.762816
F    3.347610307    -0.600546193    -1.05920778    1.310703    1.258293    -0.696753
F    -2.005965254    -0.387357488    -2.033147197    -1.088696    1.227477    -1.0463
F    2.696870195    -3.4990294939999997    -0.491073443    0.670132    -2.302504    -0.078744
F    -1.291404166    -3.8165722019999997    -1.09165332    -0.5617    -2.318318    -0.258198
F    1.965049397    -1.446298593    1.206113602    2.349451    -1.64292    -3.327121
F    0.18491516399999997    -1.522541082    -1.570526465    -0.074396    -0.234936    0.531386
F    0.123558152    -1.132694363    3.305776889    0.714284    2.171723    -5.094489
F    0.397835771    0.999061499    1.234662936    -0.239568    -5.072703    2.091652
F    -1.015098468    -1.527067383    0.609921414    -1.260638    -1.689282    -3.853041
