********************************************************************************
*                       GENERAL UTILITY LATTICE PROGRAM                        *
*                                 Julian Gale                                  *
*                       Curtin Institute for Computation                       *
*                           Department of Chemistry                            *
*                    Curtin University, Western Australia                      *
********************************************************************************
* Version = 5.1.1 * Last modified =  24th November 2018                        *
********************************************************************************
*  optimise     - perform optimisation run                                     *
*  conp         - constant pressure calculation                                *
*  shell        - only shells and radii to be optimised                        *
*  phonon       - calculate phonons for final geometry                         *
*  eigenvectors - output phonon eigenvectors                                   *
********************************************************************************

  Job Started  at 14:40.04 25th May        2022                               

  Number of CPUs =     1

  Host name      = login03                                 


  Total number of configurations input =      1

********************************************************************************
*  Input for Configuration =   1                                               *
********************************************************************************

  Formula = Al3F9                                                       

  Number of irreducible atoms/shells =      21


  Total number atoms/shells =      21

  Dimensionality = 0               :  Cluster


  Charge on cluster =  -0.000000


  Initial cluster dipoles : x =      0.398347 e.Angs
                            y =     -0.623093 e.Angs
                            z =     -0.367599 e.Angs

  Temperature of configuration =  0.000     K 

  Symmetry number =      1

  Cartesian coordinates of cluster :

--------------------------------------------------------------------------------
   No.  Atomic       x           y          z         Charge      Occupancy
        Label      (Angs)      (Angs)     (Angs)        (e)         (Frac)  
--------------------------------------------------------------------------------
      1 Al    c     -1.8460      2.5298     -1.0707     3.00000    1.000000    
      2 Al    c     -0.3312     -0.2515     -2.4339     3.00000    1.000000    
      3 Al    c     -2.1841     -0.0430     -0.6671     3.00000    1.000000    
      4 F     c     -0.8012      3.6768     -0.1138     0.59000    1.000000    
      5 F     c     -3.0025      3.1793     -2.3318     0.59000    1.000000    
      6 F     c     -1.1450     -1.6277     -1.9756     0.59000    1.000000    
      7 F     c     -2.7012      1.6453      0.4052     0.59000    1.000000    
      8 F     c     -3.1075     -1.0276      0.5070     0.59000    1.000000    
      9 F     c      0.7493     -0.7370     -3.8410     0.59000    1.000000    
     10 F     c     -0.6247      1.6052     -2.1927     0.59000    1.000000    
     11 F     c     -2.4937      0.4665     -2.2616     0.59000    1.000000    
     12 F     c     -0.3557      0.1480     -0.3430     0.59000    1.000000    
     13 F     s     -0.8012 *    3.6768 *   -0.1138 *  -1.59000    1.000000    
     14 F     s     -3.0025 *    3.1793 *   -2.3318 *  -1.59000    1.000000    
     15 F     s     -1.1450 *   -1.6277 *   -1.9756 *  -1.59000    1.000000    
     16 F     s     -2.7012 *    1.6453 *    0.4052 *  -1.59000    1.000000    
     17 F     s     -3.1075 *   -1.0276 *    0.5070 *  -1.59000    1.000000    
     18 F     s      0.7493 *   -0.7370 *   -3.8410 *  -1.59000    1.000000    
     19 F     s     -0.6247 *    1.6052 *   -2.1927 *  -1.59000    1.000000    
     20 F     s     -2.4937 *    0.4665 *   -2.2616 *  -1.59000    1.000000    
     21 F     s     -0.3557 *    0.1480 *   -0.3430 *  -1.59000    1.000000    
--------------------------------------------------------------------------------


  Brillouin zone sampling points :

--------------------------------------------------------------------------------
  Point number          x          y          z            Weight
--------------------------------------------------------------------------------
        1           0.000000   0.000000   0.000000     1.00000000
--------------------------------------------------------------------------------


********************************************************************************
*  General input information                                                   *
********************************************************************************

  Species output for all configurations : 

--------------------------------------------------------------------------------
  Species    Type    Atomic    Atomic    Charge       Radii (Angs)     Library
                     Number     Mass       (e)     Cova   Ionic  VDW   Symbol
--------------------------------------------------------------------------------
    Al       Core       13      26.98   3.000000   1.350  0.000  2.050          
    F        Core        9      19.00   0.590000   0.710  0.000  1.300          
    F        Shell       9       0.00  -1.590000   0.710  0.000  1.300          
--------------------------------------------------------------------------------


  Accuracy factor for short range sums = 12.000

  Time limit = Infinity

  Maximum range for interatomic potentials =    100000.000000 Angstroms

  General interatomic potentials :

--------------------------------------------------------------------------------
Atom  Types   Potential      Parameter       Value         Units   Cutoffs(Ang)
  1     2                                                            Min /  Max 
--------------------------------------------------------------------------------
Al   c F    s Buckingham    Buckingham A     3760.0008    eV        0.000 10.000
                            Buckingham rho  0.22200000    Ang       
                            Buckingham C     0.0000000    eV*Ang^6  
--------------------------------------------------------------------------------
F    s F    s Buck 4 range  Buck4 A          1127.7000    eV        0.000 12.000
                            Buck4 rho       0.27530000    Ang       
                            Buck4 C          15.830000    eV*Ang^6  
                            Buck4 minimum    2.7900000    Ang       
--------------------------------------------------------------------------------
F    c F    s Spring (c-s)  Spring k 2       20.770000    eV*Ang^-2 0.000  0.800
                            Spring k 4       0.0000000    eV*Ang^-4 
--------------------------------------------------------------------------------

********************************************************************************
*  Output for configuration   1                                                *
********************************************************************************


  Components of energy : 

--------------------------------------------------------------------------------
  Interatomic potentials     =          12.11271739 eV    
  Monopole - monopole (real) =        -177.64569173 eV    
--------------------------------------------------------------------------------
  Total lattice energy       =        -165.53297434 eV    
--------------------------------------------------------------------------------
  Total lattice energy       =          -15971.4016 kJ/mol
--------------------------------------------------------------------------------


  Number of variables =       27

  Maximum number of calculations  =          2000
  Maximum Hessian update interval =            10
  Maximum step size               =   1.000000000
  Maximum parameter tolerance     =   0.000001000
  Maximum function  tolerance     =   0.000010000
  Maximum gradient  tolerance     =   0.000000010
  Maximum gradient  component     =   0.010000000

  Symmetry not applied to optimisation

  Newton-Raphson optimiser to be used

  BFGS hessian update to be used

  Lower half triangular hessian to be used

  Minimiser to switch to RFO
  When gradient norm is less than     0.010000

  Shell only optimisation

  Start of cluster optimisation :

  Cycle:      0 Energy:      -165.532974  Gnorm:      1.460191  CPU:    0.004
  ** Hessian calculated **
  Cycle:      1 Energy:      -181.993917  Gnorm:      0.510832  CPU:    0.005
  ** Hessian calculated **
  Cycle:      2 Energy:      -183.173720  Gnorm:      0.031370  CPU:    0.007
  Cycle:      3 Energy:      -183.180023  Gnorm:      0.005261  CPU:    0.009
  ** Hessian has required structure
  Cycle:      4 Energy:      -183.180192  Gnorm:      0.001305  CPU:    0.010
  ** Hessian has required structure
  Cycle:      5 Energy:      -183.180202  Gnorm:      0.000621  CPU:    0.012
  ** Hessian has required structure
  Cycle:      6 Energy:      -183.180205  Gnorm:      0.000448  CPU:    0.013
  ** Hessian has required structure
  Cycle:      7 Energy:      -183.180207  Gnorm:      0.000194  CPU:    0.014
  ** Hessian has required structure
  Cycle:      8 Energy:      -183.180207  Gnorm:      0.000111  CPU:    0.016
  ** Hessian has required structure
  Cycle:      9 Energy:      -183.180207  Gnorm:      0.000071  CPU:    0.017
  ** Hessian has required structure
  Cycle:     10 Energy:      -183.180207  Gnorm:      0.000049  CPU:    0.018
  ** Hessian has required structure
  Cycle:     11 Energy:      -183.180207  Gnorm:      0.000043  CPU:    0.020
  ** Hessian has required structure
  Cycle:     12 Energy:      -183.180207  Gnorm:      0.000000  CPU:    0.021
  ** Hessian has required structure
  Cycle:     13 Energy:      -183.180207  Gnorm:      0.000000  CPU:    0.023
  ** Hessian has required structure
  Cycle:     14 Energy:      -183.180207  Gnorm:      0.000000  CPU:    0.024
  ** Hessian has required structure
  Cycle:     15 Energy:      -183.180207  Gnorm:      0.000000  CPU:    0.026
  ** Hessian has required structure
  Cycle:     16 Energy:      -183.180207  Gnorm:      0.000000  CPU:    0.028
  ** Hessian calculated **

  XYZ File written as 005/3/sp_mod_-100/sp_mod_-100_eig.xyz



  **** Optimisation achieved ****


  Final energy =    -183.18020694 eV
  Final Gnorm  =       0.00000004

  Components of energy : 

--------------------------------------------------------------------------------
  Interatomic potentials     =          40.29534266 eV    
  Monopole - monopole (real) =        -223.47554960 eV    
--------------------------------------------------------------------------------
  Total lattice energy       =        -183.18020694 eV    
--------------------------------------------------------------------------------
  Total lattice energy       =          -17674.0898 kJ/mol
--------------------------------------------------------------------------------

  Final cartesian coordinates of atoms :

--------------------------------------------------------------------------------
   No.  Atomic        x           y          z          Radius
        Label       (Angs)      (Angs)     (Angs)       (Angs) 
--------------------------------------------------------------------------------
     1  Al    c    -1.846029    2.529779   -1.070681    0.000000
     2  Al    c    -0.331176   -0.251546   -2.433862    0.000000
     3  Al    c    -2.184079   -0.042998   -0.667116    0.000000
     4  F     c    -0.801178    3.676822   -0.113799    0.000000
     5  F     c    -3.002452    3.179294   -2.331826    0.000000
     6  F     c    -1.144997   -1.627737   -1.975564    0.000000
     7  F     c    -2.701194    1.645284    0.405184    0.000000
     8  F     c    -3.107506   -1.027573    0.506971    0.000000
     9  F     c     0.749255   -0.736997   -3.840982    0.000000
    10  F     c    -0.624728    1.605229   -2.192688    0.000000
    11  F     c    -2.493676    0.466481   -2.261627    0.000000
    12  F     c    -0.355725    0.147997   -0.343049    0.000000
    13  F     s    -0.945422    3.497357   -0.264527    0.000000
    14  F     s    -2.831923    3.076879   -2.127867    0.000000
    15  F     s    -1.151717   -1.439291   -1.946235    0.000000
    16  F     s    -2.519061    1.543007    0.044571    0.000000
    17  F     s    -2.971955   -0.906691    0.316753    0.000000
    18  F     s     0.588079   -0.623804   -3.601900    0.000000
    19  F     s    -0.669173    1.497879   -2.114489    0.000000
    20  F     s    -2.418457    0.410862   -2.108214    0.000000
    21  F     s    -0.551357    0.086592   -0.544876    0.000000
--------------------------------------------------------------------------------


  Final Cartesian derivatives :

--------------------------------------------------------------------------------
   No.  Atomic          x             y             z           Radius
        Label       (eV/Angs)     (eV/Angs)    (eV/Angs)      (eV/Angs)
--------------------------------------------------------------------------------
      1 Al    c       0.000000      0.000000      0.000000      0.000000
      2 Al    c       0.000000      0.000000      0.000000      0.000000
      3 Al    c       0.000000      0.000000      0.000000      0.000000
      4 F     c       0.000000      0.000000      0.000000      0.000000
      5 F     c       0.000000      0.000000      0.000000      0.000000
      6 F     c       0.000000      0.000000      0.000000      0.000000
      7 F     c       0.000000      0.000000      0.000000      0.000000
      8 F     c       0.000000      0.000000      0.000000      0.000000
      9 F     c       0.000000      0.000000      0.000000      0.000000
     10 F     c       0.000000      0.000000      0.000000      0.000000
     11 F     c       0.000000      0.000000      0.000000      0.000000
     12 F     c       0.000000      0.000000      0.000000      0.000000
     13 F     s       0.000000      0.000000      0.000000      0.000000
     14 F     s      -0.000000      0.000000     -0.000000      0.000000
     15 F     s      -0.000000      0.000000     -0.000000      0.000000
     16 F     s       0.000000     -0.000000     -0.000000      0.000000
     17 F     s      -0.000000     -0.000000      0.000000      0.000000
     18 F     s       0.000000     -0.000000     -0.000000      0.000000
     19 F     s       0.000000      0.000000     -0.000000      0.000000
     20 F     s      -0.000000      0.000000      0.000000      0.000000
     21 F     s       0.000000      0.000000      0.000000      0.000000
--------------------------------------------------------------------------------
  Maximum abs         0.000000      0.000000      0.000000      0.000000
--------------------------------------------------------------------------------


  Born effective charge tensors : 

-------------------------------------------------------------------------------
  Atom             x           y             z
-------------------------------------------------------------------------------
    1 Al    x       0.8389     -0.3607     -0.4644
            y      -0.3148      1.5305      0.4160
            z      -0.4508      0.3291      0.8274
-------------------------------------------------------------------------------
    2 Al    x       1.5409     -0.4359      0.2921
            y      -0.4950      1.0321      0.0968
            z       0.2237      0.1094      1.4499
-------------------------------------------------------------------------------
    3 Al    x       0.9569     -0.1917     -0.3338
            y      -0.2340      1.5949      0.5447
            z      -0.2811      0.5245      0.7120
-------------------------------------------------------------------------------
    4 F     x      -0.3273      0.2034      0.1705
            y       0.2346     -0.3719      0.1710
            z       0.1816      0.1390     -0.3597
-------------------------------------------------------------------------------
    5 F     x      -0.2909     -0.0440      0.2671
            y      -0.1096     -0.5573     -0.1791
            z       0.2332     -0.1461     -0.2599
-------------------------------------------------------------------------------
    6 F     x      -0.4249      0.3783      0.0646
            y       0.4937     -0.3347     -0.3417
            z       0.1122     -0.3352     -0.5628
-------------------------------------------------------------------------------
    7 F     x      -0.2312      0.1047      0.0054
            y       0.0959     -0.3467     -0.1819
            z       0.0085     -0.1305     -0.1991
-------------------------------------------------------------------------------
    8 F     x      -0.3562      0.1780     -0.1903
            y       0.1805     -0.3686     -0.2472
            z      -0.1677     -0.2274     -0.2694
-------------------------------------------------------------------------------
    9 F     x      -0.3384     -0.0848     -0.2871
            y      -0.0359     -0.4447      0.0884
            z      -0.2543      0.1404     -0.1992
-------------------------------------------------------------------------------
   10 F     x      -0.5451      0.0996      0.1849
            y       0.0900     -0.6459     -0.0931
            z       0.1409     -0.0725     -0.4835
-------------------------------------------------------------------------------
   11 F     x      -0.7033      0.0704      0.2098
            y       0.0638     -0.6379     -0.2729
            z       0.1425     -0.2224     -0.0162
-------------------------------------------------------------------------------
   12 F     x      -0.1194      0.0828      0.0811
            y       0.0307     -0.4498     -0.0009
            z       0.1112     -0.1082     -0.6396
-------------------------------------------------------------------------------




  Moment of inertia tensor (10^-46 x kgm^2): 

-------------------------------------------------------------------------------
                x           y           z           Principal axis system
-------------------------------------------------------------------------------
       x        173.12       17.18       31.10          104.389263
       y         17.18      121.17      -16.13          153.956698
       z         31.10      -16.13      164.23          200.169796
-------------------------------------------------------------------------------
  Centre of mass (Ang) =    -1.483803     0.792069    -1.362831
-------------------------------------------------------------------------------


  Vibrational Frequency Calculation : 

--------------------------------------------------------------------------------

  Frequencies (cm-1) and Eigenvectors : 

  Frequency    -278.5310 -191.8431 -129.5074  -75.1781   -0.0000   -0.0000
  IR Intensity    0.1090    0.0368    0.0124    0.0003    0.0000    0.0000
     in X         0.0482    0.0021    0.0027    0.0002    0.0000    0.0000
     in Y         0.0588    0.0063    0.0082    0.0000    0.0000    0.0000
     in Z         0.0019    0.0284    0.0015    0.0000    0.0000    0.0000
  Raman Intsty    0.0933    0.2043    0.9047    0.1480    0.0000    0.0000

     1 x      -0.169056  0.062500  0.203574 -0.219606  0.280814  0.053756
     1 y      -0.150356  0.141691 -0.092885 -0.048630  0.156375  0.029828
     1 z      -0.015771 -0.031581  0.125536  0.193266  0.061477 -0.321418
     2 x       0.377342  0.209146 -0.039587  0.052793  0.280814  0.053756
     2 y       0.034511 -0.190498  0.096268  0.275548  0.156375  0.029828
     2 z       0.124779  0.357864  0.063054 -0.076968  0.061477 -0.321418
     3 x       0.092073 -0.185863 -0.247223  0.134018  0.280814  0.053756
     3 y      -0.196621  0.175918 -0.152209 -0.233300  0.156375  0.029828
     3 z      -0.114907 -0.086386 -0.243226 -0.108647  0.061477 -0.321418
     4 x      -0.000495 -0.025409  0.044863 -0.279624  0.235654  0.045111
     4 y      -0.124268  0.099372 -0.072374  0.018269  0.131227  0.025031
     4 z      -0.102593  0.071722  0.221976  0.199863  0.051590 -0.269728
     5 x       0.033396 -0.037791  0.213864 -0.222384  0.235654  0.045111
     5 y       0.115509  0.052335 -0.000640 -0.066494  0.131227  0.025031
     5 z      -0.025145  0.025586  0.079413  0.183340  0.051590 -0.269728
     6 x      -0.378391 -0.207233 -0.120724  0.224175  0.235654  0.045111
     6 y       0.357557 -0.191149  0.117144  0.047179  0.131227  0.025031
     6 z      -0.072705 -0.525023  0.045846 -0.249352  0.051590 -0.269728
     7 x       0.046789  0.078718 -0.143989 -0.017512  0.235654  0.045111
     7 y      -0.086340  0.066284 -0.106144 -0.282034  0.131227  0.025031
     7 z       0.079538 -0.018633 -0.101310  0.074004  0.051590 -0.269728
     8 x       0.061889  0.009833 -0.300009  0.166618  0.235654  0.045111
     8 y      -0.042665  0.055589 -0.068925 -0.289933  0.131227  0.025031
     8 z      -0.002045 -0.009031 -0.233622 -0.130922  0.051590 -0.269728
     9 x       0.091109  0.174022 -0.050876  0.060576  0.235654  0.045111
     9 y      -0.165122  0.153379 -0.080161  0.343008  0.131227  0.025031
     9 z       0.021507  0.183088  0.086309 -0.090155  0.051590 -0.269728
    10 x       0.040847 -0.046571  0.318124 -0.052442  0.235654  0.045111
    10 y      -0.126658 -0.012977  0.119343  0.203523  0.131227  0.025031
    10 z      -0.109148  0.228001  0.076973  0.105128  0.051590 -0.269728
    11 x      -0.304251  0.006980  0.373207  0.059556  0.235654  0.045111
    11 y       0.440431 -0.014040  0.224589  0.041549  0.131227  0.025031
    11 z       0.184851 -0.132556 -0.220092 -0.010579  0.051590 -0.269728
    12 x       0.051188 -0.054771 -0.235273  0.100118  0.235654  0.045111
    12 y       0.003900 -0.360261  0.044514 -0.007460  0.131227  0.025031
    12 z       0.032770 -0.109025  0.109613 -0.090445  0.051590 -0.269728


  Frequency       0.0000   27.3211   52.3189   62.3991   92.5280  117.0614
  IR Intensity    0.0000    0.0023    0.0191    0.0120    0.0153    0.0040
     in X         0.0000    0.0002    0.0129    0.0057    0.0130    0.0030
     in Y         0.0000    0.0021    0.0001    0.0037    0.0016    0.0010
     in Z         0.0000    0.0000    0.0061    0.0025    0.0007    0.0000
  Raman Intsty    0.0000    3.3940    1.0302    0.8464    1.0591    0.7781

     1 x       0.159195 -0.195547 -0.080058  0.034926  0.051976 -0.117045
     1 y      -0.285913 -0.031767 -0.180636 -0.132890 -0.052334  0.068647
     1 z       0.000092 -0.247916 -0.138887 -0.110946 -0.120385  0.044239
     2 x       0.159195  0.136079  0.103854 -0.194572 -0.142303  0.120309
     2 y      -0.285913  0.002947  0.135423  0.028261  0.014128 -0.043437
     2 z       0.000092  0.209564  0.082774 -0.109963  0.059199 -0.049522
     3 x       0.159195  0.068278 -0.209448  0.031941 -0.107699  0.083847
     3 y      -0.285913 -0.032692 -0.002991 -0.032213 -0.029686  0.033027
     3 z       0.000092  0.031655  0.187293  0.296858 -0.001654  0.005953
     4 x       0.133593 -0.453852  0.133194 -0.020898 -0.120501 -0.258311
     4 y      -0.239933  0.271520 -0.336006  0.018706 -0.124885 -0.013213
     4 z       0.000077 -0.240554 -0.117051 -0.185908  0.179801  0.303101
     5 x       0.133593 -0.179649  0.071851 -0.007000  0.094732  0.485800
     5 y      -0.239933 -0.259543  0.013416 -0.098448  0.055533  0.170372
     5 z       0.000077 -0.315264 -0.156557 -0.052980 -0.103550 -0.438962
     6 x       0.133593  0.035401  0.330377 -0.083463 -0.190547  0.122825
     6 y      -0.239933  0.047950 -0.101023 -0.078625  0.002409 -0.010853
     6 z       0.000077  0.194474 -0.188161 -0.264887 -0.068082  0.032593
     7 x       0.133593 -0.034757 -0.249712  0.172606 -0.185519 -0.177799
     7 y      -0.239933  0.013825  0.093850  0.070400  0.009503  0.011508
     7 z       0.000077 -0.098202 -0.024268  0.145496 -0.177383 -0.063985
     8 x       0.133593 -0.025225 -0.140660 -0.183545  0.602336 -0.017477
     8 y      -0.239933  0.016797 -0.090928  0.009107 -0.081936  0.021852
     8 z       0.000077 -0.001535  0.107285  0.112227  0.504596 -0.069594
     9 x       0.133593  0.143134  0.305467 -0.316268 -0.169784 -0.109635
     9 y      -0.239933 -0.108601  0.311092  0.157632 -0.039876  0.106968
     9 z       0.000077  0.236078  0.167568 -0.258909  0.030886 -0.257883
    10 x       0.133593  0.193735  0.032494  0.353506  0.093395 -0.003515
    10 y      -0.239933  0.060068 -0.015578  0.043944  0.134740 -0.173556
    10 z       0.000077  0.127621 -0.229014  0.105566 -0.103441  0.272629
    11 x       0.133593  0.265328 -0.041379  0.179037  0.159188 -0.166586
    11 y      -0.239933 -0.026969  0.031186  0.279996  0.043753 -0.043192
    11 z       0.000077 -0.026711  0.147786  0.305211 -0.046172  0.039666
    12 x       0.133593  0.045386 -0.220404  0.058204 -0.047325  0.020893
    12 y      -0.239933  0.058252  0.151433 -0.239646  0.081661 -0.139283
    12 z       0.000077  0.132073  0.136092  0.003680 -0.141773  0.181635


  Frequency     158.2042  166.6896  177.8460  192.6145  199.9523  215.1088
  IR Intensity    0.0150    0.0137    0.0052    0.0658    0.0046    0.0641
     in X         0.0093    0.0012    0.0042    0.0323    0.0018    0.0037
     in Y         0.0001    0.0081    0.0000    0.0178    0.0005    0.0591
     in Z         0.0056    0.0044    0.0010    0.0157    0.0023    0.0012
  Raman Intsty    0.0033    0.0686    0.3755    0.1157    1.6303    0.6803

     1 x      -0.036893 -0.021835 -0.204696 -0.212780 -0.002870 -0.004036
     1 y       0.016381 -0.058386  0.015049  0.120515  0.006311 -0.103337
     1 z      -0.020284  0.174007 -0.222621  0.114897  0.080218 -0.073173
     2 x       0.264378  0.101614  0.131868 -0.209994  0.246458 -0.144864
     2 y      -0.035907  0.105496 -0.049906  0.089211 -0.023916 -0.040981
     2 z       0.292744 -0.086199  0.097412 -0.352701 -0.005022  0.062674
     3 x      -0.079382 -0.011034  0.181938  0.064295 -0.149783 -0.018098
     3 y       0.026684 -0.221600  0.051415  0.037401  0.028346 -0.297493
     3 z      -0.128015 -0.194807  0.028285 -0.017731 -0.012173 -0.075097
     4 x       0.294017  0.046291 -0.010574  0.268718 -0.185930 -0.090246
     4 y      -0.033679  0.043585 -0.499910 -0.032123  0.261586  0.194718
     4 z      -0.327130 -0.041979  0.233317 -0.246053 -0.033676 -0.316825
     5 x      -0.177388  0.023885 -0.327075 -0.084224 -0.038418  0.174676
     5 y      -0.039290 -0.289123  0.320782  0.116602  0.187504  0.608342
     5 z       0.087854 -0.009820  0.099009  0.009136  0.203557  0.130138
     6 x       0.068111  0.064210  0.082294  0.002770  0.459963  0.061747
     6 y       0.043146  0.103104 -0.043786  0.044819 -0.206295 -0.117444
     6 z       0.186103 -0.101387  0.051590 -0.115213 -0.203139  0.243830
     7 x      -0.122804 -0.015516 -0.074892 -0.339628 -0.071770  0.083712
     7 y       0.010003 -0.190096 -0.002398  0.013943  0.049238 -0.212740
     7 z      -0.073144 -0.000159 -0.148351 -0.065588  0.063156 -0.117628
     8 x       0.211815 -0.135880 -0.184059  0.172841  0.029574 -0.077095
     8 y      -0.130472  0.638405  0.316195 -0.027694  0.001471  0.015049
     8 z      -0.023773  0.460643 -0.018133  0.021258  0.103101  0.144582
     9 x      -0.382098  0.047987 -0.101836  0.264525 -0.144003  0.053113
     9 y       0.262976  0.083299 -0.121246 -0.249296 -0.513518  0.228183
     9 z      -0.312657 -0.110370 -0.059616  0.132943 -0.156088  0.132380
    10 x       0.018947 -0.029216  0.055863  0.140579  0.017615 -0.051748
    10 y      -0.087524 -0.039340  0.078888 -0.028396 -0.044459  0.006717
    10 z       0.208181  0.025134  0.058431  0.445189 -0.123794 -0.015808
    11 x       0.023415 -0.022372  0.215205  0.015158  0.004750  0.031635
    11 y      -0.044185 -0.091533 -0.014495  0.056479  0.208399  0.012154
    11 z      -0.153386 -0.136665 -0.011773 -0.003995  0.028109 -0.006677
    12 x      -0.110500 -0.061309  0.215055 -0.013562 -0.183562  0.013208
    12 y       0.010497 -0.050373 -0.053760 -0.188820  0.043274 -0.208501
    12 z       0.235827  0.042108 -0.088975  0.126829  0.043673 -0.091991


  Frequency     231.6433  254.7699  279.7715  293.9456  304.7956  348.0079
  IR Intensity    0.0669    0.0243    0.0092    0.0431    0.0205    0.0171
     in X         0.0055    0.0165    0.0008    0.0125    0.0128    0.0011
     in Y         0.0162    0.0077    0.0036    0.0102    0.0069    0.0001
     in Z         0.0452    0.0000    0.0047    0.0205    0.0008    0.0160
  Raman Intsty    0.1211    0.2182    0.1028    0.0412    0.0007    0.1407

     1 x      -0.162996  0.100091 -0.062028 -0.116765  0.257538 -0.156738
     1 y       0.088968 -0.109398  0.113542  0.022290  0.010442 -0.087068
     1 z       0.104934  0.018450  0.143990 -0.117957 -0.141881  0.154451
     2 x      -0.033118  0.131557  0.013548 -0.037166  0.005326  0.207279
     2 y       0.276686 -0.045069 -0.038160  0.145516  0.273683 -0.018390
     2 z       0.275656 -0.084775  0.007145 -0.165363  0.069640 -0.003870
     3 x       0.085213  0.127653  0.094171 -0.130362  0.031052 -0.156932
     3 y      -0.131064 -0.020486  0.038235  0.050810 -0.043260  0.159723
     3 z       0.045413  0.195794  0.051656 -0.044862  0.022150  0.074875
     4 x       0.232909 -0.130841  0.084524 -0.089159 -0.004048 -0.030142
     4 y      -0.033522  0.170873  0.088897 -0.170241  0.074596 -0.023441
     4 z      -0.181406 -0.065418  0.012228  0.061339  0.102250 -0.105751
     5 x       0.231679  0.029791  0.022586 -0.087253 -0.079019  0.109804
     5 y       0.063468  0.203220 -0.119282  0.185638 -0.094508  0.026240
     5 z      -0.268128  0.255917 -0.058052 -0.078134  0.116796 -0.003000
     6 x       0.028683 -0.322375 -0.042287 -0.006265  0.138601 -0.013473
     6 y       0.026333  0.173194  0.012679  0.207698  0.200457  0.207763
     6 z      -0.282290 -0.296479  0.076403 -0.012064  0.020449  0.214844
     7 x       0.080988 -0.253804 -0.272111  0.507491 -0.092246 -0.211107
     7 y      -0.121871  0.027355  0.019783  0.061820  0.079155  0.100733
     7 z       0.085448 -0.092390 -0.036603  0.236070 -0.362636  0.396983
     8 x      -0.098463 -0.101998  0.023797  0.122153 -0.030010 -0.028855
     8 y      -0.056420 -0.036688  0.001914 -0.060030 -0.041198 -0.047966
     8 z      -0.039249  0.005289 -0.040576  0.066110 -0.018814  0.018433
     9 x      -0.347879  0.062224  0.012453  0.065115 -0.117718  0.088478
     9 y      -0.266459  0.020124  0.046679 -0.061374 -0.080061 -0.028198
     9 z       0.201714 -0.170991 -0.021015 -0.035401  0.113471 -0.153399
    10 x      -0.199354  0.032680 -0.434655 -0.057548  0.171125  0.219647
    10 y       0.258654 -0.100770 -0.041080 -0.018962  0.212843  0.250235
    10 z       0.007233 -0.110852 -0.404489 -0.103079 -0.157570 -0.115393
    11 x       0.085529  0.187838  0.425762  0.156161 -0.396506  0.034407
    11 y      -0.246531 -0.465232  0.267259 -0.175144 -0.166030 -0.258905
    11 z       0.005382  0.063193  0.056854 -0.180127  0.088968 -0.077293
    12 x       0.118063  0.068330  0.125484 -0.271921  0.059580 -0.041980
    12 y       0.096801  0.216403 -0.412239 -0.229916 -0.472280 -0.291125
    12 z      -0.036345  0.257450  0.173596  0.436360  0.156776 -0.444087


  Frequency     371.2878  404.0623  454.2555  472.8376  546.4544  583.2251
  IR Intensity    0.0148    0.0236    0.0410    0.0995    0.0057    0.0812
     in X         0.0091    0.0066    0.0143    0.0053    0.0024    0.0237
     in Y         0.0023    0.0064    0.0210    0.0811    0.0032    0.0317
     in Z         0.0034    0.0106    0.0057    0.0132    0.0002    0.0257
  Raman Intsty    0.2708    2.4001    0.0466    1.1008    2.2418    0.2445

     1 x       0.163496  0.205364 -0.110373 -0.054720 -0.076563  0.347600
     1 y       0.031638 -0.451263  0.130306 -0.017995 -0.000122 -0.153909
     1 z      -0.143901 -0.126945  0.083919  0.058434  0.074203 -0.300567
     2 x       0.161543 -0.093621 -0.084167  0.004811  0.025072 -0.001547
     2 y       0.118553  0.176877  0.186228 -0.108133 -0.002211  0.006210
     2 z      -0.077643  0.010966  0.052178 -0.007725  0.021638 -0.010736
     3 x      -0.156566  0.040004  0.024289  0.118242  0.188062  0.069273
     3 y      -0.162100  0.173996 -0.160176 -0.466813 -0.145679 -0.174332
     3 z       0.122469 -0.053830 -0.078821 -0.215834 -0.034053 -0.071969
     4 x       0.053280 -0.269404  0.029928  0.004066 -0.040253  0.203483
     4 y       0.015852 -0.191602  0.083534 -0.019559 -0.042207  0.240943
     4 z       0.056401 -0.200262  0.106484  0.022593 -0.034160  0.215382
     5 x      -0.035636  0.210244 -0.104924  0.004180  0.071654 -0.313339
     5 y      -0.039383 -0.073149  0.053283 -0.006532 -0.041006  0.175251
     5 z      -0.023035  0.230094 -0.017753  0.010148  0.080330 -0.311104
     6 x       0.067142  0.094969  0.106301 -0.072249 -0.030927  0.010409
     6 y       0.308004  0.099645  0.134676 -0.223291 -0.034800  0.005453
     6 z       0.058499 -0.056832 -0.058438  0.011722  0.016226 -0.008953
     7 x       0.111666 -0.108561 -0.037664 -0.019843  0.060443 -0.267626
     7 y       0.167522  0.197541  0.280907  0.699634  0.129233 -0.128470
     7 z      -0.228944  0.188011  0.086968  0.096117 -0.130521  0.458597
     8 x      -0.188483  0.132765 -0.014148 -0.061193  0.276197  0.070699
     8 y      -0.233419  0.171582 -0.040728 -0.067814  0.308374  0.100509
     8 z       0.201313 -0.151934  0.017806  0.075681 -0.351614 -0.088793
     9 x       0.095532 -0.118909 -0.193963  0.067628 -0.054018 -0.015260
     9 y      -0.093704 -0.015786  0.096857  0.008779  0.030049  0.002230
     9 z      -0.141527  0.160673  0.251435 -0.075038  0.065039  0.022406
    10 x      -0.394559 -0.285114  0.245002 -0.042083 -0.006893 -0.080839
    10 y      -0.096971 -0.102818 -0.679458  0.285566  0.012206  0.030236
    10 z       0.352209  0.202277 -0.147671  0.022957 -0.001348  0.063294
    11 x       0.192331  0.013059  0.083160 -0.059621  0.124085 -0.004309
    11 y      -0.003030  0.079831 -0.081813  0.001635 -0.138496 -0.031766
    11 z       0.163228 -0.169144 -0.094399 -0.095468  0.437176  0.090861
    12 x      -0.102032  0.150122  0.089183  0.097688 -0.563031 -0.098138
    12 y      -0.010682 -0.045616 -0.033581  0.028152 -0.046976 -0.010641
    12 z      -0.320082 -0.000533 -0.212684  0.128055 -0.154758  0.015032


  Frequency     701.3850  731.0529  734.8030  789.1363  814.9450  915.8333
  IR Intensity    0.0279    0.0405    0.0154    0.0074    0.0116    0.0006
     in X         0.0241    0.0000    0.0027    0.0011    0.0041    0.0005
     in Y         0.0014    0.0379    0.0000    0.0011    0.0008    0.0000
     in Z         0.0024    0.0026    0.0127    0.0052    0.0068    0.0000
  Raman Intsty    0.0025    0.0286    0.1764    0.0106    0.1315    1.5039

     1 x       0.012709 -0.144543 -0.206456 -0.444216 -0.009629 -0.051188
     1 y       0.052299 -0.348750 -0.535547  0.008509 -0.101343 -0.207924
     1 z      -0.082074  0.174991  0.144743 -0.575104  0.010609  0.039067
     2 x       0.122123  0.091746 -0.059614 -0.015976  0.428564 -0.246453
     2 y      -0.164812 -0.486770  0.277005 -0.021654  0.333817 -0.054089
     2 z      -0.131535 -0.254893  0.163564 -0.020090 -0.395099  0.221602
     3 x       0.586786 -0.186914  0.098914 -0.076940 -0.049827  0.287934
     3 y       0.062029  0.045903  0.087546 -0.036479  0.203856  0.375749
     3 z       0.189024 -0.012032  0.268141 -0.045766 -0.214092 -0.576095
     4 x      -0.002598  0.132086  0.220505  0.245771  0.019420  0.033352
     4 y      -0.003787  0.145718  0.258768  0.249501  0.030929  0.041707
     4 z       0.005884  0.098484  0.185674  0.230152  0.025500  0.029054
     5 x       0.048310 -0.085329 -0.091683  0.326946 -0.019810 -0.013534
     5 y      -0.033251  0.063562  0.071021 -0.177862  0.005491  0.014045
     5 z       0.060807 -0.116645 -0.114121  0.358599 -0.014820 -0.020121
     6 x       0.015813  0.187845 -0.106409  0.021326 -0.249051  0.086762
     6 y       0.064284  0.310442 -0.168674  0.010818 -0.427498  0.097328
     6 z      -0.037406 -0.097252  0.050672  0.001930  0.150044 -0.045616
     7 x      -0.056709  0.106946  0.120343 -0.027111  0.020043  0.008848
     7 y      -0.028209  0.083283  0.090782 -0.039440 -0.002760  0.034343
     7 z       0.032924 -0.164960 -0.230398  0.099904 -0.019699 -0.007689
     8 x      -0.175984  0.043891  0.041794  0.014678 -0.083187 -0.185173
     8 y      -0.171750  0.046004  0.052695  0.015782 -0.090955 -0.197619
     8 z       0.192584 -0.044098 -0.062667 -0.013375  0.115811  0.241118
     9 x      -0.169767 -0.237296  0.142537 -0.003694 -0.201040  0.086070
     9 y       0.075312  0.118751 -0.070961  0.003848  0.068613 -0.032656
     9 z       0.219883  0.311354 -0.186954  0.007612  0.253029 -0.109040
    10 x      -0.027449 -0.013764 -0.008101 -0.002914 -0.017213  0.013618
    10 y       0.061200  0.147793 -0.055498  0.010217 -0.007573 -0.017023
    10 z       0.002449  0.015879  0.000239  0.016892  0.027894 -0.017373
    11 x      -0.071014  0.024512 -0.031976  0.024317  0.051985  0.059988
    11 y       0.123663 -0.008001  0.054334 -0.020763 -0.076061 -0.073101
    11 z      -0.375466  0.062190 -0.264423  0.032131  0.168454  0.302104
    12 x      -0.420509  0.126756 -0.087821  0.040747  0.039010 -0.078364
    12 y      -0.027303  0.033385 -0.028701  0.007033 -0.020133 -0.002557
    12 z      -0.072364  0.044600 -0.064941  0.029949  0.007080  0.003435




--------------------------------------------------------------------------------
  Vibrational properties (for cluster):  Temperature  =       0.000 K
--------------------------------------------------------------------------------
  Zero point energy            =        0.662964 eV
--------------------------------------------------------------------------------

  Phonon density of states : 

--------------------------------------------------------------------------------
 Frequency (cm-1) Density of States                                             
--------------------------------------------------------------------------------
    0.00000 |******************************                                0.033
   14.30990 |******************************                                0.033
   28.61979 |                                                              0.000
   42.92969 |******************************                                0.033
   57.23958 |******************************                                0.033
   71.54948 |                                                              0.000
   85.85937 |******************************                                0.033
  100.16927 |                                                              0.000
  114.47916 |******************************                                0.033
  128.78906 |                                                              0.000
  143.09896 |                                                              0.000
  157.40885 |************************************************************  0.067
  171.71875 |******************************                                0.033
  186.02864 |************************************************************  0.067
  200.33854 |                                                              0.000
  214.64843 |******************************                                0.033
  228.95833 |******************************                                0.033
  243.26823 |******************************                                0.033
  257.57812 |                                                              0.000
  271.88802 |******************************                                0.033
  286.19791 |******************************                                0.033
  300.50781 |******************************                                0.033
  314.81770 |                                                              0.000
  329.12760 |                                                              0.000
  343.43749 |******************************                                0.033
  357.74739 |******************************                                0.033
  372.05729 |                                                              0.000
  386.36718 |                                                              0.000
  400.67708 |******************************                                0.033
  414.98697 |                                                              0.000
  429.29687 |                                                              0.000
  443.60676 |******************************                                0.033
  457.91666 |                                                              0.000
  472.22655 |******************************                                0.033
  486.53645 |                                                              0.000
  500.84635 |                                                              0.000
  515.15624 |                                                              0.000
  529.46614 |                                                              0.000
  543.77603 |******************************                                0.033
  558.08593 |                                                              0.000
  572.39582 |******************************                                0.033
  586.70572 |                                                              0.000
  601.01561 |                                                              0.000
  615.32551 |                                                              0.000
  629.63541 |                                                              0.000
  643.94530 |                                                              0.000
  658.25520 |                                                              0.000
  672.56509 |                                                              0.000
  686.87499 |                                                              0.000
  701.18488 |******************************                                0.033
  715.49478 |                                                              0.000
  729.80468 |************************************************************  0.067
  744.11457 |                                                              0.000
  758.42447 |                                                              0.000
  772.73436 |                                                              0.000
  787.04426 |******************************                                0.033
  801.35415 |******************************                                0.033
  815.66405 |                                                              0.000
  829.97394 |                                                              0.000
  844.28384 |                                                              0.000
  858.59374 |                                                              0.000
  872.90363 |                                                              0.000
  887.21353 |                                                              0.000
  901.52342 |******************************                                0.033
--------------------------------------------------------------------------------



  Time to end of optimisation =       0.0378 seconds


  Peak dynamic memory used =       0.65 MB 


  Timing analysis for GULP :

--------------------------------------------------------------------------------
  Task / Subroutine                                          Time (Seconds)
--------------------------------------------------------------------------------
  Calculation of real space energy and derivatives                0.0026
  Calculation of phonons                                          0.0017
  Calculation and manipulation of Hessian matrix                  0.0017
--------------------------------------------------------------------------------
  Total CPU time                                                  0.0378
--------------------------------------------------------------------------------


  Job Finished at 14:40.04 25th May        2022                               

