********************************************************************************
*                       GENERAL UTILITY LATTICE PROGRAM                        *
*                                 Julian Gale                                  *
*                       Curtin Institute for Computation                       *
*                           Department of Chemistry                            *
*                    Curtin University, Western Australia                      *
********************************************************************************
* Version = 5.1.1 * Last modified =  24th November 2018                        *
********************************************************************************
*  optimise     - perform optimisation run                                     *
*  conp         - constant pressure calculation                                *
*  shell        - only shells and radii to be optimised                        *
*  phonon       - calculate phonons for final geometry                         *
*  eigenvectors - output phonon eigenvectors                                   *
********************************************************************************

  Job Started  at 14:40.19 25th May        2022                               

  Number of CPUs =     1

  Host name      = login03                                 


  Total number of configurations input =      1

********************************************************************************
*  Input for Configuration =   1                                               *
********************************************************************************

  Formula = Al3F9                                                       

  Number of irreducible atoms/shells =      21


  Total number atoms/shells =      21

  Dimensionality = 0               :  Cluster


  Charge on cluster =  -0.000000


  Initial cluster dipoles : x =     -0.000000 e.Angs
                            y =     -0.000000 e.Angs
                            z =     -0.000000 e.Angs

  Temperature of configuration =  0.000     K 

  Symmetry number =      1

  Cartesian coordinates of cluster :

--------------------------------------------------------------------------------
   No.  Atomic       x           y          z         Charge      Occupancy
        Label      (Angs)      (Angs)     (Angs)        (e)         (Frac)  
--------------------------------------------------------------------------------
      1 Al    c      0.4462     -2.2850     -2.1971     3.00000    1.000000    
      2 Al    c      1.9543     -0.5612     -0.6331     3.00000    1.000000    
      3 Al    c     -0.4255      0.2863     -1.6064     3.00000    1.000000    
      4 F     c      3.7166     -0.1570     -0.2298     0.59000    1.000000    
      5 F     c     -0.3609     -4.0811     -1.8089     0.59000    1.000000    
      6 F     c      2.2533     -1.7546     -2.3451     0.59000    1.000000    
      7 F     c      1.4105      0.5579     -2.0772     0.59000    1.000000    
      8 F     c     -1.3806      1.6782     -2.3979     0.59000    1.000000    
      9 F     c     -1.0374     -1.3727     -1.0781     0.59000    1.000000    
     10 F     c     -0.1322     -0.8959     -3.3313     0.59000    1.000000    
     11 F     c      0.4319      0.4477      0.1848     0.59000    1.000000    
     12 F     c      1.0239     -2.1023     -0.2264     0.59000    1.000000    
     13 F     s      3.7166 *   -0.1570 *   -0.2298 *  -1.59000    1.000000    
     14 F     s     -0.3609 *   -4.0811 *   -1.8089 *  -1.59000    1.000000    
     15 F     s      2.2533 *   -1.7546 *   -2.3451 *  -1.59000    1.000000    
     16 F     s      1.4105 *    0.5579 *   -2.0772 *  -1.59000    1.000000    
     17 F     s     -1.3806 *    1.6782 *   -2.3979 *  -1.59000    1.000000    
     18 F     s     -1.0374 *   -1.3727 *   -1.0781 *  -1.59000    1.000000    
     19 F     s     -0.1322 *   -0.8959 *   -3.3313 *  -1.59000    1.000000    
     20 F     s      0.4319 *    0.4477 *    0.1848 *  -1.59000    1.000000    
     21 F     s      1.0239 *   -2.1023 *   -0.2264 *  -1.59000    1.000000    
--------------------------------------------------------------------------------


  Brillouin zone sampling points :

--------------------------------------------------------------------------------
  Point number          x          y          z            Weight
--------------------------------------------------------------------------------
        1           0.000000   0.000000   0.000000     1.00000000
--------------------------------------------------------------------------------


********************************************************************************
*  General input information                                                   *
********************************************************************************

  Species output for all configurations : 

--------------------------------------------------------------------------------
  Species    Type    Atomic    Atomic    Charge       Radii (Angs)     Library
                     Number     Mass       (e)     Cova   Ionic  VDW   Symbol
--------------------------------------------------------------------------------
    Al       Core       13      26.98   3.000000   1.350  0.000  2.050          
    F        Core        9      19.00   0.590000   0.710  0.000  1.300          
    F        Shell       9       0.00  -1.590000   0.710  0.000  1.300          
--------------------------------------------------------------------------------


  Accuracy factor for short range sums = 12.000

  Time limit = Infinity

  Maximum range for interatomic potentials =    100000.000000 Angstroms

  General interatomic potentials :

--------------------------------------------------------------------------------
Atom  Types   Potential      Parameter       Value         Units   Cutoffs(Ang)
  1     2                                                            Min /  Max 
--------------------------------------------------------------------------------
Al   c F    s Buckingham    Buckingham A     3760.0008    eV        0.000 10.000
                            Buckingham rho  0.22200000    Ang       
                            Buckingham C     0.0000000    eV*Ang^6  
--------------------------------------------------------------------------------
F    s F    s Buck 4 range  Buck4 A          1127.7000    eV        0.000 12.000
                            Buck4 rho       0.27530000    Ang       
                            Buck4 C          15.830000    eV*Ang^6  
                            Buck4 minimum    2.7900000    Ang       
--------------------------------------------------------------------------------
F    c F    s Spring (c-s)  Spring k 2       20.770000    eV*Ang^-2 0.000  0.800
                            Spring k 4       0.0000000    eV*Ang^-4 
--------------------------------------------------------------------------------

********************************************************************************
*  Output for configuration   1                                                *
********************************************************************************


  Components of energy : 

--------------------------------------------------------------------------------
  Interatomic potentials     =           9.34726833 eV    
  Monopole - monopole (real) =        -174.01516796 eV    
--------------------------------------------------------------------------------
  Total lattice energy       =        -164.66789964 eV    
--------------------------------------------------------------------------------
  Total lattice energy       =          -15887.9351 kJ/mol
--------------------------------------------------------------------------------


  Number of variables =       27

  Maximum number of calculations  =          2000
  Maximum Hessian update interval =            10
  Maximum step size               =   1.000000000
  Maximum parameter tolerance     =   0.000001000
  Maximum function  tolerance     =   0.000010000
  Maximum gradient  tolerance     =   0.000000010
  Maximum gradient  component     =   0.010000000

  Symmetry not applied to optimisation

  Newton-Raphson optimiser to be used

  BFGS hessian update to be used

  Lower half triangular hessian to be used

  Minimiser to switch to RFO
  When gradient norm is less than     0.010000

  Shell only optimisation

  Start of cluster optimisation :

  Cycle:      0 Energy:      -164.667900  Gnorm:      1.530551  CPU:    0.004
  ** Hessian calculated **
  Cycle:      1 Energy:      -182.695399  Gnorm:      0.572791  CPU:    0.005
  ** Hessian calculated **
  Cycle:      2 Energy:      -184.665155  Gnorm:      0.049926  CPU:    0.007
  Cycle:      3 Energy:      -184.677298  Gnorm:      0.009200  CPU:    0.008
  ** Hessian has required structure
  Cycle:      4 Energy:      -184.677334  Gnorm:      0.008962  CPU:    0.010
  ** Hessian has required structure
  Cycle:      5 Energy:      -184.677339  Gnorm:      0.008882  CPU:    0.012
  ** Hessian has required structure
  Cycle:      6 Energy:      -184.677341  Gnorm:      0.008853  CPU:    0.013
  ** Hessian has required structure
  Cycle:      7 Energy:      -184.677343  Gnorm:      0.008789  CPU:    0.015
  ** Hessian has required structure
  Cycle:      8 Energy:      -184.677347  Gnorm:      0.008760  CPU:    0.016
  ** Hessian has required structure
  Cycle:      9 Energy:      -184.677378  Gnorm:      0.008221  CPU:    0.017
  ** Hessian has required structure
  Cycle:     10 Energy:      -184.677649  Gnorm:      0.003403  CPU:    0.019
  ** Hessian has required structure
  Cycle:     11 Energy:      -184.677734  Gnorm:      0.001104  CPU:    0.020
  ** Hessian has required structure
  Cycle:     12 Energy:      -184.677745  Gnorm:      0.000000  CPU:    0.022
  ** Hessian has required structure
  Cycle:     13 Energy:      -184.677745  Gnorm:      0.000000  CPU:    0.024
  ** Hessian has required structure
  Cycle:     14 Energy:      -184.677745  Gnorm:      0.000000  CPU:    0.025
  ** Hessian has required structure
  Cycle:     15 Energy:      -184.677745  Gnorm:      0.000000  CPU:    0.027
  ** Hessian has required structure
  Cycle:     16 Energy:      -184.677745  Gnorm:      0.000000  CPU:    0.028
  ** Hessian has required structure
  Cycle:     17 Energy:      -184.677745  Gnorm:      0.000000  CPU:    0.030
  ** Hessian calculated **
  Cycle:     18 Energy:      -184.677745  Gnorm:      0.000000  CPU:    0.032
  ** Hessian has required structure
  Cycle:     19 Energy:      -184.677745  Gnorm:      0.000000  CPU:    0.033
  ** Hessian has required structure
  Cycle:     20 Energy:      -184.677745  Gnorm:      0.000000  CPU:    0.035
  ** Hessian calculated **
  Cycle:     21 Energy:      -184.677745  Gnorm:      0.000000  CPU:    0.037
  ** Hessian has required structure
  Cycle:     22 Energy:      -184.677745  Gnorm:      0.000000  CPU:    0.038
  ** Hessian has required structure
  Cycle:     23 Energy:      -184.677745  Gnorm:      0.000000  CPU:    0.040
  ** Hessian calculated **

  XYZ File written as 006/2/sp_mod_90/sp_mod_90_eig.xyz



  **** Optimisation achieved ****


  Final energy =    -184.67774493 eV
  Final Gnorm  =       0.00000017

  Components of energy : 

--------------------------------------------------------------------------------
  Interatomic potentials     =          37.73250999 eV    
  Monopole - monopole (real) =        -222.41025492 eV    
--------------------------------------------------------------------------------
  Total lattice energy       =        -184.67774493 eV    
--------------------------------------------------------------------------------
  Total lattice energy       =          -17818.5793 kJ/mol
--------------------------------------------------------------------------------

  Final cartesian coordinates of atoms :

--------------------------------------------------------------------------------
   No.  Atomic        x           y          z          Radius
        Label       (Angs)      (Angs)     (Angs)       (Angs) 
--------------------------------------------------------------------------------
     1  Al    c     0.446243   -2.284986   -2.197114    0.000000
     2  Al    c     1.954257   -0.561235   -0.633111    0.000000
     3  Al    c    -0.425451    0.286344   -1.606411    0.000000
     4  F     c     3.716582   -0.156955   -0.229817    0.000000
     5  F     c    -0.360935   -4.081111   -1.808908    0.000000
     6  F     c     2.253273   -1.754554   -2.345115    0.000000
     7  F     c     1.410498    0.557928   -2.077196    0.000000
     8  F     c    -1.380599    1.678187   -2.397911    0.000000
     9  F     c    -1.037368   -1.372665   -1.078066    0.000000
    10  F     c    -0.132165   -0.895867   -3.331287    0.000000
    11  F     c     0.431920    0.447681    0.184826    0.000000
    12  F     c     1.023940   -2.102279   -0.226433    0.000000
    13  F     s     3.412958   -0.224977   -0.274888    0.000000
    14  F     s    -0.185889   -3.736014   -1.930894    0.000000
    15  F     s     2.023525   -1.768712   -2.237107    0.000000
    16  F     s     1.274891    0.400566   -1.878450    0.000000
    17  F     s    -1.229887    1.442010   -2.239092    0.000000
    18  F     s    -0.875297   -1.219349   -1.224551    0.000000
    19  F     s    -0.087091   -1.012862   -3.109458    0.000000
    20  F     s     0.484758    0.347847   -0.039274    0.000000
    21  F     s     1.113122   -1.925715   -0.407515    0.000000
--------------------------------------------------------------------------------


  Final Cartesian derivatives :

--------------------------------------------------------------------------------
   No.  Atomic          x             y             z           Radius
        Label       (eV/Angs)     (eV/Angs)    (eV/Angs)      (eV/Angs)
--------------------------------------------------------------------------------
      1 Al    c       0.000000      0.000000      0.000000      0.000000
      2 Al    c       0.000000      0.000000      0.000000      0.000000
      3 Al    c       0.000000      0.000000      0.000000      0.000000
      4 F     c       0.000000      0.000000      0.000000      0.000000
      5 F     c       0.000000      0.000000      0.000000      0.000000
      6 F     c       0.000000      0.000000      0.000000      0.000000
      7 F     c       0.000000      0.000000      0.000000      0.000000
      8 F     c       0.000000      0.000000      0.000000      0.000000
      9 F     c       0.000000      0.000000      0.000000      0.000000
     10 F     c       0.000000      0.000000      0.000000      0.000000
     11 F     c       0.000000      0.000000      0.000000      0.000000
     12 F     c       0.000000      0.000000      0.000000      0.000000
     13 F     s      -0.000000     -0.000000     -0.000000      0.000000
     14 F     s       0.000000      0.000001     -0.000000      0.000000
     15 F     s      -0.000001     -0.000000      0.000001      0.000000
     16 F     s      -0.000001      0.000001     -0.000000      0.000000
     17 F     s       0.000000     -0.000001      0.000000      0.000000
     18 F     s       0.000001     -0.000002     -0.000001      0.000000
     19 F     s       0.000000     -0.000000      0.000000      0.000000
     20 F     s      -0.000001      0.000000     -0.000002      0.000000
     21 F     s       0.000001      0.000001     -0.000002      0.000000
--------------------------------------------------------------------------------
  Maximum abs         0.000001      0.000002      0.000002      0.000000
--------------------------------------------------------------------------------


  Born effective charge tensors : 

-------------------------------------------------------------------------------
  Atom             x           y             z
-------------------------------------------------------------------------------
    1 Al    x       1.1924     -0.1856     -0.0005
            y      -0.1494      1.1279      0.2684
            z       0.0322      0.3528      1.4453
-------------------------------------------------------------------------------
    2 Al    x       0.9428     -0.3335     -0.1886
            y      -0.3623      1.1346      0.4267
            z      -0.1387      0.3557      1.4003
-------------------------------------------------------------------------------
    3 Al    x       1.0393     -0.0223      0.0979
            y      -0.0330      0.8942      0.4632
            z       0.0127      0.4422      1.5522
-------------------------------------------------------------------------------
    4 F     x      -0.0211      0.1228      0.1103
            y       0.1218     -0.5007      0.0067
            z       0.1285      0.0189     -0.4984
-------------------------------------------------------------------------------
    5 F     x      -0.4451      0.1311     -0.0273
            y       0.1215     -0.2368     -0.0618
            z      -0.0356     -0.0838     -0.4891
-------------------------------------------------------------------------------
    6 F     x      -0.1726      0.0876     -0.0122
            y       0.0294     -0.5527     -0.2331
            z       0.0079     -0.2383     -0.6035
-------------------------------------------------------------------------------
    7 F     x      -0.2855     -0.0216      0.0009
            y      -0.0191     -0.3957     -0.0872
            z       0.0047     -0.0723     -0.3226
-------------------------------------------------------------------------------
    8 F     x      -0.3728     -0.2117      0.1157
            y      -0.1987     -0.2202     -0.1901
            z       0.1072     -0.1743     -0.4344
-------------------------------------------------------------------------------
    9 F     x      -0.5999      0.2343      0.0644
            y       0.2277     -0.2202     -0.1800
            z       0.0585     -0.1346     -0.4496
-------------------------------------------------------------------------------
   10 F     x      -0.3385     -0.0448      0.0867
            y      -0.0021     -0.4674     -0.3128
            z       0.0549     -0.3381     -0.5233
-------------------------------------------------------------------------------
   11 F     x      -0.5352      0.1111     -0.0687
            y       0.0979     -0.3715     -0.0134
            z      -0.0815     -0.0565     -0.4164
-------------------------------------------------------------------------------
   12 F     x      -0.4038      0.1327     -0.1786
            y       0.1663     -0.1917     -0.0865
            z      -0.1508     -0.0718     -0.6607
-------------------------------------------------------------------------------




  Moment of inertia tensor (10^-46 x kgm^2): 

-------------------------------------------------------------------------------
                x           y           z           Principal axis system
-------------------------------------------------------------------------------
       x        132.00        2.33      -22.19          121.821179
       y          2.33      122.36       -5.11          121.841852
       z        -22.19       -5.11      170.30          181.000005
-------------------------------------------------------------------------------
  Centre of mass (Ang) =     0.658350    -0.853293    -1.478879
-------------------------------------------------------------------------------


  Vibrational Frequency Calculation : 

--------------------------------------------------------------------------------

  Frequencies (cm-1) and Eigenvectors : 

  Frequency     -92.8252  -58.5527  -33.1556   -0.0000    0.0000    0.0000
  IR Intensity    0.0004    0.0229    0.0040    0.0000    0.0000    0.0000
     in X         0.0002    0.0179    0.0000    0.0000    0.0000    0.0000
     in Y         0.0001    0.0029    0.0021    0.0000    0.0000    0.0000
     in Z         0.0000    0.0020    0.0019    0.0000    0.0000    0.0000
  Raman Intsty    0.0049    0.0008    2.8739    0.0000    0.0000    0.0000

     1 x       0.203015 -0.205311 -0.215203 -0.296637  0.092102 -0.103019
     1 y      -0.078797  0.078771 -0.090705  0.098393 -0.030524 -0.310606
     1 z       0.090327 -0.084753  0.392126  0.097028  0.312529  0.000023
     2 x      -0.078439 -0.149118  0.105708 -0.296637  0.092102 -0.103019
     2 y       0.361765 -0.012791  0.000940  0.098393 -0.030524 -0.310606
     2 z       0.189771  0.357821 -0.229463  0.097028  0.312529  0.000023
     3 x      -0.106757  0.149535  0.111630 -0.296637  0.092102 -0.103019
     3 y      -0.295458  0.014752  0.026681  0.098393 -0.030524 -0.310606
     3 z      -0.285055 -0.342908 -0.221932  0.097028  0.312529  0.000023
     4 x       0.007334 -0.104426  0.104632 -0.248932  0.077290 -0.086452
     4 y       0.070929  0.035461 -0.036758  0.082570 -0.025615 -0.260655
     4 z       0.061606  0.181014 -0.221897  0.081424  0.262269  0.000020
     5 x       0.031398 -0.123090 -0.192091 -0.248932  0.077290 -0.086452
     5 y      -0.015030  0.047983 -0.059498  0.082570 -0.025615 -0.260655
     5 z       0.017395 -0.049379  0.368398  0.081424  0.262269  0.000020
     6 x       0.072346 -0.215908 -0.148026 -0.248932  0.077290 -0.086452
     6 y      -0.115598 -0.073633 -0.138767  0.082570 -0.025615 -0.260655
     6 z      -0.362304  0.040193  0.089846  0.081424  0.262269  0.000020
     7 x      -0.008676  0.209097  0.103446 -0.248932  0.077290 -0.086452
     7 y       0.022035 -0.092039 -0.006252  0.082570 -0.025615 -0.260655
     7 z      -0.017122  0.084466 -0.214972  0.081424  0.262269  0.000020
     8 x       0.001187  0.049909  0.096541 -0.248932  0.077290 -0.086452
     8 y      -0.086605  0.001132  0.001371  0.082570 -0.025615 -0.260655
     8 z      -0.071633 -0.205955 -0.228067  0.081424  0.262269  0.000020
     9 x      -0.134268  0.407981 -0.039473 -0.248932  0.077290 -0.086452
     9 y      -0.070892 -0.041282  0.160664  0.082570 -0.025615 -0.260655
     9 z       0.326080  0.034434  0.183767  0.081424  0.262269  0.000020
    10 x      -0.128591 -0.053501 -0.039088 -0.248932  0.077290 -0.086452
    10 y       0.142592  0.156470 -0.145868  0.082570 -0.025615 -0.260655
    10 z       0.367230 -0.160845  0.121854  0.081424  0.262269  0.000020
    11 x      -0.038238 -0.186063  0.150444 -0.248932  0.077290 -0.086452
    11 y       0.009321  0.071700  0.148660  0.082570 -0.025615 -0.260655
    11 z      -0.033462 -0.074725 -0.228378  0.081424  0.262269  0.000020
    12 x       0.176273  0.260160 -0.038928 -0.248932  0.077290 -0.086452
    12 y       0.058131 -0.201994  0.151621  0.082570 -0.025615 -0.260655
    12 z      -0.281883  0.234020  0.200076  0.081424  0.262269  0.000020


  Frequency      14.7067   47.0246   89.3569  145.2004  158.8759  168.1768
  IR Intensity    0.0005    0.0028    0.0180    0.0004    0.0154    0.0253
     in X         0.0004    0.0022    0.0000    0.0001    0.0003    0.0048
     in Y         0.0001    0.0005    0.0087    0.0001    0.0144    0.0016
     in Z         0.0000    0.0001    0.0093    0.0003    0.0006    0.0189
  Raman Intsty    0.0013    0.0098    3.5260    0.0077    0.0405    0.3608

     1 x      -0.239396 -0.017389  0.091825 -0.119403 -0.074224 -0.091281
     1 y       0.090564  0.010219 -0.018284  0.044149 -0.115081 -0.018853
     1 z      -0.110852 -0.018420 -0.183354 -0.062754  0.068415  0.049756
     2 x       0.120536 -0.036449 -0.043709  0.104107  0.005460  0.130305
     2 y      -0.148040 -0.086480  0.069895  0.076986 -0.068807 -0.028658
     2 z      -0.084610  0.144554  0.180052  0.047832 -0.086818 -0.253537
     3 x       0.088116  0.122038 -0.043861  0.021542  0.039095  0.098077
     3 y       0.070984  0.044546  0.082725 -0.134375 -0.046886 -0.024811
     3 z       0.186419 -0.115209  0.145210  0.044681 -0.036361 -0.072852
     4 x       0.160597 -0.010191 -0.045541  0.151043 -0.171679 -0.116271
     4 y      -0.240613 -0.350566  0.188169  0.213681  0.611704  0.065202
     4 z      -0.207930  0.297530  0.056564 -0.325945  0.023082  0.658109
     5 x      -0.257870 -0.153274  0.004009 -0.079203 -0.109852 -0.084902
     5 y       0.096144  0.055933  0.051698  0.030936 -0.083531 -0.029134
     5 z      -0.118293 -0.088499  0.012331 -0.038970  0.107126  0.006394
     6 x      -0.207540  0.058685  0.120169 -0.004824 -0.078504 -0.050615
     6 y      -0.052926 -0.223401 -0.354555 -0.485811 -0.021235 -0.035809
     6 z      -0.308498  0.019310 -0.001701  0.084265 -0.087501 -0.116385
     7 x       0.056723  0.198119 -0.083817  0.083696  0.021414  0.101172
     7 y      -0.019561 -0.029468 -0.514579 -0.052152  0.052403  0.011456
     7 z       0.031202  0.099444 -0.233132  0.047639  0.010989 -0.219207
     8 x       0.079413  0.342084  0.143862 -0.163312  0.405438 -0.333840
     8 y       0.149346  0.187628  0.176720 -0.129619  0.323845 -0.081623
     8 z       0.311056 -0.128989  0.091845  0.257715  0.158302  0.364140
     9 x       0.088034 -0.338672  0.029843 -0.061595 -0.130200  0.043822
     9 y       0.062547  0.184760  0.072612 -0.195471 -0.021246 -0.017615
     9 z       0.221097 -0.147584  0.044781 -0.173759 -0.114339 -0.046153
    10 x      -0.275795  0.199831 -0.258133  0.293240  0.063909  0.093534
    10 y       0.235198  0.189019 -0.228979  0.354444 -0.086148  0.035990
    10 z       0.101742  0.091317 -0.132555  0.040881  0.002865 -0.022463
    11 x       0.240004 -0.007690  0.148104 -0.185837 -0.080159  0.153228
    11 y      -0.090743 -0.028980  0.374537  0.063583 -0.356621  0.080185
    11 z       0.107434  0.004071  0.025890 -0.055038  0.016805 -0.228674
    12 x       0.153069 -0.370163 -0.063566 -0.040649  0.114987  0.030498
    12 y      -0.155488  0.052865  0.074298  0.216187 -0.144172  0.057529
    12 z      -0.127035 -0.159617 -0.033126  0.127750 -0.052070 -0.066115


  Frequency     175.7944  197.9106  205.7806  235.0138  242.6296  248.2799
  IR Intensity    0.0121    0.0026    0.0279    0.0013    0.0035    0.0213
     in X         0.0061    0.0021    0.0003    0.0011    0.0013    0.0158
     in Y         0.0002    0.0004    0.0193    0.0001    0.0003    0.0023
     in Z         0.0058    0.0000    0.0083    0.0001    0.0019    0.0032
  Raman Intsty    0.0332    0.0131    1.1741    0.0006    0.7489    0.0009

     1 x      -0.080677  0.157578  0.041838  0.133163 -0.049295  0.060957
     1 y       0.060916 -0.061402  0.004058 -0.051159 -0.268288 -0.042204
     1 z      -0.070843  0.071257 -0.072876  0.057193 -0.119615  0.021131
     2 x       0.182169 -0.165596  0.021433 -0.031999 -0.102637  0.139285
     2 y      -0.118299 -0.077178  0.105938  0.099418  0.075008  0.166429
     2 z      -0.098306  0.190730  0.108435 -0.230179  0.005411  0.205770
     3 x       0.040492  0.100488 -0.019873 -0.222519  0.080311  0.132968
     3 y       0.030964  0.101570  0.117483 -0.010630  0.045779 -0.256156
     3 z       0.319932 -0.245711  0.085770  0.125818  0.087084 -0.091081
     4 x      -0.006545 -0.116934  0.091811 -0.044094 -0.088545  0.231662
     4 y       0.370234  0.181916 -0.135893 -0.185129  0.029126  0.019768
     4 z       0.189203 -0.237521  0.029163  0.081881 -0.022431  0.006797
     5 x      -0.202851 -0.310582 -0.214987 -0.489267 -0.042889 -0.425933
     5 y       0.102636  0.102257  0.224097  0.170535 -0.271450  0.131537
     5 z      -0.133693 -0.154862  0.621916 -0.213049 -0.018438 -0.178290
     6 x      -0.000849  0.181641  0.013966  0.212649 -0.106694 -0.066320
     6 y      -0.080297 -0.004966 -0.094542 -0.107441 -0.242841  0.344267
     6 z      -0.030762  0.159585 -0.273163  0.162773 -0.177999  0.016058
     7 x      -0.000832  0.072985 -0.036071 -0.255019  0.062841  0.119958
     7 y      -0.021618 -0.016001 -0.004283  0.092024  0.508078  0.002410
     7 z       0.077057  0.003527  0.075609 -0.096841  0.278585  0.061604
     8 x       0.027713 -0.378635 -0.160107  0.164209  0.049595  0.121272
     8 y      -0.443114 -0.045959 -0.079032  0.162139 -0.010221 -0.140507
     8 z      -0.538110  0.099925 -0.083577 -0.053254  0.028955  0.159353
     9 x      -0.047849 -0.000486 -0.085113  0.192675  0.295680 -0.099426
     9 y       0.010376  0.282771  0.072202 -0.141446  0.004061 -0.194392
     9 z       0.093110  0.109864 -0.287428  0.147439  0.077007 -0.177795
    10 x      -0.058829  0.214211  0.139528  0.269886  0.064517 -0.214997
    10 y       0.111576 -0.105910 -0.126080 -0.073966 -0.256935 -0.286703
    10 z       0.073418  0.027762 -0.216312  0.041866 -0.096266 -0.151080
    11 x       0.152716  0.325279 -0.064711 -0.170339  0.048339  0.037326
    11 y      -0.036904 -0.108034 -0.065766  0.061347  0.279996  0.002066
    11 z       0.138699  0.100830  0.149550 -0.062238  0.117535  0.016935
    12 x      -0.031867 -0.097669  0.263970  0.263911 -0.197497 -0.100607
    12 y       0.018593 -0.241972 -0.061775 -0.022905  0.135953  0.278768
    12 z      -0.048601 -0.128504 -0.160339  0.047631 -0.154629  0.084569


  Frequency     267.6821  274.2504  303.3484  313.3586  357.5830  367.8085
  IR Intensity    0.0184    0.0095    0.0563    0.0505    0.0010    0.0001
     in X         0.0027    0.0002    0.0009    0.0393    0.0005    0.0001
     in Y         0.0151    0.0025    0.0261    0.0049    0.0003    0.0000
     in Z         0.0006    0.0069    0.0293    0.0064    0.0002    0.0000
  Raman Intsty    0.0930    0.6135    0.4086    0.0175    0.0960    0.0014

     1 x      -0.028350 -0.073903  0.092926 -0.113577  0.023871  0.194876
     1 y      -0.104321 -0.097670  0.029761  0.039504 -0.158679 -0.062873
     1 z      -0.016106  0.094304 -0.172912 -0.065273 -0.172655  0.097723
     2 x      -0.127115  0.017005 -0.041030 -0.119781 -0.213043 -0.075894
     2 y      -0.085453  0.092043 -0.175942  0.213289  0.211516 -0.083269
     2 z       0.060828  0.068056 -0.084553  0.068584 -0.032786 -0.032214
     3 x      -0.015613  0.001584 -0.006001 -0.095641  0.259087 -0.034325
     3 y      -0.127982  0.098302 -0.158622 -0.137069  0.069496  0.118395
     3 z       0.104681  0.069822 -0.052930 -0.137518  0.192876 -0.013421
     4 x      -0.125930  0.064323 -0.117384 -0.069667 -0.208070 -0.145853
     4 y       0.033010 -0.034634  0.033097 -0.082240 -0.096691 -0.014618
     4 z      -0.107993  0.017206 -0.038610  0.067823 -0.071601 -0.022331
     5 x      -0.082690  0.053071 -0.046020  0.078938 -0.082082 -0.080948
     5 y      -0.081482 -0.229168  0.193254 -0.022467 -0.124083  0.032485
     5 z       0.119956 -0.340350  0.258839  0.050018  0.073669 -0.039087
     6 x      -0.186389 -0.131717  0.223149 -0.145082 -0.023698  0.151640
     6 y       0.422477 -0.085312 -0.044306 -0.129183  0.084107 -0.042799
     6 z      -0.191986  0.034981  0.308141  0.183336  0.241216 -0.401583
     7 x      -0.064684  0.005986  0.070028 -0.305873  0.250745  0.001591
     7 y      -0.230108  0.095584  0.293523  0.147481  0.053066 -0.011163
     7 z      -0.042609  0.080147  0.173788 -0.146771 -0.493383  0.023369
     8 x       0.163357 -0.062378  0.089249  0.092920  0.093348 -0.092463
     8 y      -0.070345  0.001409 -0.048003  0.043327 -0.215423  0.114261
     8 z       0.014170 -0.036015  0.068484 -0.065132  0.064030 -0.087408
     9 x      -0.033972 -0.451601 -0.110094  0.004192  0.072520  0.213020
     9 y      -0.174189  0.170410 -0.198218 -0.190838  0.079884 -0.090499
     9 z      -0.011500 -0.266927 -0.138264 -0.107860 -0.152274 -0.435656
    10 x       0.448638 -0.006902 -0.353741  0.052259 -0.112786 -0.152550
    10 y       0.183675 -0.136817  0.128076  0.166239  0.099154  0.032933
    10 z       0.079607  0.087765  0.092792 -0.155979  0.247129  0.402201
    11 x       0.161561  0.086676  0.154105  0.625056 -0.169021  0.130171
    11 y       0.453208  0.280033  0.287286 -0.204486 -0.081846 -0.040117
    11 z      -0.009886  0.005172 -0.268271  0.233270  0.215777  0.047329
    12 x      -0.076028  0.508456  0.036017  0.059305  0.095730 -0.125488
    12 y      -0.157598 -0.171941 -0.281495  0.134265  0.056055  0.052581
    12 z      -0.027794  0.141345 -0.087020  0.101222 -0.109589  0.451096


  Frequency     386.7225  415.5728  477.6336  488.3832  502.1548  507.0235
  IR Intensity    0.0317    0.1042    0.0692    0.0144    0.0061    0.1524
     in X         0.0015    0.0035    0.0035    0.0118    0.0003    0.0069
     in Y         0.0057    0.0239    0.0147    0.0012    0.0026    0.0301
     in Z         0.0245    0.0768    0.0510    0.0014    0.0032    0.1155
  Raman Intsty    0.8039    2.4222    0.8044    0.1023    3.6176    1.4065

     1 x      -0.125319  0.096824  0.033579  0.020663 -0.043536 -0.042861
     1 y       0.042005 -0.341270  0.011789 -0.007714  0.044823  0.103968
     1 z       0.318721 -0.534268 -0.061089  0.006979  0.128205  0.181538
     2 x       0.126242  0.127293 -0.080854  0.053397 -0.085428 -0.079205
     2 y       0.037531 -0.021324  0.099882 -0.025174  0.057256  0.125790
     2 z       0.041250  0.045608  0.242964  0.155228 -0.049198  0.290932
     3 x      -0.068994 -0.110365 -0.089804  0.177920  0.084972 -0.077733
     3 y       0.097761  0.062778  0.105000 -0.049805 -0.001369  0.123819
     3 z      -0.050969 -0.048078  0.283302 -0.076787  0.040401  0.296153
     4 x       0.217671  0.233253  0.002086  0.279842 -0.388964  0.095850
     4 y       0.051381  0.053331 -0.011192  0.056860 -0.098120  0.006686
     4 z       0.031075  0.083715 -0.031946  0.069827 -0.099265 -0.018173
     5 x      -0.062559 -0.176646  0.138236  0.013865 -0.038163 -0.164993
     5 y      -0.206619 -0.307918  0.317728  0.026378 -0.117045 -0.427172
     5 z      -0.018611  0.157745 -0.059869 -0.003899 -0.009088  0.030790
     6 x      -0.049294 -0.040609 -0.387547 -0.028103  0.126245  0.334249
     6 y       0.034057  0.154970 -0.063296 -0.053842  0.036143  0.037606
     6 z       0.236957  0.166328  0.049198 -0.059508  0.008196 -0.137290
     7 x      -0.102169 -0.101336  0.085960 -0.585013 -0.176992  0.107101
     7 y      -0.160775 -0.096687  0.053375  0.179567 -0.245516  0.142787
     7 z       0.082710  0.145691 -0.040798 -0.187377  0.398549 -0.195380
     8 x      -0.099621 -0.144172  0.004089  0.199161  0.178468 -0.008012
     8 y       0.161064  0.190915 -0.004479 -0.277781 -0.269742  0.016866
     8 z      -0.105144 -0.082855 -0.037157  0.157122  0.138347 -0.057115
     9 x       0.308758  0.004227  0.078983  0.131001  0.114420 -0.044043
     9 y      -0.162813  0.167522 -0.072918  0.342401  0.279326 -0.117285
     9 z      -0.348283  0.076749 -0.045991 -0.127017 -0.104476  0.045211
    10 x      -0.097328 -0.002562  0.142462 -0.014817 -0.048245 -0.070314
    10 y       0.047054  0.147631 -0.260312  0.046690  0.086080  0.186153
    10 z       0.206183  0.171460  0.254605  0.080924 -0.068985 -0.289690
    11 x      -0.001501  0.043971  0.138296 -0.130751  0.088933  0.081479
    11 y       0.072268 -0.114892 -0.207012  0.033266 -0.113969 -0.120526
    11 z       0.080667 -0.191210 -0.531995 -0.104244 -0.296857 -0.343202
    12 x      -0.032839  0.048323 -0.039218 -0.165454  0.196720 -0.093228
    12 y      -0.046890  0.162400 -0.010087 -0.254998  0.322832 -0.146449
    12 z      -0.533772  0.111975 -0.110370  0.072382 -0.108713  0.048928


  Frequency     623.8222  664.2897  700.1179  763.1737  801.7116  883.3923
  IR Intensity    0.0003    0.1003    0.0400    0.0246    0.0056    0.0003
     in X         0.0002    0.0793    0.0060    0.0045    0.0042    0.0000
     in Y         0.0000    0.0074    0.0299    0.0169    0.0005    0.0002
     in Z         0.0001    0.0136    0.0041    0.0032    0.0008    0.0001
  Raman Intsty    0.0001    0.0014    0.1315    0.0474    0.0005    2.6028

     1 x      -0.358121 -0.515371 -0.022930  0.295941 -0.134712 -0.123667
     1 y       0.120975  0.170087 -0.032924  0.647208  0.067027 -0.336067
     1 z      -0.152711 -0.214598  0.079646 -0.174918 -0.061743  0.006210
     2 x       0.053344 -0.156180  0.085527  0.212390  0.457934  0.536298
     2 y      -0.272739  0.219190 -0.498510 -0.044202  0.266665  0.149165
     2 z       0.262135 -0.114139  0.283405  0.012058  0.077311  0.155000
     3 x       0.373055 -0.320878 -0.460658 -0.144204  0.139668 -0.287096
     3 y       0.139614 -0.086573 -0.264628  0.102314 -0.501278  0.432560
     3 z      -0.070538 -0.078509  0.027639 -0.151189  0.189808 -0.197891
     4 x      -0.116970  0.202715 -0.043482 -0.160658 -0.345514 -0.278696
     4 y      -0.021664  0.031021  0.016976 -0.035513 -0.084113 -0.065014
     4 z      -0.036803  0.053210 -0.024157 -0.032740 -0.079124 -0.061632
     5 x       0.029274  0.052291  0.015385 -0.169174 -0.000066  0.051817
     5 y      -0.001895 -0.005390  0.034301 -0.375541 -0.009037  0.110901
     5 z       0.009583  0.017885 -0.011863  0.083805  0.003144 -0.028890
     6 x       0.295765  0.342210  0.019308 -0.217425  0.042874  0.060384
     6 y       0.064961  0.075184  0.028330 -0.075376  0.018983  0.033073
     6 z      -0.061632 -0.029268 -0.015045  0.023272  0.008543  0.005428
     7 x      -0.267146  0.200553  0.145551  0.020060 -0.027139  0.016948
     7 y       0.097997 -0.064971  0.193213  0.032659  0.012559  0.017927
     7 z      -0.111799  0.073596 -0.257348 -0.029169 -0.014628 -0.042660
     8 x      -0.081874  0.126919  0.041284  0.090343 -0.183603  0.138628
     8 y       0.098242 -0.147957 -0.008371 -0.132554  0.276539 -0.205647
     8 z      -0.052860  0.090292  0.011345  0.079654 -0.153525  0.118182
     9 x      -0.125325  0.099480  0.117869 -0.027106  0.076877 -0.027946
     9 y      -0.283292  0.142372  0.287385 -0.043906  0.214795 -0.130043
     9 z       0.099787 -0.060115 -0.100260  0.028012 -0.060407  0.032059
    10 x       0.084164  0.124564  0.006707  0.065170  0.021785 -0.018883
    10 y      -0.206205 -0.242106  0.043350 -0.185845 -0.050169  0.062649
    10 z       0.220278  0.222937 -0.028346  0.147345  0.021634 -0.027944
    11 x      -0.043836  0.080682  0.000368 -0.012876 -0.027411 -0.012234
    11 y       0.011060 -0.023780  0.059049  0.009476  0.009616 -0.001697
    11 z      -0.032927  0.044447  0.054115  0.049637 -0.014305  0.036310
    12 x       0.144584 -0.046799  0.171353 -0.022242 -0.109400 -0.079609
    12 y       0.255274 -0.125085  0.294384 -0.033884 -0.189472 -0.114886
    12 z      -0.079966  0.072305 -0.094002  0.024416  0.043935  0.012858




--------------------------------------------------------------------------------
  Vibrational properties (for cluster):  Temperature  =       0.000 K
--------------------------------------------------------------------------------
  Zero point energy            =        0.683578 eV
--------------------------------------------------------------------------------

  Phonon density of states : 

--------------------------------------------------------------------------------
 Frequency (cm-1) Density of States                                             
--------------------------------------------------------------------------------
    0.00000 |****************************************                      0.062
   13.80301 |********************                                          0.031
   27.60601 |                                                              0.000
   41.40902 |********************                                          0.031
   55.21202 |                                                              0.000
   69.01503 |                                                              0.000
   82.81804 |********************                                          0.031
   96.62104 |                                                              0.000
  110.42405 |                                                              0.000
  124.22706 |                                                              0.000
  138.03006 |********************                                          0.031
  151.83307 |********************                                          0.031
  165.63607 |****************************************                      0.062
  179.43908 |                                                              0.000
  193.24209 |****************************************                      0.062
  207.04509 |                                                              0.000
  220.84810 |                                                              0.000
  234.65111 |************************************************************  0.094
  248.45411 |                                                              0.000
  262.25712 |****************************************                      0.062
  276.06012 |                                                              0.000
  289.86313 |********************                                          0.031
  303.66614 |********************                                          0.031
  317.46914 |                                                              0.000
  331.27215 |                                                              0.000
  345.07515 |********************                                          0.031
  358.87816 |********************                                          0.031
  372.68117 |                                                              0.000
  386.48417 |********************                                          0.031
  400.28718 |                                                              0.000
  414.09019 |********************                                          0.031
  427.89319 |                                                              0.000
  441.69620 |                                                              0.000
  455.49920 |                                                              0.000
  469.30221 |********************                                          0.031
  483.10522 |********************                                          0.031
  496.90822 |****************************************                      0.062
  510.71123 |                                                              0.000
  524.51424 |                                                              0.000
  538.31724 |                                                              0.000
  552.12025 |                                                              0.000
  565.92325 |                                                              0.000
  579.72626 |                                                              0.000
  593.52927 |                                                              0.000
  607.33227 |                                                              0.000
  621.13528 |********************                                          0.031
  634.93829 |                                                              0.000
  648.74129 |                                                              0.000
  662.54430 |********************                                          0.031
  676.34730 |                                                              0.000
  690.15031 |********************                                          0.031
  703.95332 |                                                              0.000
  717.75632 |                                                              0.000
  731.55933 |                                                              0.000
  745.36233 |                                                              0.000
  759.16534 |********************                                          0.031
  772.96835 |                                                              0.000
  786.77135 |                                                              0.000
  800.57436 |********************                                          0.031
  814.37737 |                                                              0.000
  828.18037 |                                                              0.000
  841.98338 |                                                              0.000
  855.78638 |                                                              0.000
  869.58939 |********************                                          0.031
--------------------------------------------------------------------------------



  Time to end of optimisation =       0.0505 seconds


  Peak dynamic memory used =       0.65 MB 


  Timing analysis for GULP :

--------------------------------------------------------------------------------
  Task / Subroutine                                          Time (Seconds)
--------------------------------------------------------------------------------
  Calculation of real space energy and derivatives                0.0038
  Calculation of phonons                                          0.0016
  Calculation and manipulation of Hessian matrix                  0.0021
  Calculation of matrix inversion                                 0.0001
--------------------------------------------------------------------------------
  Total CPU time                                                  0.0505
--------------------------------------------------------------------------------


  Job Finished at 14:40.19 25th May        2022                               

