------------------------------------------------------------
          Invoking FHI-aims ...

          When using FHI-aims, please cite the following reference:

            Volker Blum, Ralf Gehrke, Felix Hanke, Paula Havu,
            Ville Havu, Xinguo Ren, Karsten Reuter, and Matthias Scheffler,
            'Ab Initio Molecular Simulations with Numeric Atom-Centered Orbitals',
            Computer Physics Communications 180, 2175-2196 (2009)

          In addition, many other developments in FHI-aims are likely important for
          your particular application. A partial list of references is given at the end of
          this file. Thank you for giving credit to the authors of these developments.

          For any questions about FHI-aims, please visit our slack channel at

            https://fhi-aims.slack.com

          and our main development and support site at

            https://aims-git.rz-berlin.mpg.de .

          The latter site, in particular, has a wiki to collect information, as well
          as an issue tracker to log discussions, suggest improvements, and report issues
          or bugs. https://aims-git.rz-berlin.mpg.de is also the main development site
          of the project and all new and updated code versions can be obtained there.
          Please send an email to aims-coordinators@fhi-berlin.mpg.de and we will add
          you to these sites. They are for you and everyone is welcome there.

------------------------------------------------------------



  Date     :  20220517, Time     :  121025.882
  Time zero on CPU 1             :   0.421620000000000E-01  s.
  Internal wall clock time zero  :           422021425.882  s.

  FHI-aims created a unique identifier for this run for later identification
  aims_uuid : 7DAF17EE-50B6-413F-A02D-BCE5816B276A

  Build configuration of the current instance of FHI-aims
  -------------------------------------------------------
  FHI-aims version      : 210914
  Commit number         : GITDIR-NOTFOUND
  CMake host system     : Linux-3.10.0-693.17.1.el7.x86_64
  CMake version         : 3.21.1
  Fortran compiler      : /shared/ucl/apps/intel/2018.Update3/impi/2018.3.222/intel64/bin/mpiifort (Intel) version 18.0.3.20180410
  Fortran compiler flags: -O3 -ip -fp-model precise
  C compiler            : /shared/ucl/apps/intel/2018.Update3/compilers_and_libraries_2018.3.222/linux/bin/intel64/icc (Intel) version 18.0.3.20180410
  C compiler flags      : -O3 -ip -fp-model precise -std=gnu99
  ELPA2 kernel          : AVX2
  Using MPI
  Using ScaLAPACK
  Using LibXC
  Using i-PI
  Using RLSY
  Linking against: /shared/ucl/apps/intel/2019.Update5/compilers_and_libraries_2019.5.281/linux/mkl/lib/intel64/libmkl_intel_lp64.so
                   /shared/ucl/apps/intel/2019.Update5/compilers_and_libraries_2019.5.281/linux/mkl/lib/intel64/libmkl_sequential.so
                   /shared/ucl/apps/intel/2019.Update5/compilers_and_libraries_2019.5.281/linux/mkl/lib/intel64/libmkl_core.so
                   /shared/ucl/apps/intel/2019.Update5/compilers_and_libraries_2019.5.281/linux/mkl/lib/intel64/libmkl_blacs_intelmpi_lp64.so
                   /shared/ucl/apps/intel/2019.Update5/compilers_and_libraries_2019.5.281/linux/mkl/lib/intel64/libmkl_scalapack_lp64.so

  Using       24 parallel tasks.
  Task        0 on host node-k98a-018 reporting.
  Task        1 on host node-k98a-018 reporting.
  Task        2 on host node-k98a-018 reporting.
  Task        3 on host node-k98a-018 reporting.
  Task        4 on host node-k98a-018 reporting.
  Task        5 on host node-k98a-018 reporting.
  Task        6 on host node-k98a-018 reporting.
  Task        7 on host node-k98a-018 reporting.
  Task        8 on host node-k98a-018 reporting.
  Task        9 on host node-k98a-018 reporting.
  Task       10 on host node-k98a-018 reporting.
  Task       11 on host node-k98a-018 reporting.
  Task       12 on host node-k98a-018 reporting.
  Task       13 on host node-k98a-018 reporting.
  Task       14 on host node-k98a-018 reporting.
  Task       15 on host node-k98a-018 reporting.
  Task       16 on host node-k98a-018 reporting.
  Task       17 on host node-k98a-018 reporting.
  Task       18 on host node-k98a-018 reporting.
  Task       19 on host node-k98a-018 reporting.
  Task       20 on host node-k98a-018 reporting.
  Task       21 on host node-k98a-018 reporting.
  Task       22 on host node-k98a-018 reporting.
  Task       23 on host node-k98a-018 reporting.

  Performing system and environment tests:
  | Environment variable OMP_NUM_THREADS correctly set to 1.
  | Checking for ScaLAPACK...
  | Testing pdtran()...
  | All pdtran() tests passed.

  Obtaining array dimensions for all initial allocations:
  
  -----------------------------------------------------------------------
  Parsing control.in (first pass over file, find array dimensions only).
  The contents of control.in will be repeated verbatim below
  unless switched off by setting 'verbatim_writeout .false.' .
  in the first line of control.in .
  -----------------------------------------------------------------------
  
  #########################################################################################  Physical model
  #########################################################################################
  xc                 pbesol
  spin               none
  relativistic       atomic_zora scalar
  charge             0.0
  #  SCF convergence
  occupation_type    gaussian 0.01
  mixer              pulay
  n_max_pulay        10
  charge_mix_param   0.5
  sc_accuracy_rho    1E-5
  sc_accuracy_eev    1E-3
  sc_accuracy_etot   1E-6
  sc_accuracy_forces 1E-4
  sc_iter_limit      1500
  #  Relaxation
  #relax_geometry   bfgs 1.e-3
  
  ################################################################################
  #
  #  FHI-aims code project
  #  VB, Fritz-Haber Institut, 2009
  #
  #  Suggested "light" defaults for Al atom (to be pasted into control.in file)
  #  Be sure to double-check any results obtained with these settings for post-processing,
  #  e.g., with the "tight" defaults and larger basis sets.
  #
  ################################################################################
    species        Al
  #     global species definitions
      nucleus             13
      mass                26.9815386
  #
      l_hartree           4
  #
      cut_pot             3.5          1.5  1.0
      basis_dep_cutoff    1e-4
  #
      radial_base         41 5.0
      radial_multiplier   1
      angular_grids       specified
        division   0.6594  110
        division   0.8170  194
        division   0.9059  302
  #      division   1.0363  434
  #      division   1.1443  590
  #      division   1.2621  770
  #      division   2.8177  974
  #      outer_grid   974
        outer_grid   302
  ################################################################################
  #
  #  Definition of "minimal" basis
  #
  ################################################################################
  #     valence basis states
      valence      3  s   2.
      valence      3  p   1.
  #     ion occupancy
      ion_occ      3  s   1.
      ion_occ      2  p   6.
  ################################################################################
  #
  #  Suggested additional basis functions. For production calculations,
  #  uncomment them one after another (the most important basis functions are
  #  listed first).
  #
  #  Constructed for dimers: 2.0 A, 2.5 A, 3.0 A, 3.75 A, 4.5 A
  #
  ################################################################################
  #  "First tier" - improvements: -199.47 meV to -10.63 meV
       ionic 3 d auto
       ionic 3 p auto
  #     hydro 4 f 4.7
       ionic 3 s auto
  #  "Second tier" - improvements: -5.35 meV to -1.57 meV
  #     hydro 5 g 7
  #     hydro 3 d 6
  #     hydro 2 s 11.6
  #     hydro 2 p 0.9
  #  "Third tier" - improvements: -0.63 meV to -0.20 meV
  #     hydro 5 f 7.6
  #     hydro 4 p 7.2
  #     hydro 4 s 3.7
  #     hydro 4 d 7.6
  #  "Fourth tier" - improvements: -0.17 meV to -0.08 meV
  #     hydro 4 d 13.6
  #     hydro 5 g 11.2
  #     hydro 4 d 0.9
  #     hydro 1 s 0.4
  #     hydro 4 p 0.1
  #     hydro 5 f 9.8
  #  Further basis functions that fell out of the optimization - noise level...
  #     hydro 4 p 5
  
  ################################################################################
  #
  #  FHI-aims code project
  #  VB, Fritz-Haber Institut, 2009
  #
  #  Suggested "light" defaults for F atom (to be pasted into control.in file)
  #  Be sure to double-check any results obtained with these settings for post-processing,
  #  e.g., with the "tight" defaults and larger basis sets.
  #
  ################################################################################
    species        F
  #     global species definitions
      nucleus             9
      mass                18.9984032
  #
      l_hartree           4
  #
      cut_pot             3.5  1.5  1.0
      basis_dep_cutoff    1e-4
  #
      radial_base         37 5.0
      radial_multiplier   1
      angular_grids specified
        division   0.4014  110
        division   0.5291  194
        division   0.6019  302
  #      division   0.6814  434
  #      division   0.7989  590
  #      division   0.8965  770
  #      division   1.3427  974
  #      outer_grid   974
        outer_grid   302
  ################################################################################
  #
  #  Definition of "minimal" basis
  #
  ################################################################################
  #     valence basis states
      valence      2  s   2.
      valence      2  p   5.
  #     ion occupancy
      ion_occ      2  s   1.
      ion_occ      2  p   4.
  ################################################################################
  #
  #  Suggested additional basis functions. For production calculations,
  #  uncomment them one after another (the most important basis functions are
  #  listed first).
  #
  #  Constructed for dimers: 1.2 A, 1.418 A, 1.75 A, 2.25 A, 3.25 A
  #
  ################################################################################
  #  "First tier" - improvements: -149.44 meV to -45.88 meV
       hydro 2 p 1.7
       hydro 3 d 7.4
       hydro 3 s 6.8
  #  "Second tier" - improvements: -12.96 meV to -1.56 meV
  #     hydro 4 f 11.2
  #     ionic 2 p auto
  #     hydro 1 s 0.75
  #     hydro 4 d 8.8
  #     hydro 5 g 16.8
  #  "Third tier" - improvements: -0.58 meV to -0.05 meV
  #     hydro 3 p 6.2
  #     hydro 3 s 3.2
  #     hydro 4 f 9.6
  #     hydro 3 s 19.6
  #     hydro 4 d 8.6
  #     hydro 5 g 14.4
  # Further basis functions: -0.05 meV and below
  #     hydro 3 p 4.2
  
  -----------------------------------------------------------------------
  Completed first pass over input file control.in .
  -----------------------------------------------------------------------
  
  
  -----------------------------------------------------------------------
  Parsing geometry.in (first pass over file, find array dimensions only).
  The contents of geometry.in will be repeated verbatim below
  unless switched off by setting 'verbatim_writeout .false.' .
  in the first line of geometry.in .
  -----------------------------------------------------------------------
  
  atom -0.011288213 1.687341172 1.982786220 Al
  atom 2.576358296 2.694805425 1.812242575 Al
  atom 1.400633284 2.767177384 -0.729700254 Al
  atom 1.058934578 3.029899536 2.972241863 F
  atom -1.661387283 2.506652922 2.337729986 F
  atom -0.625496071 0.149685934 2.789487830 F
  atom 1.902372553 0.943467593 1.948651265 F
  atom 2.794040745 1.669934453 -0.044281816 F
  atom 1.056701809 3.013110733 -2.501222612 F
  atom 1.668054094 4.018875387 0.694494467 F
  atom 4.187640368 3.123372377 2.531354780 F
  atom 0.069433009 1.715529410 0.055077293 F
  
  -----------------------------------------------------------------------
  Completed first pass over input file geometry.in .
  -----------------------------------------------------------------------
  

  Basic array size parameters:
  | Number of species                 :        2
  | Number of atoms                   :       12
  | Max. basis fn. angular momentum   :        2
  | Max. atomic/ionic basis occupied n:        3
  | Max. number of basis fn. types    :        3
  | Max. radial fns per species/type  :        5
  | Max. logarithmic grid size        :     1340
  | Max. radial integration grid size :       41
  | Max. angular integration grid size:      302
  | Max. angular grid division number :        8
  | Radial grid for Hartree potential :     1340
  | Number of spin channels           :        1

------------------------------------------------------------
          Reading file control.in.
------------------------------------------------------------
  XC: Using PBEsol gradient-corrected functionals.
  Spin treatment: No spin polarisation.
  Scalar relativistic treatment of kinetic energy: on-site free-atom approximation to ZORA.
  Charge =   0.000000E+00: Neutral system requested explicitly.
  Occupation type: Gaussian broadening, width =   0.100000E-01 eV.
  Using pulay charge density mixing.
  Pulay mixing - number of memorized iterations:   10
  Charge density mixing - mixing parameter:     0.5000
  Convergence accuracy of self-consistent charge density:  0.1000E-04
  Convergence accuracy of sum of eigenvalues:  0.1000E-02
  Convergence accuracy of total energy:  0.1000E-05
  Convergence accuracy of forces:  0.1000E-03
  Maximum number of s.-c. iterations  :  1500
 
  Reading configuration options for species Al                  .
  | Found nuclear charge :  13.0000
  | Found atomic mass :    26.9815386000000      amu
  | Found l_max for Hartree potential  :   4
  | Found cutoff potl. onset [A], width [A], scale factor :    3.50000    1.50000    1.00000
  | Threshold for basis-dependent cutoff potential is   0.100000E-03
  | Found data for basic radial integration grid :    41 points, outermost radius =    5.000 A
  | Found multiplier for basic radial grid :   1
  | Found angular grid specification: user-specified.
  | Specified grid contains     4 separate shells.
  | Check grid settings after all constraints further below.
  | Found free-atom valence shell :  3 s   2.000
  | Found free-atom valence shell :  3 p   1.000
  | Found free-ion valence shell :  3 s   1.000
  | Found free-ion valence shell :  2 p   6.000
  | Found ionic basis function :  3 d , default cutoff radius.
  | Found ionic basis function :  3 p , default cutoff radius.
  | Found ionic basis function :  3 s , default cutoff radius.
  Species Al                  : Missing cutoff potential type.
  Defaulting to exp(1/x)/(1-x)^2 type cutoff potential.
  Species Al: No 'logarithmic' tag. Using default grid for free atom:
  | Default logarithmic grid data [bohr] : 0.1000E-03 0.1000E+03 0.1012E+01
  | Will include ionic basis functions of  2.0-fold positive Al                   ion.
  Species Al: On-site basis accuracy parameter (for Gram-Schmidt orthonormalisation) not specified.
  Using default value basis_acc =  0.1000000E-03.
  Species Al                  : Using default innermost maximum threshold i_radial=  2 for radial functions.
  Species Al                  : Default cutoff onset for free atom density etc. : 0.35000000E+01 AA.
  Species Al                  : Basic radial grid will be enhanced according to radial_multiplier =   1, to contain    41 grid points.
 
  Reading configuration options for species F                   .
  | Found nuclear charge :   9.0000
  | Found atomic mass :    18.9984032000000      amu
  | Found l_max for Hartree potential  :   4
  | Found cutoff potl. onset [A], width [A], scale factor :    3.50000    1.50000    1.00000
  | Threshold for basis-dependent cutoff potential is   0.100000E-03
  | Found data for basic radial integration grid :    37 points, outermost radius =    5.000 A
  | Found multiplier for basic radial grid :   1
  | Found angular grid specification: user-specified.
  | Specified grid contains     4 separate shells.
  | Check grid settings after all constraints further below.
  | Found free-atom valence shell :  2 s   2.000
  | Found free-atom valence shell :  2 p   5.000
  | Found free-ion valence shell :  2 s   1.000
  | Found free-ion valence shell :  2 p   4.000
  | Found hydrogenic basis function :  2 p   1.700
  | Found hydrogenic basis function :  3 d   7.400
  | Found hydrogenic basis function :  3 s   6.800
  Species F                   : Missing cutoff potential type.
  Defaulting to exp(1/x)/(1-x)^2 type cutoff potential.
  Species F : No 'logarithmic' tag. Using default grid for free atom:
  | Default logarithmic grid data [bohr] : 0.1000E-03 0.1000E+03 0.1012E+01
  Species F : On-site basis accuracy parameter (for Gram-Schmidt orthonormalisation) not specified.
  Using default value basis_acc =  0.1000000E-03.
  Species F                   : Using default innermost maximum threshold i_radial=  2 for radial functions.
  Species F                   : Default cutoff onset for free atom density etc. : 0.35000000E+01 AA.
  Species F                   : Basic radial grid will be enhanced according to radial_multiplier =   1, to contain    37 grid points.
 
  Finished reading input file 'control.in'.
 
------------------------------------------------------------


------------------------------------------------------------
          Reading geometry description geometry.in.
------------------------------------------------------------
  | The smallest distance between any two atoms is         1.81577034 AA.
  | The first atom of this pair is atom number                      2 .
  | The second atom of this pair is atom number                    11 .
  Input structure read successfully.
  The structure contains       12 atoms,  and a total of        120.000 electrons.

  Input geometry:
  | No unit cell requested.
  | Atomic structure:
  |       Atom                x [A]            y [A]            z [A]
  |    1: Species Al           -0.01128821        1.68734117        1.98278622
  |    2: Species Al            2.57635830        2.69480543        1.81224257
  |    3: Species Al            1.40063328        2.76717738       -0.72970025
  |    4: Species F             1.05893458        3.02989954        2.97224186
  |    5: Species F            -1.66138728        2.50665292        2.33772999
  |    6: Species F            -0.62549607        0.14968593        2.78948783
  |    7: Species F             1.90237255        0.94346759        1.94865127
  |    8: Species F             2.79404075        1.66993445       -0.04428182
  |    9: Species F             1.05670181        3.01311073       -2.50122261
  |   10: Species F             1.66805409        4.01887539        0.69449447
  |   11: Species F             4.18764037        3.12337238        2.53135478
  |   12: Species F             0.06943301        1.71552941        0.05507729

 
  Finished reading input file 'control.in'.
 

------------------------------------------------------------
          Reading geometry description geometry.in.
------------------------------------------------------------
 
  Consistency checks for stacksize environment parameter are next.
 
  | Maximum stacksize for task 0: unlimited
  | Maximum stacksize for task 1: unlimited
  | Maximum stacksize for task 2: unlimited
  | Maximum stacksize for task 3: unlimited
  | Maximum stacksize for task 4: unlimited
  | Maximum stacksize for task 5: unlimited
  | Maximum stacksize for task 6: unlimited
  | Maximum stacksize for task 7: unlimited
  | Maximum stacksize for task 8: unlimited
  | Maximum stacksize for task 9: unlimited
  | Maximum stacksize for task 10: unlimited
  | Maximum stacksize for task 11: unlimited
  | Maximum stacksize for task 12: unlimited
  | Maximum stacksize for task 13: unlimited
  | Maximum stacksize for task 14: unlimited
  | Maximum stacksize for task 15: unlimited
  | Maximum stacksize for task 16: unlimited
  | Maximum stacksize for task 17: unlimited
  | Maximum stacksize for task 18: unlimited
  | Maximum stacksize for task 19: unlimited
  | Maximum stacksize for task 20: unlimited
  | Maximum stacksize for task 21: unlimited
  | Maximum stacksize for task 22: unlimited
  | Maximum stacksize for task 23: unlimited
  | Current stacksize for task 0: unlimited
  | Current stacksize for task 1: unlimited
  | Current stacksize for task 2: unlimited
  | Current stacksize for task 3: unlimited
  | Current stacksize for task 4: unlimited
  | Current stacksize for task 5: unlimited
  | Current stacksize for task 6: unlimited
  | Current stacksize for task 7: unlimited
  | Current stacksize for task 8: unlimited
  | Current stacksize for task 9: unlimited
  | Current stacksize for task 10: unlimited
  | Current stacksize for task 11: unlimited
  | Current stacksize for task 12: unlimited
  | Current stacksize for task 13: unlimited
  | Current stacksize for task 14: unlimited
  | Current stacksize for task 15: unlimited
  | Current stacksize for task 16: unlimited
  | Current stacksize for task 17: unlimited
  | Current stacksize for task 18: unlimited
  | Current stacksize for task 19: unlimited
  | Current stacksize for task 20: unlimited
  | Current stacksize for task 21: unlimited
  | Current stacksize for task 22: unlimited
  | Current stacksize for task 23: unlimited
 
  Consistency checks for the contents of control.in are next.
 
  MPI_IN_PLACE appears to work with this MPI implementation.
  | Keeping use_mpi_in_place .true. (see manual).
  Target number of points in a grid batch is not set. Defaulting to  100
  Method for grid partitioning is not set. Defaulting to parallel hash+maxmin partitioning.
  Batch size limit is not set. Defaulting to    200
  By default, will store active basis functions for each batch.
  If in need of memory, prune_basis_once .false. can be used to disable this option.
  communication_type for Hartree potential was not specified.
  Defaulting to calc_hartree .
  Pulay mixer: Number of initial linear mixing iterations not set.
  Defaulting to    0 iterations.
  Work space size for distributed Hartree potential not set.
  Defaulting to   0.200000E+03 MB.
  Algorithm-dependent basis array size parameters:
  | n_max_pulay                         :       10
  Presetting      1001 iterations before the initial mixing cycle
  is restarted anyway using the sc_init_iter criterion / keyword.
  Presetting a factor      1.000 between actual scf density residual
  and density convergence criterion sc_accuracy_rho below which sc_init_iter
  takes no effect.
  Geometry relaxation not requested: no relaxation will be performed.
  Forces evaluation will include force correction term due to incomplete self-consistency (default).
  Handling of forces: Unphysical translation and rotation will be removed from forces.
  No accuracy limit for integral partition fn. given. Defaulting to  0.1000E-14.
  No threshold value for u(r) in integrations given. Defaulting to  0.1000E-05.
  No accuracy for occupation numbers given. Defaulting to  0.1000E-12.
  No threshold value for occupation numbers given. Defaulting to  0.0000E+00.
  No accuracy for fermi level given. Defaulting to  0.1000E-19.
  Maximum # of iterations to find E_F not set. Defaulting to  200.
  Preferred method for the eigenvalue solver ('KS_method') not specified in 'control.in'.
  Calling BLACS routine to test compilation state
  Since ScaLAPACK support is enabled, defaulting to ELPA (via ELSI).
  Will not use alltoall communication since running on < 1024 CPUs.
  Threshold for basis singularities not set.
  Default threshold for basis singularities:  0.1000E-04
  partition_type (choice of integration weights) for integrals was not specified.
  | Using a version of the partition function of Stratmann and coworkers ('stratmann_sparse').
  | At each grid point, the set of atoms used to build the partition table is smoothly restricted to
  | only those atoms whose free-atom density would be non-zero at that grid point.
  Partitioning for Hartree potential was not defined. Using partition_type for integrals.
  | Adjusted default value of keyword multip_moments_threshold to:       0.10000000E-11
  | This value may affect high angular momentum components of the Hartree potential in periodic systems.
  No q(lm)/r^(l+1) cutoff set for long-range Hartree potential.
  | Using default value of  0.100000E-09 .
  | Verify using the multipole_threshold keyword.
  Defaulting to new monopole extrapolation.
  Density update method: automatic selection selected.
  Charge integration errors on the 3D integration grid will be compensated
  by explicit normalization and distribution of residual charges.
  Use the "compensate_multipole_errors" flag to change this behaviour.
  Set 'collect_eigenvectors' to be '.true.' for use_density_matrix .false.
 
  Consistency checks for the contents of geometry.in are next.
 
  Number of empty states per atom not set in control.in - providing a guess from actual geometry.
  | Total number of empty states used during s.c.f. cycle:       36
  If you use a very high smearing, use empty_states (per atom!) in control.in to increase this value.

  Structure-dependent array size parameters: 
  | Maximum number of distinct radial functions  :       14
  | Maximum number of basis functions            :      180
  | Number of Kohn-Sham states (occupied + empty):       96
------------------------------------------------------------

------------------------------------------------------------
          Preparing all fixed parts of the calculation.
------------------------------------------------------------
  Determining machine precision:
    2.225073858507201E-308
  Setting up grids for atomic and cluster calculations.

  Creating wave function, potential, and density for free atoms.

  Species: Al

  List of occupied orbitals and eigenvalues:
    n    l              occ      energy [Ha]    energy [eV]
    1    0           2.0000       -55.621123     -1513.5278
    2    0           2.0000        -3.957030      -107.6763
    3    0           2.0000        -0.272233        -7.4078
    2    1           6.0000        -2.540949       -69.1427
    3    1           1.0000        -0.083300        -2.2667


  Species: F

  List of occupied orbitals and eigenvalues:
    n    l              occ      energy [Ha]    energy [eV]
    1    0           2.0000       -24.399611      -663.9472
    2    0           2.0000        -1.098702       -29.8972
    2    1           5.0000        -0.408210       -11.1080


  Adding cutoff potential to free-atom effective potential.
  Creating fixed part of basis set: Ionic, confined, hydrogenic.
 
  Al                   ion:

  List of free ionic orbitals and eigenvalues:
    n    l      energy [Ha]    energy [eV]
    1    0       -56.418846     -1535.2349
    2    0        -4.732717      -128.7838
    3    0        -0.872690       -23.7471
    2    1        -3.317230       -90.2664


  List of ionic basis orbitals and eigenvalues:
    n    l      energy [Ha]    energy [eV]    outer radius [A]
    3    2        -0.346815        -9.4373       4.594041
    3    1        -0.631870       -17.1940       4.538221
    3    0        -0.872657       -23.7462       4.538221

 
  F                    hydrogenic:
 
  List of hydrogenic basis orbitals: 
    n    l      effective z      eigenvalue [eV]  inner max. [A]     outer max. [A]     outer radius [A]   
    2    1         1.700000        -9.7616           1.243167           1.243167           4.598524
    3    2         7.400000       -82.7828           0.642437           0.642437           3.305741
    3    0         6.800000       -69.9026           0.057798           1.022307           3.781556
 
  Creating atomic-like basis functions for current effective potential.

  Species Al                  :

  List of atomic basis orbitals and eigenvalues:
    n    l      energy [Ha]    energy [eV]    outer radius [A]
    1    0       -55.621123     -1513.5278       0.850197
    2    0        -3.957030      -107.6763       3.144911
    3    0        -0.272233        -7.4078       4.594041
    2    1        -2.540949       -69.1427       3.731966
    3    1        -0.083300        -2.2667       4.594041


  Species F                   :

  List of atomic basis orbitals and eigenvalues:
    n    l      energy [Ha]    energy [eV]    outer radius [A]
    1    0       -24.399611      -663.9472       1.258458
    2    0        -1.098702       -29.8972       4.325857
    2    1        -0.408210       -11.1080       4.487453

  Assembling full basis from fixed parts.
  | Species Al :   atomic orbital   1 s accepted.
  | Species Al :   atomic orbital   2 s accepted.
  | Species Al :    ionic orbital   3 s accepted.
  | Species Al :   atomic orbital   3 s accepted.
  | Species Al :   atomic orbital   2 p accepted.
  | Species Al :    ionic orbital   3 p accepted.
  | Species Al :   atomic orbital   3 p accepted.
  | Species Al :    ionic orbital   3 d accepted.
  | Species F :   atomic orbital   1 s accepted.
  | Species F :    hydro orbital   3 s accepted.
  | Species F :   atomic orbital   2 s accepted.
  | Species F :   atomic orbital   2 p accepted.
  | Species F :    hydro orbital   2 p accepted.
  | Species F :    hydro orbital   3 d accepted.
 
  Basis size parameters after reduction:
  | Total number of radial functions:       14
  | Total number of basis functions :      180
 
  Per-task memory consumption for arrays in subroutine allocate_ext:
  |           4.807768MB.
  Testing on-site integration grid accuracy.
  |  Species  Function  <phi|h_atom|phi> (log., in eV)  <phi|h_atom|phi> (rad., in eV)
           1        1              -1513.5277717935              -1513.5271881332
           1        2               -107.6762691836               -107.6762662489
           1        3                 -6.9467474784                 -6.9471269649
           1        4                  5.5771951849                  5.4862107220 ***
           1        5                -69.1427313144                -69.1427312731
           1        6                 -1.5197375330                 -1.5230432022
           1        7                  6.8210948310                  6.5529872240 ***
           1        8                  4.3216540965                  4.2851170187 ***
           2        9               -663.9471986398               -663.9470363334
           2       10                 16.8514011578                 16.8512525338
           2       11                -28.4490593856                -28.4490661472
           2       12                -11.1080115307                -11.1080620173
           2       13                  7.1940182175                  7.1685154137
           2       14                 44.8544281765                 44.8543763625
 * Note: Onsite integrals marked "***" above are less accurate than
 * onsite_accuracy_threshold =    0.03000 eV. Usually, this is harmless.
 * When in doubt, tighten the "radial" and/or "radial_multiplier" flags to check.

  Preparing densities etc. for the partition functions (integrals / Hartree potential).

  Preparations completed.
  max(cpu_time)          :      0.184 s.
  Wall clock time (cpu1) :      0.184 s.
------------------------------------------------------------

------------------------------------------------------------
          Begin self-consistency loop: Initialization.

          Date     :  20220517, Time     :  121026.110
------------------------------------------------------------

  Initializing index lists of integration centers etc. from given atomic structure:
  | Number of centers in hartree potential         :        12
  | Number of centers in hartree multipole         :        12
  | Number of centers in electron density summation:        12
  | Number of centers in basis integrals           :        12
  | Number of centers in integrals                 :        12
  | Number of centers in hamiltonian               :        12
  * Using 24 tasks for Scalapack Eigenvalue solver.
  Detailed listing of tasks and assigned k-points:
  (for non-periodic systems, the "k-point" denotes an internal label only)
   Task     0 k-point     1 on node-k98a-018
   Task     1 k-point     1 on node-k98a-018
   Task     2 k-point     1 on node-k98a-018
   Task     3 k-point     1 on node-k98a-018
   Task     4 k-point     1 on node-k98a-018
   Task     5 k-point     1 on node-k98a-018
   Task     6 k-point     1 on node-k98a-018
   Task     7 k-point     1 on node-k98a-018
   Task     8 k-point     1 on node-k98a-018
   Task     9 k-point     1 on node-k98a-018
   Task    10 k-point     1 on node-k98a-018
   Task    11 k-point     1 on node-k98a-018
   Task    12 k-point     1 on node-k98a-018
   Task    13 k-point     1 on node-k98a-018
   Task    14 k-point     1 on node-k98a-018
   Task    15 k-point     1 on node-k98a-018
   Task    16 k-point     1 on node-k98a-018
   Task    17 k-point     1 on node-k98a-018
   Task    18 k-point     1 on node-k98a-018
   Task    19 k-point     1 on node-k98a-018
   Task    20 k-point     1 on node-k98a-018
   Task    21 k-point     1 on node-k98a-018
   Task    22 k-point     1 on node-k98a-018
   Task    23 k-point     1 on node-k98a-018
  Tasks:    24 split into      6 X      4 BLACS grid
  Calculating block size based on n_basis =          180  max_nprow =            6  max_npcol =            4
  ScaLAPACK block size set to:           16
  Allocating        0.012 MB for ovlp
  Allocating        0.012 MB for ham
  Allocating        0.012 MB for eigenvec
  Required Scalapack workspace - INTEGER:            1  REAL:             1
  Partitioning the integration grid into batches with parallel hashing+maxmin method.
  | Number of batches:     1052
  | Maximal batch size:     190
  | Minimal batch size:      15
  | Average batch size:      87.376
  | Standard deviation of batch sizes:      25.037

  Integration load balanced across    24 MPI tasks.
  Work distribution over tasks is as follows:
  Task     0 has       3872 integration points.
  Task     1 has       3784 integration points.
  Task     2 has       3802 integration points.
  Task     3 has       3781 integration points.
  Task     4 has       3918 integration points.
  Task     5 has       3866 integration points.
  Task     6 has       3790 integration points.
  Task     7 has       3777 integration points.
  Task     8 has       3871 integration points.
  Task     9 has       3772 integration points.
  Task    10 has       3914 integration points.
  Task    11 has       3874 integration points.
  Task    12 has       3769 integration points.
  Task    13 has       3879 integration points.
  Task    14 has       3874 integration points.
  Task    15 has       3787 integration points.
  Task    16 has       3801 integration points.
  Task    17 has       3790 integration points.
  Task    18 has       3877 integration points.
  Task    19 has       3788 integration points.
  Task    20 has       3806 integration points.
  Task    21 has       3868 integration points.
  Task    22 has       3876 integration points.
  Task    23 has       3784 integration points.
  Initializing partition tables, free-atom densities, potentials, etc. across the integration grid (initialize_grid_storage).
  | initialize_grid_storage: Actual outermost partition radius vs. multipole_radius_free
  | (-- VB: in principle, multipole_radius_free should be larger, hence this output)
  | Species        1: Confinement radius =              4.999999999999999 AA, multipole_radius_free =              5.004487022111096 AA.
  | Species        1: outer_partition_radius set to              5.004487022111096 AA .
  | Species        2: Confinement radius =              4.999999999999999 AA, multipole_radius_free =              5.009370088163274 AA.
  | Species        2: outer_partition_radius set to              5.009370088163274 AA .
  | The sparse table of interatomic distances needs          1.64 kbyte instead of         1.15 kbyte of memory.
  | Using the partition_type stratmann_smoother will reduce your memory usage.
  | Net number of integration points:    91920
  | of which are non-zero points    :    85174
  Renormalizing the initial density to the exact electron count on the 3D integration grid.
  | Initial density: Formal number of electrons (from input files) :     120.0000000000
  | Integrated number of electrons on 3D grid     :     119.9999104262
  | Charge integration error                      :      -0.0000895738
  | Normalization factor for density and gradient :       1.0000007464
  Renormalizing the free-atom superposition density to the exact electron count on the 3D integration grid.
  | Formal number of electrons (from input files) :     120.0000000000
  | Integrated number of electrons on 3D grid     :     119.9999104262
  | Charge integration error                      :      -0.0000895738
  | Normalization factor for density and gradient :       1.0000007464
  Obtaining max. number of non-zero basis functions in each batch (get_n_compute_maxes).
  | Maximal number of non-zero basis functions:      171 in task     0
  | Maximal number of non-zero basis functions:      166 in task     1
  | Maximal number of non-zero basis functions:      166 in task     2
  | Maximal number of non-zero basis functions:      164 in task     3
  | Maximal number of non-zero basis functions:      166 in task     4
  | Maximal number of non-zero basis functions:      165 in task     5
  | Maximal number of non-zero basis functions:      165 in task     6
  | Maximal number of non-zero basis functions:      166 in task     7
  | Maximal number of non-zero basis functions:      165 in task     8
  | Maximal number of non-zero basis functions:      171 in task     9
  | Maximal number of non-zero basis functions:      172 in task    10
  | Maximal number of non-zero basis functions:      165 in task    11
  | Maximal number of non-zero basis functions:      163 in task    12
  | Maximal number of non-zero basis functions:      164 in task    13
  | Maximal number of non-zero basis functions:      170 in task    14
  | Maximal number of non-zero basis functions:      172 in task    15
  | Maximal number of non-zero basis functions:      164 in task    16
  | Maximal number of non-zero basis functions:      171 in task    17
  | Maximal number of non-zero basis functions:      171 in task    18
  | Maximal number of non-zero basis functions:      170 in task    19
  | Maximal number of non-zero basis functions:      165 in task    20
  | Maximal number of non-zero basis functions:      171 in task    21
  | Maximal number of non-zero basis functions:      164 in task    22
  | Maximal number of non-zero basis functions:      166 in task    23
  Selecting the method for density update.
  Loop over occupied states selected for charge density update.
  Allocating        0.132 MB for KS_eigenvector
  Integrating Hamiltonian matrix: batch-based integration.
  Time summed over all CPUs for integration: real work        0.752 s, elapsed        0.797 s
  Integrating overlap matrix.
  Time summed over all CPUs for integration: real work        0.286 s, elapsed        0.304 s
  Deallocating overlap matrix.

  Updating Kohn-Sham eigenvalues and eigenvectors using ELSI and the ELPA eigensolver.
  Overlap matrix is not singular
  | Lowest and highest eigenvalues :  0.3346E-02,  0.5699E+01
  Finished singularity check of overlap matrix
  | Time :     0.004 s
  Starting ELPA eigensolver
  Finished Cholesky decomposition
  | Time :     0.003 s
  Finished transformation to standard eigenproblem
  | Time :     0.001 s
  Finished solving standard eigenproblem
  | Time :     0.003 s
  Finished back-transformation of eigenvectors
  | Time :     0.001 s

  Obtaining occupation numbers and chemical potential using ELSI.
  | Chemical potential (Fermi level):    -7.52630897 eV
  Writing Kohn-Sham eigenvalues.

  State    Occupation    Eigenvalue [Ha]    Eigenvalue [eV]
      1       2.00000         -55.485039        -1509.82474
      2       2.00000         -55.483762        -1509.78997
      3       2.00000         -55.483659        -1509.78717
      4       2.00000         -24.362733         -662.94369
      5       2.00000         -24.356394         -662.77119
      6       2.00000         -24.352931         -662.67697
      7       2.00000         -24.352177         -662.65646
      8       2.00000         -24.346788         -662.50980
      9       2.00000         -24.340588         -662.34110
     10       2.00000         -24.339948         -662.32367
     11       2.00000         -24.337702         -662.26258
     12       2.00000         -24.334155         -662.16605
     13       2.00000          -3.950357         -107.49469
     14       2.00000          -3.948708         -107.44981
     15       2.00000          -3.948603         -107.44695
     16       2.00000          -2.543465          -69.21121
     17       2.00000          -2.541944          -69.16982
     18       2.00000          -2.541714          -69.16356
     19       2.00000          -2.541366          -69.15408
     20       2.00000          -2.541291          -69.15204
     21       2.00000          -2.540280          -69.12454
     22       2.00000          -2.539953          -69.11565
     23       2.00000          -2.539912          -69.11452
     24       2.00000          -2.539499          -69.10328
     25       2.00000          -1.188576          -32.34281
     26       2.00000          -1.179060          -32.08387
     27       2.00000          -1.173793          -31.94054
     28       2.00000          -1.166205          -31.73406
     29       2.00000          -1.154443          -31.41400
     30       2.00000          -1.149000          -31.26587
     31       2.00000          -1.148006          -31.23882
     32       2.00000          -1.147351          -31.22100
     33       2.00000          -1.137352          -30.94892
     34       2.00000          -0.555876          -15.12614
     35       2.00000          -0.552554          -15.03576
     36       2.00000          -0.541248          -14.72811
     37       2.00000          -0.520715          -14.16937
     38       2.00000          -0.515624          -14.03083
     39       2.00000          -0.509748          -13.87094
     40       2.00000          -0.504643          -13.73202
     41       2.00000          -0.498613          -13.56795
     42       2.00000          -0.495270          -13.47698
     43       2.00000          -0.491086          -13.36314
     44       2.00000          -0.488355          -13.28881
     45       2.00000          -0.485510          -13.21140
     46       2.00000          -0.478458          -13.01951
     47       2.00000          -0.470378          -12.79964
     48       2.00000          -0.468162          -12.73933
     49       2.00000          -0.463401          -12.60980
     50       2.00000          -0.461363          -12.55433
     51       2.00000          -0.456245          -12.41505
     52       2.00000          -0.454615          -12.37070
     53       2.00000          -0.452304          -12.30781
     54       2.00000          -0.451242          -12.27891
     55       2.00000          -0.450867          -12.26871
     56       2.00000          -0.450170          -12.24976
     57       2.00000          -0.449748          -12.23826
     58       2.00000          -0.440155          -11.97724
     59       2.00000          -0.433759          -11.80317
     60       2.00000          -0.430177          -11.70571
     61       0.00000          -0.150506           -4.09549
     62       0.00000          -0.094952           -2.58377
     63       0.00000          -0.078894           -2.14682
     64       0.00000          -0.026809           -0.72950
     65       0.00000          -0.018186           -0.49486
     66       0.00000          -0.003577           -0.09732
     67       0.00000           0.015377            0.41844
     68       0.00000           0.025963            0.70649
     69       0.00000           0.047782            1.30022
     70       0.00000           0.048573            1.32175
     71       0.00000           0.089130            2.42535
     72       0.00000           0.114548            3.11701
     73       0.00000           0.149195            4.05982
     74       0.00000           0.158925            4.32458
     75       0.00000           0.169331            4.60774
     76       0.00000           0.177699            4.83544
     77       0.00000           0.190613            5.18684
     78       0.00000           0.198019            5.38838
     79       0.00000           0.209593            5.70333
     80       0.00000           0.217140            5.90869
     81       0.00000           0.220055            5.98799
     82       0.00000           0.224303            6.10358
     83       0.00000           0.237323            6.45788
     84       0.00000           0.239594            6.51968
     85       0.00000           0.256578            6.98183
     86       0.00000           0.265534            7.22555
     87       0.00000           0.271830            7.39688
     88       0.00000           0.275842            7.50605
     89       0.00000           0.280639            7.63658
     90       0.00000           0.287039            7.81073
     91       0.00000           0.302744            8.23807
     92       0.00000           0.336709            9.16231
     93       0.00000           0.347284            9.45009
     94       0.00000           0.368483           10.02694
     95       0.00000           0.376759           10.25214
     96       0.00000           0.378059           10.28751

  Highest occupied state (VBM) at    -11.70571246 eV
  | Occupation number:      2.00000000

  Lowest unoccupied state (CBM) at    -4.09548503 eV
  | Occupation number:      0.00000000

  Overall HOMO-LUMO gap:      7.61022743 eV.
  Calculating total energy contributions from superposition of free atom densities.

  Total energy components:
  | Sum of eigenvalues            :        -887.41407887 Ha      -24147.76571091 eV
  | XC energy correction          :        -144.36378387 Ha       -3928.33843067 eV
  | XC potential correction       :         187.97173947 Ha        5114.97127782 eV
  | Free-atom electrostatic energy:        -781.53312837 Ha      -21266.59845566 eV
  | Hartree energy correction     :           0.00000000 Ha           0.00000000 eV
  | Entropy correction            :           0.00000000 Ha           0.00000000 eV
  | ---------------------------
  | Total energy                  :       -1625.33925164 Ha      -44227.73131942 eV
  | Total energy, T -> 0          :       -1625.33925164 Ha      -44227.73131942 eV  <-- do not rely on this value for anything but (periodic) metals
  | Electronic free energy        :       -1625.33925164 Ha      -44227.73131942 eV

  Derived energy quantities:
  | Kinetic energy                :        1627.66815082 Ha       44291.10389027 eV
  | Electrostatic energy          :       -3108.64361859 Ha      -84590.49677902 eV
  | Energy correction for multipole
  | error in Hartree potential    :           0.00000000 Ha           0.00000000 eV
  | Sum of eigenvalues per atom                           :       -2012.31380924 eV
  | Total energy (T->0) per atom                          :       -3685.64427662 eV  <-- do not rely on this value for anything but (periodic) metals
  | Electronic free energy per atom                       :       -3685.64427662 eV
  Initialize hartree_potential_storage
  Max. number of atoms included in rho_multipole:           12

  End scf initialization - timings             :  max(cpu_time)    wall_clock(cpu1)
  | Time for scf. initialization                :        0.121 s           0.122 s
  | Boundary condition initialization           :        0.000 s           0.001 s
  | Integration                                 :        0.047 s           0.047 s
  | Solution of K.-S. eqns.                     :        0.013 s           0.013 s
  | Grid partitioning                           :        0.038 s           0.038 s
  | Preloading free-atom quantities on grid     :        0.016 s           0.015 s
  | Free-atom superposition energy              :        0.005 s           0.005 s
  | Total energy evaluation                     :        0.000 s           0.001 s

  Partial memory accounting:
  | Current value for overall tracked memory usage:
  |   Minimum:        0.273 MB (on task 23)
  |   Maximum:        0.292 MB (on task  0)
  |   Average:        0.287 MB
  | Peak value for overall tracked memory usage:
  |   Minimum:        1.325 MB (on task 22 after allocating wave)
  |   Maximum:        1.394 MB (on task 10 after allocating wave)
  |   Average:        1.356 MB
  | Largest tracked array allocation so far:
  |   Minimum:        0.236 MB (H_times_psi on task 12)
  |   Maximum:        0.530 MB (all_coords on task 14)
  |   Average:        0.267 MB
  Note:  These values currently only include a subset of arrays which are explicitly tracked.
  The "true" memory usage will be greater.
------------------------------------------------------------
  Evaluating new KS density.
  Integration grid: deviation in total charge (<rho> - N_e) =   4.263256E-14

  Time for density update prior                :  max(cpu_time)    wall_clock(cpu1)
  | self-consistency iterative process          :        0.029 s           0.029 s

------------------------------------------------------------
          Begin self-consistency iteration #    1

  Date     :  20220517, Time     :  121026.262
------------------------------------------------------------
  Pulay mixing of updated and previous charge densities.
  Renormalizing the density to the exact electron count on the 3D integration grid.
  | Formal number of electrons (from input files) :     120.0000000000
  | Integrated number of electrons on 3D grid     :     120.0000000000
  | Charge integration error                      :       0.0000000000
  | Normalization factor for density and gradient :       1.0000000000

  Evaluating partitioned Hartree potential by multipole expansion.
  | Original multipole sum: apparent total charge =   0.485990E-13
  | Sum of charges compensated after spline to logarithmic grids =   0.841930E-04
  | Analytical far-field extrapolation by fixed multipoles:
  | Hartree multipole sum: apparent total charge =   0.482116E-13
  Summing up the Hartree potential.
  Time summed over all CPUs for potential: real work        0.381 s, elapsed        0.393 s
  | RMS charge density error from multipole expansion :   0.108863E-01

  Integrating Hamiltonian matrix: batch-based integration.
  Time summed over all CPUs for integration: real work        0.700 s, elapsed        0.741 s

  Updating Kohn-Sham eigenvalues and eigenvectors using ELSI and the ELPA eigensolver.
  Starting ELPA eigensolver
  Finished transformation to standard eigenproblem
  | Time :     0.000 s
  Finished solving standard eigenproblem
  | Time :     0.003 s
  Finished back-transformation of eigenvectors
  | Time :     0.001 s

  Obtaining occupation numbers and chemical potential using ELSI.
  | Chemical potential (Fermi level):    -5.85110144 eV
  Writing Kohn-Sham eigenvalues.

  State    Occupation    Eigenvalue [Ha]    Eigenvalue [eV]
      1       2.00000         -55.692470        -1515.46923
      2       2.00000         -55.670083        -1514.86002
      3       2.00000         -55.622353        -1513.56123
      4       2.00000         -24.268872         -660.38960
      5       2.00000         -24.251868         -659.92692
      6       2.00000         -24.196275         -658.41414
      7       2.00000         -24.190469         -658.25615
      8       2.00000         -24.176075         -657.86446
      9       2.00000         -24.097968         -655.73906
     10       2.00000         -24.082632         -655.32175
     11       2.00000         -24.013794         -653.44857
     12       2.00000         -24.011198         -653.37795
     13       2.00000          -4.129656         -112.37365
     14       2.00000          -4.107652         -111.77489
     15       2.00000          -4.059989         -110.47791
     16       2.00000          -2.722791          -74.09091
     17       2.00000          -2.722387          -74.07991
     18       2.00000          -2.721892          -74.06645
     19       2.00000          -2.701058          -73.49953
     20       2.00000          -2.700357          -73.48045
     21       2.00000          -2.699578          -73.45926
     22       2.00000          -2.653179          -72.19668
     23       2.00000          -2.652965          -72.19086
     24       2.00000          -2.651419          -72.14880
     25       2.00000          -1.184622          -32.23520
     26       2.00000          -1.167225          -31.76182
     27       2.00000          -1.127209          -30.67292
     28       2.00000          -1.116432          -30.37967
     29       2.00000          -1.095261          -29.80356
     30       2.00000          -1.042288          -28.36211
     31       2.00000          -1.027264          -27.95327
     32       2.00000          -0.969722          -26.38749
     33       2.00000          -0.956856          -26.03738
     34       2.00000          -0.563304          -15.32828
     35       2.00000          -0.554280          -15.08272
     36       2.00000          -0.535550          -14.57305
     37       2.00000          -0.507061          -13.79784
     38       2.00000          -0.494440          -13.45440
     39       2.00000          -0.479955          -13.06023
     40       2.00000          -0.475990          -12.95236
     41       2.00000          -0.467984          -12.73450
     42       2.00000          -0.463057          -12.60042
     43       2.00000          -0.446081          -12.13848
     44       2.00000          -0.430498          -11.71443
     45       2.00000          -0.424341          -11.54689
     46       2.00000          -0.414879          -11.28943
     47       2.00000          -0.407307          -11.08338
     48       2.00000          -0.396927          -10.80095
     49       2.00000          -0.389289          -10.59310
     50       2.00000          -0.370651          -10.08592
     51       2.00000          -0.353289           -9.61347
     52       2.00000          -0.351729           -9.57104
     53       2.00000          -0.350266           -9.53121
     54       2.00000          -0.336999           -9.17022
     55       2.00000          -0.336152           -9.14717
     56       2.00000          -0.307831           -8.37650
     57       2.00000          -0.288399           -7.84773
     58       2.00000          -0.285749           -7.77563
     59       2.00000          -0.267409           -7.27656
     60       2.00000          -0.250724           -6.82255
     61       0.00000          -0.181488           -4.93855
     62       0.00000          -0.123585           -3.36292
     63       0.00000          -0.096166           -2.61681
     64       0.00000          -0.060270           -1.64003
     65       0.00000          -0.047846           -1.30197
     66       0.00000          -0.032240           -0.87729
     67       0.00000           0.006691            0.18206
     68       0.00000           0.010420            0.28354
     69       0.00000           0.037793            1.02841
     70       0.00000           0.055030            1.49745
     71       0.00000           0.064319            1.75021
     72       0.00000           0.097543            2.65428
     73       0.00000           0.132217            3.59781
     74       0.00000           0.138532            3.76965
     75       0.00000           0.149519            4.06861
     76       0.00000           0.157886            4.29630
     77       0.00000           0.182610            4.96906
     78       0.00000           0.194105            5.28186
     79       0.00000           0.198530            5.40228
     80       0.00000           0.204085            5.55344
     81       0.00000           0.210951            5.74026
     82       0.00000           0.219359            5.96905
     83       0.00000           0.224712            6.11472
     84       0.00000           0.230008            6.25883
     85       0.00000           0.246448            6.70620
     86       0.00000           0.251448            6.84226
     87       0.00000           0.259428            7.05939
     88       0.00000           0.263666            7.17470
     89       0.00000           0.278195            7.57007
     90       0.00000           0.281988            7.67329
     91       0.00000           0.290652            7.90905
     92       0.00000           0.350627            9.54103
     93       0.00000           0.355172            9.66471
     94       0.00000           0.370026           10.06891
     95       0.00000           0.371567           10.11085
     96       0.00000           0.387396           10.54159

  Highest occupied state (VBM) at     -6.82255086 eV
  | Occupation number:      2.00000000

  Lowest unoccupied state (CBM) at    -4.93854616 eV
  | Occupation number:      0.00000000

  Overall HOMO-LUMO gap:      1.88400470 eV.

  Total energy components:
  | Sum of eigenvalues            :        -882.86799814 Ha      -24024.06056013 eV
  | XC energy correction          :        -145.65750222 Ha       -3963.54229824 eV
  | XC potential correction       :         189.67225470 Ha        5161.24465163 eV
  | Free-atom electrostatic energy:        -781.53312837 Ha      -21266.59845566 eV
  | Hartree energy correction     :          -4.71912508 Ha        -128.41392710 eV
  | Entropy correction            :           0.00000000 Ha           0.00000000 eV
  | ---------------------------
  | Total energy                  :       -1625.10549912 Ha      -44221.37058950 eV
  | Total energy, T -> 0          :       -1625.10549912 Ha      -44221.37058950 eV  <-- do not rely on this value for anything but (periodic) metals
  | Electronic free energy        :       -1625.10549912 Ha      -44221.37058950 eV

  Derived energy quantities:
  | Kinetic energy                :        1633.79515231 Ha       44457.82808377 eV
  | Electrostatic energy          :       -3113.24314921 Ha      -84715.65637503 eV
  | Energy correction for multipole
  | error in Hartree potential    :           0.03316221 Ha           0.90238961 eV
  | Sum of eigenvalues per atom                           :       -2002.00504668 eV
  | Total energy (T->0) per atom                          :       -3685.11421579 eV  <-- do not rely on this value for anything but (periodic) metals
  | Electronic free energy per atom                       :       -3685.11421579 eV
  Evaluating new KS density.
  Integration grid: deviation in total charge (<rho> - N_e) =   5.684342E-14

  Self-consistency convergence accuracy:
  | Change of charge density      :  0.5950E+00
  | Change of sum of eigenvalues  :  0.1237E+03 eV
  | Change of total energy        :  0.6361E+01 eV


------------------------------------------------------------
  End self-consistency iteration #     1       :  max(cpu_time)    wall_clock(cpu1)
  | Time for this iteration                     :        0.084 s           0.083 s
  | Charge density update                       :        0.029 s           0.028 s
  | Density mixing                              :        0.001 s           0.000 s
  | Hartree multipole update                    :        0.001 s           0.002 s
  | Hartree multipole summation                 :        0.017 s           0.016 s
  | Integration                                 :        0.031 s           0.032 s
  | Solution of K.-S. eqns.                     :        0.004 s           0.004 s
  | Total energy evaluation                     :        0.000 s           0.001 s

  Partial memory accounting:
  | Current value for overall tracked memory usage:
  |   Minimum:        0.273 MB (on task 23)
  |   Maximum:        0.292 MB (on task  0)
  |   Average:        0.287 MB
  | Peak value for overall tracked memory usage:
  |   Minimum:        1.325 MB (on task 22 after allocating wave)
  |   Maximum:        1.394 MB (on task 10 after allocating wave)
  |   Average:        1.356 MB
  | Largest tracked array allocation so far:
  |   Minimum:        0.709 MB (gradient_basis_wave on task 12)
  |   Maximum:        0.748 MB (gradient_basis_wave on task 10)
  |   Average:        0.727 MB
  Note:  These values currently only include a subset of arrays which are explicitly tracked.
  The "true" memory usage will be greater.
------------------------------------------------------------

------------------------------------------------------------
          Begin self-consistency iteration #    2

  Date     :  20220517, Time     :  121026.351
------------------------------------------------------------
  Pulay mixing of updated and previous charge densities.
  Renormalizing the density to the exact electron count on the 3D integration grid.
  | Formal number of electrons (from input files) :     120.0000000000
  | Integrated number of electrons on 3D grid     :     120.0000000000
  | Charge integration error                      :       0.0000000000
  | Normalization factor for density and gradient :       1.0000000000

  Evaluating partitioned Hartree potential by multipole expansion.
  | Original multipole sum: apparent total charge =   0.108704E-12
  | Sum of charges compensated after spline to logarithmic grids =   0.422387E-04
  | Analytical far-field extrapolation by fixed multipoles:
  | Hartree multipole sum: apparent total charge =   0.108427E-12
  Summing up the Hartree potential.
  Time summed over all CPUs for potential: real work        0.379 s, elapsed        0.391 s
  | RMS charge density error from multipole expansion :   0.124806E-01

  Integrating Hamiltonian matrix: batch-based integration.
  Time summed over all CPUs for integration: real work        0.699 s, elapsed        0.743 s

  Updating Kohn-Sham eigenvalues and eigenvectors using ELSI and the ELPA eigensolver.
  Starting ELPA eigensolver
  Finished transformation to standard eigenproblem
  | Time :     0.000 s
  Finished solving standard eigenproblem
  | Time :     0.003 s
  Finished back-transformation of eigenvectors
  | Time :     0.000 s

  Obtaining occupation numbers and chemical potential using ELSI.
  | Chemical potential (Fermi level):    -7.47881578 eV
  Highest occupied state (VBM) at     -7.90456181 eV
  | Occupation number:      2.00000000

  Lowest unoccupied state (CBM) at    -5.19042164 eV
  | Occupation number:      0.00000000

  Overall HOMO-LUMO gap:      2.71414018 eV.

  Checking to see if s.c.f. parameters should be adjusted.

  Total energy components:
  | Sum of eigenvalues            :        -885.79594396 Ha      -24103.73401960 eV
  | XC energy correction          :        -145.16956702 Ha       -3950.26490596 eV
  | XC potential correction       :         189.03035949 Ha        5143.77779418 eV
  | Free-atom electrostatic energy:        -781.53312837 Ha      -21266.59845566 eV
  | Hartree energy correction     :          -1.57180080 Ha         -42.77087600 eV
  | Entropy correction            :           0.00000000 Ha           0.00000000 eV
  | ---------------------------
  | Total energy                  :       -1625.04008067 Ha      -44219.59046303 eV
  | Total energy, T -> 0          :       -1625.04008067 Ha      -44219.59046303 eV  <-- do not rely on this value for anything but (periodic) metals
  | Electronic free energy        :       -1625.04008067 Ha      -44219.59046303 eV

  Derived energy quantities:
  | Kinetic energy                :        1629.96439017 Ha       44353.58774211 eV
  | Electrostatic energy          :       -3109.83490381 Ha      -84622.91329919 eV
  | Energy correction for multipole
  | error in Hartree potential    :           0.03670443 Ha           0.99877840 eV
  | Sum of eigenvalues per atom                           :       -2008.64450163 eV
  | Total energy (T->0) per atom                          :       -3684.96587192 eV  <-- do not rely on this value for anything but (periodic) metals
  | Electronic free energy per atom                       :       -3684.96587192 eV
  Evaluating new KS density.
  Integration grid: deviation in total charge (<rho> - N_e) =  -1.421085E-14

  Self-consistency convergence accuracy:
  | Change of charge density      :  0.4782E+00
  | Change of sum of eigenvalues  : -0.7967E+02 eV
  | Change of total energy        :  0.1780E+01 eV


------------------------------------------------------------
  End self-consistency iteration #     2       :  max(cpu_time)    wall_clock(cpu1)
  | Time for this iteration                     :        0.086 s           0.083 s
  | Charge density update                       :        0.028 s           0.028 s
  | Density mixing                              :        0.004 s           0.001 s
  | Hartree multipole update                    :        0.001 s           0.002 s
  | Hartree multipole summation                 :        0.017 s           0.016 s
  | Integration                                 :        0.031 s           0.032 s
  | Solution of K.-S. eqns.                     :        0.004 s           0.004 s
  | Total energy evaluation                     :        0.000 s           0.000 s

  Partial memory accounting:
  | Current value for overall tracked memory usage:
  |   Minimum:        0.274 MB (on task 23)
  |   Maximum:        0.293 MB (on task  0)
  |   Average:        0.288 MB
  | Peak value for overall tracked memory usage:
  |   Minimum:        1.325 MB (on task 22 after allocating wave)
  |   Maximum:        1.394 MB (on task 10 after allocating wave)
  |   Average:        1.356 MB
  | Largest tracked array allocation so far:
  |   Minimum:        0.709 MB (gradient_basis_wave on task 12)
  |   Maximum:        0.748 MB (gradient_basis_wave on task 10)
  |   Average:        0.727 MB
  Note:  These values currently only include a subset of arrays which are explicitly tracked.
  The "true" memory usage will be greater.
------------------------------------------------------------

------------------------------------------------------------
          Begin self-consistency iteration #    3

  Date     :  20220517, Time     :  121026.441
------------------------------------------------------------
  Pulay mixing of updated and previous charge densities.
  Renormalizing the density to the exact electron count on the 3D integration grid.
  | Formal number of electrons (from input files) :     120.0000000000
  | Integrated number of electrons on 3D grid     :     120.0000000000
  | Charge integration error                      :      -0.0000000000
  | Normalization factor for density and gradient :       1.0000000000

  Evaluating partitioned Hartree potential by multipole expansion.
  | Original multipole sum: apparent total charge =   0.741322E-13
  | Sum of charges compensated after spline to logarithmic grids =   0.508816E-04
  | Analytical far-field extrapolation by fixed multipoles:
  | Hartree multipole sum: apparent total charge =   0.752668E-13
  Summing up the Hartree potential.
  Time summed over all CPUs for potential: real work        0.379 s, elapsed        0.391 s
  | RMS charge density error from multipole expansion :   0.167843E-01

  Integrating Hamiltonian matrix: batch-based integration.
  Time summed over all CPUs for integration: real work        0.700 s, elapsed        0.743 s

  Updating Kohn-Sham eigenvalues and eigenvectors using ELSI and the ELPA eigensolver.
  Starting ELPA eigensolver
  Finished transformation to standard eigenproblem
  | Time :     0.000 s
  Finished solving standard eigenproblem
  | Time :     0.004 s
  Finished back-transformation of eigenvectors
  | Time :     0.000 s

  Obtaining occupation numbers and chemical potential using ELSI.
  | Chemical potential (Fermi level):    -6.08578431 eV
  Highest occupied state (VBM) at     -7.41687697 eV
  | Occupation number:      2.00000000

  Lowest unoccupied state (CBM) at    -5.48275754 eV
  | Occupation number:      0.00000000

  Overall HOMO-LUMO gap:      1.93411943 eV.

  Total energy components:
  | Sum of eigenvalues            :        -886.81651008 Ha      -24131.50503676 eV
  | XC energy correction          :        -145.13065394 Ha       -3949.20602720 eV
  | XC potential correction       :         188.97809655 Ha        5142.35564742 eV
  | Free-atom electrostatic energy:        -781.53312837 Ha      -21266.59845566 eV
  | Hartree energy correction     :          -0.53623704 Ha         -14.59175218 eV
  | Entropy correction            :           0.00000000 Ha           0.00000000 eV
  | ---------------------------
  | Total energy                  :       -1625.03843288 Ha      -44219.54562437 eV
  | Total energy, T -> 0          :       -1625.03843288 Ha      -44219.54562437 eV  <-- do not rely on this value for anything but (periodic) metals
  | Electronic free energy        :       -1625.03843288 Ha      -44219.54562437 eV

  Derived energy quantities:
  | Kinetic energy                :        1628.32279714 Ha       44308.91772315 eV
  | Electrostatic energy          :       -3108.23057608 Ha      -84579.25732032 eV
  | Energy correction for multipole
  | error in Hartree potential    :           0.04894494 Ha           1.33185952 eV
  | Sum of eigenvalues per atom                           :       -2010.95875306 eV
  | Total energy (T->0) per atom                          :       -3684.96213536 eV  <-- do not rely on this value for anything but (periodic) metals
  | Electronic free energy per atom                       :       -3684.96213536 eV
  Evaluating new KS density.
  Integration grid: deviation in total charge (<rho> - N_e) =   5.684342E-14

  Self-consistency convergence accuracy:
  | Change of charge density      :  0.1284E+00
  | Change of sum of eigenvalues  : -0.2777E+02 eV
  | Change of total energy        :  0.4484E-01 eV


------------------------------------------------------------
  End self-consistency iteration #     3       :  max(cpu_time)    wall_clock(cpu1)
  | Time for this iteration                     :        0.086 s           0.083 s
  | Charge density update                       :        0.028 s           0.029 s
  | Density mixing                              :        0.004 s           0.001 s
  | Hartree multipole update                    :        0.001 s           0.001 s
  | Hartree multipole summation                 :        0.017 s           0.017 s
  | Integration                                 :        0.031 s           0.031 s
  | Solution of K.-S. eqns.                     :        0.004 s           0.004 s
  | Total energy evaluation                     :        0.000 s           0.000 s

  Partial memory accounting:
  | Current value for overall tracked memory usage:
  |   Minimum:        0.274 MB (on task 23)
  |   Maximum:        0.293 MB (on task  0)
  |   Average:        0.288 MB
  | Peak value for overall tracked memory usage:
  |   Minimum:        1.325 MB (on task 22 after allocating wave)
  |   Maximum:        1.394 MB (on task 10 after allocating wave)
  |   Average:        1.356 MB
  | Largest tracked array allocation so far:
  |   Minimum:        0.709 MB (gradient_basis_wave on task 12)
  |   Maximum:        0.748 MB (gradient_basis_wave on task 10)
  |   Average:        0.727 MB
  Note:  These values currently only include a subset of arrays which are explicitly tracked.
  The "true" memory usage will be greater.
------------------------------------------------------------

------------------------------------------------------------
          Begin self-consistency iteration #    4

  Date     :  20220517, Time     :  121026.530
------------------------------------------------------------
  Pulay mixing of updated and previous charge densities.
  Renormalizing the density to the exact electron count on the 3D integration grid.
  | Formal number of electrons (from input files) :     120.0000000000
  | Integrated number of electrons on 3D grid     :     120.0000000000
  | Charge integration error                      :      -0.0000000000
  | Normalization factor for density and gradient :       1.0000000000

  Evaluating partitioned Hartree potential by multipole expansion.
  | Original multipole sum: apparent total charge =   0.261535E-13
  | Sum of charges compensated after spline to logarithmic grids =   0.548938E-04
  | Analytical far-field extrapolation by fixed multipoles:
  | Hartree multipole sum: apparent total charge =   0.271498E-13
  Summing up the Hartree potential.
  Time summed over all CPUs for potential: real work        0.379 s, elapsed        0.391 s
  | RMS charge density error from multipole expansion :   0.189659E-01

  Integrating Hamiltonian matrix: batch-based integration.
  Time summed over all CPUs for integration: real work        0.700 s, elapsed        0.744 s

  Updating Kohn-Sham eigenvalues and eigenvectors using ELSI and the ELPA eigensolver.
  Starting ELPA eigensolver
  Finished transformation to standard eigenproblem
  | Time :     0.000 s
  Finished solving standard eigenproblem
  | Time :     0.004 s
  Finished back-transformation of eigenvectors
  | Time :     0.000 s

  Obtaining occupation numbers and chemical potential using ELSI.
  | Chemical potential (Fermi level):    -6.06326389 eV
  Highest occupied state (VBM) at     -7.37972149 eV
  | Occupation number:      2.00000000

  Lowest unoccupied state (CBM) at    -5.50044626 eV
  | Occupation number:      0.00000000

  Overall HOMO-LUMO gap:      1.87927523 eV.

  Total energy components:
  | Sum of eigenvalues            :        -886.97970267 Ha      -24135.94573310 eV
  | XC energy correction          :        -145.11028381 Ha       -3948.65172767 eV
  | XC potential correction       :         188.95061773 Ha        5141.60791047 eV
  | Free-atom electrostatic energy:        -781.53312837 Ha      -21266.59845566 eV
  | Hartree energy correction     :          -0.36331496 Ha          -9.88630314 eV
  | Entropy correction            :           0.00000000 Ha           0.00000000 eV
  | ---------------------------
  | Total energy                  :       -1625.03581209 Ha      -44219.47430910 eV
  | Total energy, T -> 0          :       -1625.03581209 Ha      -44219.47430910 eV  <-- do not rely on this value for anything but (periodic) metals
  | Electronic free energy        :       -1625.03581209 Ha      -44219.47430910 eV

  Derived energy quantities:
  | Kinetic energy                :        1627.57975055 Ha       44288.69839654 eV
  | Electrostatic energy          :       -3107.50527883 Ha      -84559.52097798 eV
  | Energy correction for multipole
  | error in Hartree potential    :           0.05460472 Ha           1.48587007 eV
  | Sum of eigenvalues per atom                           :       -2011.32881109 eV
  | Total energy (T->0) per atom                          :       -3684.95619243 eV  <-- do not rely on this value for anything but (periodic) metals
  | Electronic free energy per atom                       :       -3684.95619243 eV
  Evaluating new KS density.
  Integration grid: deviation in total charge (<rho> - N_e) =   4.263256E-14

  Self-consistency convergence accuracy:
  | Change of charge density      :  0.9246E-01
  | Change of sum of eigenvalues  : -0.4441E+01 eV
  | Change of total energy        :  0.7132E-01 eV


------------------------------------------------------------
  End self-consistency iteration #     4       :  max(cpu_time)    wall_clock(cpu1)
  | Time for this iteration                     :        0.086 s           0.084 s
  | Charge density update                       :        0.028 s           0.029 s
  | Density mixing                              :        0.004 s           0.002 s
  | Hartree multipole update                    :        0.001 s           0.001 s
  | Hartree multipole summation                 :        0.017 s           0.017 s
  | Integration                                 :        0.031 s           0.031 s
  | Solution of K.-S. eqns.                     :        0.004 s           0.004 s
  | Total energy evaluation                     :        0.000 s           0.000 s

  Partial memory accounting:
  | Current value for overall tracked memory usage:
  |   Minimum:        0.274 MB (on task 23)
  |   Maximum:        0.293 MB (on task  0)
  |   Average:        0.288 MB
  | Peak value for overall tracked memory usage:
  |   Minimum:        1.325 MB (on task 22 after allocating wave)
  |   Maximum:        1.394 MB (on task 10 after allocating wave)
  |   Average:        1.356 MB
  | Largest tracked array allocation so far:
  |   Minimum:        0.709 MB (gradient_basis_wave on task 12)
  |   Maximum:        0.748 MB (gradient_basis_wave on task 10)
  |   Average:        0.727 MB
  Note:  These values currently only include a subset of arrays which are explicitly tracked.
  The "true" memory usage will be greater.
------------------------------------------------------------

------------------------------------------------------------
          Begin self-consistency iteration #    5

  Date     :  20220517, Time     :  121026.620
------------------------------------------------------------
  Pulay mixing of updated and previous charge densities.
  Renormalizing the density to the exact electron count on the 3D integration grid.
  | Formal number of electrons (from input files) :     120.0000000000
  | Integrated number of electrons on 3D grid     :     120.0000000000
  | Charge integration error                      :      -0.0000000000
  | Normalization factor for density and gradient :       1.0000000000

  Evaluating partitioned Hartree potential by multipole expansion.
  | Original multipole sum: apparent total charge =  -0.146572E-13
  | Sum of charges compensated after spline to logarithmic grids =   0.561369E-04
  | Analytical far-field extrapolation by fixed multipoles:
  | Hartree multipole sum: apparent total charge =  -0.135995E-13
  Summing up the Hartree potential.
  Time summed over all CPUs for potential: real work        0.379 s, elapsed        0.392 s
  | RMS charge density error from multipole expansion :   0.187610E-01

  Integrating Hamiltonian matrix: batch-based integration.
  Time summed over all CPUs for integration: real work        0.700 s, elapsed        0.743 s

  Updating Kohn-Sham eigenvalues and eigenvectors using ELSI and the ELPA eigensolver.
  Starting ELPA eigensolver
  Finished transformation to standard eigenproblem
  | Time :     0.001 s
  Finished solving standard eigenproblem
  | Time :     0.003 s
  Finished back-transformation of eigenvectors
  | Time :     0.000 s

  Obtaining occupation numbers and chemical potential using ELSI.
  | Chemical potential (Fermi level):    -6.04236557 eV
  Highest occupied state (VBM) at     -7.49980041 eV
  | Occupation number:      2.00000000

  Lowest unoccupied state (CBM) at    -5.41786032 eV
  | Occupation number:      0.00000000

  Overall HOMO-LUMO gap:      2.08194009 eV.

  Total energy components:
  | Sum of eigenvalues            :        -886.76677337 Ha      -24130.15163206 eV
  | XC energy correction          :        -145.10684067 Ha       -3948.55803516 eV
  | XC potential correction       :         188.94626318 Ha        5141.48941719 eV
  | Free-atom electrostatic energy:        -781.53312837 Ha      -21266.59845566 eV
  | Hartree energy correction     :          -0.57513980 Ha         -15.65035012 eV
  | Entropy correction            :           0.00000000 Ha           0.00000000 eV
[...]
   Total forces(   7)            : -0.740018E+00  0.200701E+01  0.229176E+00
  atom #    8
   Hellmann-Feynman              :  0.374468E+00 -0.673954E+00  0.118844E+01
   Ionic forces                  :  0.000000E+00  0.000000E+00  0.000000E+00
   Multipole                     :  0.328676E+00 -0.394718E+00  0.209418E-01
   Hartree pot. SCF incomplete   :  0.612725E-05 -0.716139E-05 -0.725170E-05
   Pulay + GGA                   : -0.189700E+01  0.402041E+01 -0.182906E+01
   ----------------------------------------------------------------
   Total forces(   8)            : -0.119385E+01  0.295173E+01 -0.619683E+00
  atom #    9
   Hellmann-Feynman              : -0.565745E+00  0.587700E+00 -0.313342E+01
   Ionic forces                  :  0.000000E+00  0.000000E+00  0.000000E+00
   Multipole                     : -0.249048E+00 -0.705012E-01 -0.837817E+00
   Hartree pot. SCF incomplete   : -0.322597E-05 -0.727206E-06 -0.363852E-05
   Pulay + GGA                   :  0.165190E+01 -0.754340E+00  0.758605E+01
   ----------------------------------------------------------------
   Total forces(   9)            :  0.837103E+00 -0.237142E+00  0.361482E+01
  atom #   10
   Hellmann-Feynman              : -0.643723E+00  0.380512E+00  0.432913E+00
   Ionic forces                  :  0.000000E+00  0.000000E+00  0.000000E+00
   Multipole                     : -0.777344E-01  0.476851E+00  0.221990E+00
   Hartree pot. SCF incomplete   : -0.520652E-05  0.143815E-04 -0.299402E-05
   Pulay + GGA                   :  0.125166E+01 -0.290594E+01 -0.184244E+01
   ----------------------------------------------------------------
   Total forces(  10)            :  0.530200E+00 -0.204857E+01 -0.118754E+01
  atom #   11
   Hellmann-Feynman              :  0.291118E+01  0.855298E+00  0.108268E+01
   Ionic forces                  :  0.000000E+00  0.000000E+00  0.000000E+00
   Multipole                     :  0.777293E+00  0.156008E+00  0.388169E+00
   Hartree pot. SCF incomplete   :  0.274839E-05 -0.393597E-06  0.425606E-05
   Pulay + GGA                   : -0.674483E+01 -0.168432E+01 -0.307079E+01
   ----------------------------------------------------------------
   Total forces(  11)            : -0.305636E+01 -0.673020E+00 -0.159994E+01
  atom #   12
   Hellmann-Feynman              : -0.133592E+00 -0.539790E+00  0.287994E+00
   Ionic forces                  :  0.000000E+00  0.000000E+00  0.000000E+00
   Multipole                     : -0.270958E+00 -0.252846E+00 -0.221927E+00
   Hartree pot. SCF incomplete   : -0.613180E-05 -0.504192E-05 -0.702829E-05
   Pulay + GGA                   :  0.150111E+01  0.210317E+01  0.230062E+00
   ----------------------------------------------------------------
   Total forces(  12)            :  0.109655E+01  0.131053E+01  0.296122E+00


  Self-consistency convergence accuracy:
  | Change of charge density      :  0.4992E-06
  | Change of sum of eigenvalues  :  0.9210E-05 eV
  | Change of total energy        : -0.2135E-08 eV
  | Change of forces              :  0.1220E-05 eV/A

  Writing Kohn-Sham eigenvalues.

  State    Occupation    Eigenvalue [Ha]    Eigenvalue [eV]
      1       2.00000         -55.685112        -1515.26898
      2       2.00000         -55.653034        -1514.39611
      3       2.00000         -55.592344        -1512.74465
      4       2.00000         -24.345828         -662.48369
      5       2.00000         -24.319657         -661.77154
      6       2.00000         -24.301939         -661.28942
      7       2.00000         -24.272626         -660.49177
      8       2.00000         -24.265122         -660.28755
      9       2.00000         -24.258177         -660.09857
     10       2.00000         -24.229510         -659.31851
     11       2.00000         -24.146010         -657.04637
     12       2.00000         -24.143783         -656.98577
     13       2.00000          -4.136134         -112.54995
     14       2.00000          -4.104015         -111.67592
     15       2.00000          -4.042603         -110.00481
     16       2.00000          -2.729003          -74.25995
     17       2.00000          -2.728837          -74.25544
     18       2.00000          -2.725361          -74.16086
     19       2.00000          -2.696989          -73.38880
     20       2.00000          -2.695693          -73.35354
     21       2.00000          -2.694102          -73.31025
     22       2.00000          -2.636163          -71.73364
     23       2.00000          -2.633646          -71.66516
     24       2.00000          -2.632034          -71.62128
     25       2.00000          -1.210918          -32.95076
     26       2.00000          -1.187754          -32.32043
     27       2.00000          -1.159864          -31.56151
     28       2.00000          -1.138993          -30.99357
     29       2.00000          -1.119132          -30.45314
     30       2.00000          -1.103060          -30.01580
     31       2.00000          -1.075075          -29.25428
     32       2.00000          -0.993604          -27.03734
     33       2.00000          -0.982474          -26.73447
     34       2.00000          -0.584821          -15.91380
     35       2.00000          -0.575483          -15.65968
     36       2.00000          -0.556075          -15.13157
     37       2.00000          -0.529256          -14.40178
     38       2.00000          -0.521013          -14.17749
     39       2.00000          -0.503474          -13.70022
     40       2.00000          -0.496285          -13.50460
     41       2.00000          -0.489992          -13.33336
     42       2.00000          -0.485016          -13.19795
     43       2.00000          -0.475911          -12.95021
     44       2.00000          -0.463408          -12.60997
     45       2.00000          -0.460281          -12.52487
     46       2.00000          -0.450220          -12.25110
     47       2.00000          -0.434818          -11.83200
     48       2.00000          -0.432556          -11.77045
     49       2.00000          -0.422225          -11.48933
     50       2.00000          -0.408816          -11.12446
     51       2.00000          -0.407617          -11.09182
     52       2.00000          -0.395322          -10.75725
     53       2.00000          -0.381098          -10.37021
     54       2.00000          -0.380206          -10.34592
     55       2.00000          -0.369243          -10.04762
     56       2.00000          -0.332399           -9.04503
     57       2.00000          -0.308410           -8.39227
     58       2.00000          -0.305833           -8.32214
     59       2.00000          -0.291076           -7.92059
     60       2.00000          -0.274436           -7.46778
     61       0.00000          -0.199142           -5.41893
     62       0.00000          -0.138018           -3.75565
     63       0.00000          -0.107712           -2.93100
     64       0.00000          -0.071290           -1.93989
     65       0.00000          -0.055128           -1.50012
     66       0.00000          -0.038593           -1.05017
     67       0.00000           0.000498            0.01355
     68       0.00000           0.002445            0.06654
     69       0.00000           0.037547            1.02170
     70       0.00000           0.054955            1.49539
     71       0.00000           0.060759            1.65333
     72       0.00000           0.097063            2.64121
     73       0.00000           0.122874            3.34358
     74       0.00000           0.129849            3.53337
     75       0.00000           0.140338            3.81880
     76       0.00000           0.150976            4.10828
     77       0.00000           0.175538            4.77663
     78       0.00000           0.184327            5.01580
     79       0.00000           0.192094            5.22715
     80       0.00000           0.199258            5.42209
     81       0.00000           0.207462            5.64533
     82       0.00000           0.214376            5.83347
     83       0.00000           0.221178            6.01855
     84       0.00000           0.224005            6.09548
     85       0.00000           0.239330            6.51251
     86       0.00000           0.248165            6.75292
     87       0.00000           0.252888            6.88145
     88       0.00000           0.256107            6.96902
     89       0.00000           0.277105            7.54041
     90       0.00000           0.281429            7.65808
     91       0.00000           0.287430            7.82137
     92       0.00000           0.341946            9.30482
     93       0.00000           0.347655            9.46018
     94       0.00000           0.355809            9.68207
     95       0.00000           0.369532           10.05547
     96       0.00000           0.380249           10.34710

  Highest occupied state (VBM) at     -7.46777973 eV
  | Occupation number:      2.00000000

  Lowest unoccupied state (CBM) at    -5.41892968 eV
  | Occupation number:      0.00000000

  Overall HOMO-LUMO gap:      2.04885005 eV.
  | Chemical Potential                          :    -6.04135070 eV

  Self-consistency cycle converged.


------------------------------------------------------------
  End self-consistency iteration #    14       :  max(cpu_time)    wall_clock(cpu1)
  | Time for this iteration                     :        0.271 s           0.269 s
  | Charge density & force component update     :        0.150 s           0.150 s
  | Density mixing                              :        0.005 s           0.003 s
  | Hartree multipole update                    :        0.001 s           0.001 s
  | Hartree multipole summation                 :        0.048 s           0.048 s
  | Hartree pot. SCF incomplete forces          :        0.031 s           0.031 s
  | Integration                                 :        0.031 s           0.031 s
  | Solution of K.-S. eqns.                     :        0.004 s           0.004 s
  | Total energy evaluation                     :        0.000 s           0.000 s

  Partial memory accounting:
  | Current value for overall tracked memory usage:
  |   Minimum:        0.274 MB (on task 23)
  |   Maximum:        0.293 MB (on task  0)
  |   Average:        0.289 MB
  | Peak value for overall tracked memory usage:
  |   Minimum:        2.917 MB (on task 12 after allocating hessian_basis_wave)
  |   Maximum:        3.047 MB (on task 10 after allocating hessian_basis_wave)
  |   Average:        2.973 MB
  | Largest tracked array allocation so far:
  |   Minimum:        1.418 MB (hessian_basis_wave on task 12)
  |   Maximum:        1.496 MB (hessian_basis_wave on task 10)
  |   Average:        1.454 MB
  Note:  These values currently only include a subset of arrays which are explicitly tracked.
  The "true" memory usage will be greater.
------------------------------------------------------------
  Removing unitary transformations (pure translations, rotations) from forces on atoms.
  Atomic forces before filtering:
  | Net force on center of mass :  -0.398620E-02 -0.171653E-01  0.108396E-01 eV/A
  | Net torque on center of mass:   0.546306E-02  0.676826E-02 -0.309839E-02 eV
  Atomic forces after filtering:
  | Net force on center of mass :  -0.535218E-15 -0.892031E-15  0.133805E-15 eV/A
  | Net torque on center of mass:   0.000000E+00  0.273785E-14  0.944085E-15 eV

  Energy and forces in a compact form:
  | Total energy uncorrected      :         -0.442194685277614E+05 eV
  | Total energy corrected        :         -0.442194685277614E+05 eV  <-- do not rely on this value for anything but (periodic) metals
  | Electronic free energy        :         -0.442194685277614E+05 eV
  Total atomic forces (unitary forces cleaned) [eV/Ang]:
  |    1         -0.422678307614226E+01         -0.210514512822266E+01          0.352681357157890E+01
  |    2          0.197254011043710E+01         -0.632722856962969E+00          0.242600994616624E+01
  |    3         -0.454879499695764E+00         -0.116290421000526E+01         -0.200018936429298E+01
  |    4          0.771665303534229E+00         -0.901072526688406E+00         -0.195783459405701E+01
  |    5          0.292239065384827E+01         -0.529637362723066E+00         -0.121392220287244E+01
  |    6          0.153893592323215E+01          0.201255099531647E+01         -0.150890959937171E+01
  |    7         -0.739659966329141E+00          0.200863377274601E+01          0.228575237535570E+00
  |    8         -0.119328477187930E+01          0.295314253480541E+01         -0.620270622554956E+00
  |    9          0.837870125831484E+00         -0.236286037127967E+00          0.361378087731391E+01
  |   10          0.530417494230262E+00         -0.204716028276356E+01         -0.118864894143742E+01
  |   11         -0.305630924068547E+01         -0.671071300982607E+00         -0.160055074120475E+01
  |   12          0.109709694361845E+01          0.131167240260860E+01          0.295146433196639E+00

  ------------------------------------ 
  Start decomposition of the XC Energy 
  ------------------------------------ 
  X and C from original XC functional choice 
  Hartree-Fock Energy :          0.000000000 Ha              0.000000000 eV
  X Energy            :       -140.159945774 Ha          -3813.946175945 eV
  C Energy            :         -4.951596351 Ha           -134.739792187 eV
  Total XC Energy     :       -145.111542124 Ha          -3948.685968133 eV
  ------------------------------------ 
  LDA X and C from self-consistent density 
  X Energy LDA        :       -132.745137899 Ha          -3612.178987871 eV
  C Energy LDA        :         -8.824659430 Ha           -240.131200822 eV
  ------------------------------------ 
  End decomposition of the XC Energy 
  ------------------------------------ 

------------------------------------------------------------

------------------------------------------------------------------------------
  Final output of selected total energy values:

  The following output summarizes some interesting total energy values
  at the end of a run (AFTER all relaxation, molecular dynamics, etc.).

  | Total energy of the DFT / Hartree-Fock s.c.f. calculation      :         -44219.468527761 eV
  | Final zero-broadening corrected energy (caution - metals only) :         -44219.468527761 eV
  | For reference only, the value of 1 Hartree used in FHI-aims is :             27.211384500 eV

  Before relying on these values, please be sure to understand exactly which
  total energy value is referred to by a given number. Different objects may
  all carry the same name 'total energy'. Definitions:

  Total energy of the DFT / Hartree-Fock s.c.f. calculation:
  | Note that this energy does not include ANY quantities calculated after the
  | s.c.f. cycle, in particular not ANY RPA, MP2, etc. many-body perturbation terms.

  Final zero-broadening corrected energy:
  | For metallic systems only, a broadening of the occupation numbers at the Fermi
  | level can be extrapolated back to zero broadening by an electron-gas inspired
  | formula. For all systems that are not real metals, this value can be
  | meaningless and should be avoided.

------------------------------------------------------------------------------
  Methods described in the following list of references were used in this FHI-aims run.
  If you publish the results, please make sure to cite these reference if they apply.
  FHI-aims is an academic code, and for our developers (often, Ph.D. students
  and postdocs), scientific credit in the community is essential.
  Thank you for helping us!

  For any use of FHI-aims, please cite:

    Volker Blum, Ralf Gehrke, Felix Hanke, Paula Havu, Ville Havu,
    Xinguo Ren, Karsten Reuter, and Matthias Scheffler
    'Ab initio molecular simulations with numeric atom-centered orbitals'
    Computer Physics Communications 180, 2175-2196 (2009)
    http://dx.doi.org/10.1016/j.cpc.2009.06.022


  The ELSI infrastructure was used in your run to solve the Kohn-Sham electronic structure.
  Please check out http://elsi-interchange.org to learn more.
  If scalability is important for your project, please acknowledge ELSI by citing:

    V. W-z. Yu, F. Corsetti, A. Garcia, W. P. Huhn, M. Jacquelin, W. Jia,
    B. Lange, L. Lin, J. Lu, W. Mi, A. Seifitokaldani, A. Vazquez-Mayagoitia,
    C. Yang, H. Yang, and V. Blum
    'ELSI: A unified software interface for Kohn-Sham electronic structure solvers'
    Computer Physics Communications 222, 267-285 (2018).
    http://dx.doi.org/10.1016/j.cpc.2017.09.007


  For the real-space grid partitioning and parallelization used in this calculation, please cite:

    Ville Havu, Volker Blum, Paula Havu, and Matthias Scheffler,
    'Efficient O(N) integration for all-electron electronic structure calculation'
    'using numerically tabulated basis functions'
    Journal of Computational Physics 228, 8367-8379 (2009).
    http://dx.doi.org/10.1016/j.jcp.2009.08.008

  Of course, there are many other important community references, e.g., those cited in the
  above references. Our list is limited to references that describe implementations in the
  FHI-aims code. The reason is purely practical (length of this list) - please credit others as well.

------------------------------------------------------------
          Leaving FHI-aims.
          Date     :  20220517, Time     :  121027.902

          Computational steps:
          | Number of self-consistency cycles          :           14
          | Number of SCF (re)initializations          :            1

          Detailed time accounting                     :  max(cpu_time)    wall_clock(cpu1)
          | Total time                                  :        1.955 s           2.020 s
          | Preparation time                            :        0.184 s           0.184 s
          | Boundary condition initalization            :        0.000 s           0.001 s
          | Grid partitioning                           :        0.038 s           0.038 s
          | Preloading free-atom quantities on grid     :        0.016 s           0.015 s
          | Free-atom superposition energy              :        0.005 s           0.005 s
          | Total time for integrations                 :        0.486 s           0.484 s
          | Total time for solution of K.-S. equations  :        0.069 s           0.068 s
          | Total time for density & force components   :        0.670 s           0.672 s
          | Total time for mixing                       :        0.060 s           0.029 s
          | Total time for Hartree multipole update     :        0.018 s           0.017 s
          | Total time for Hartree multipole sum        :        0.296 s           0.298 s
          | Total time for total energy evaluation      :        0.002 s           0.003 s
          | Total time NSC force correction             :        0.063 s           0.063 s
          | Total time for scaled ZORA corrections      :        0.000 s           0.000 s

          Partial memory accounting:
          | Residual value for overall tracked memory usage across tasks:     0.000000 MB (should be 0.000000 MB)
          | Peak values for overall tracked memory usage:
          |   Minimum:        2.917 MB (on task 12 after allocating hessian_basis_wave)
          |   Maximum:        3.047 MB (on task 10 after allocating hessian_basis_wave)
          |   Average:        2.973 MB
          | Largest tracked array allocation:
          |   Minimum:        1.418 MB (hessian_basis_wave on task 12)
          |   Maximum:        1.496 MB (hessian_basis_wave on task 10)
          |   Average:        1.454 MB
          Note:  These values currently only include a subset of arrays which are explicitly tracked.
          The "true" memory usage will be greater.

          Have a nice day.
------------------------------------------------------------
