12
Properties=species:S:1:pos:R:3:forces:R:3 energy=-187.28952683 pbc="F F F"
Al    1.1643701800000001    0.029576217000000002    2.3665658730000003    0.024032    0.085517    0.027472
Al    1.1779372    1.5266718    0.005842699999999999    -0.423508    0.268256    0.186616
Al    -0.370266062    0.78345915    -2.199874973    0.011392    0.091723    -0.010125
F    -1.409461972    -0.748327853    -2.363704006    0.106771    -0.221586    -0.048978
F    1.6007364530000001    -0.33956325299999995    0.583028152    -0.129772    -0.124959    -0.052823
F    0.122827139    1.7909804900000001    -3.647595733    0.009856    -0.010288    -0.005513
F    -0.30708011    2.312054153    -0.917528849    0.047567    0.175551    -0.078016
F    2.859517957    2.234883612    -0.44236284299999995    0.23445    -0.041274    -0.085605
F    0.9951066390000001    -0.042052395000000006    -1.219070154    -0.085083    -0.146913    0.080148
F    0.607865717    1.862588329    1.804980639    0.101218    0.149195    0.081627
F    2.511245969    0.617683276    3.459356037    0.010153    -0.010434    -0.004631
F    0.278550875    -1.577554752    2.659123671    0.092924    -0.214788    -0.090173
