********************************************************************************
*                       GENERAL UTILITY LATTICE PROGRAM                        *
*                                 Julian Gale                                  *
*                       Curtin Institute for Computation                       *
*                           Department of Chemistry                            *
*                    Curtin University, Western Australia                      *
********************************************************************************
* Version = 5.1.1 * Last modified =  24th November 2018                        *
********************************************************************************
*  optimise     - perform optimisation run                                     *
*  conp         - constant pressure calculation                                *
*  shell        - only shells and radii to be optimised                        *
*  phonon       - calculate phonons for final geometry                         *
*  eigenvectors - output phonon eigenvectors                                   *
********************************************************************************

  Job Started  at 14:38.49 25th May        2022                               

  Number of CPUs =     1

  Host name      = login03                                 


  Total number of configurations input =      1

********************************************************************************
*  Input for Configuration =   1                                               *
********************************************************************************

  Formula = Al3F9                                                       

  Number of irreducible atoms/shells =      21


  Total number atoms/shells =      21

  Dimensionality = 0               :  Cluster


  Charge on cluster =  -0.000000


  Initial cluster dipoles : x =     -0.019366 e.Angs
                            y =     -0.015386 e.Angs
                            z =      0.087874 e.Angs

  Temperature of configuration =  0.000     K 

  Symmetry number =      1

  Cartesian coordinates of cluster :

--------------------------------------------------------------------------------
   No.  Atomic       x           y          z         Charge      Occupancy
        Label      (Angs)      (Angs)     (Angs)        (e)         (Frac)  
--------------------------------------------------------------------------------
      1 Al    c      0.1610     -0.7740      1.7961     3.00000    1.000000    
      2 Al    c      2.4236     -1.6157     -0.4151     3.00000    1.000000    
      3 Al    c     -0.7789     -1.8308     -1.1524     3.00000    1.000000    
      4 F     c      3.5047     -0.2406     -0.8468     0.59000    1.000000    
      5 F     c     -1.7501     -0.5472     -1.9845     0.59000    1.000000    
      6 F     c      2.8964     -3.3975     -0.5186     0.59000    1.000000    
      7 F     c     -1.0249     -3.6263     -1.3675     0.59000    1.000000    
      8 F     c      1.8202     -1.4324      1.2974     0.59000    1.000000    
      9 F     c      0.9428     -1.3722     -1.4820     0.59000    1.000000    
     10 F     c     -0.1320     -1.4674      3.4284     0.59000    1.000000    
     11 F     c      0.1867      1.0346      1.3865     0.59000    1.000000    
     12 F     c     -1.0074     -1.5973      0.6852     0.59000    1.000000    
     13 F     s      3.5047 *   -0.2406 *   -0.8468 *  -1.59000    1.000000    
     14 F     s     -1.7501 *   -0.5472 *   -1.9845 *  -1.59000    1.000000    
     15 F     s      2.8964 *   -3.3975 *   -0.5186 *  -1.59000    1.000000    
     16 F     s     -1.0249 *   -3.6263 *   -1.3675 *  -1.59000    1.000000    
     17 F     s      1.8202 *   -1.4324 *    1.2974 *  -1.59000    1.000000    
     18 F     s      0.9428 *   -1.3722 *   -1.4820 *  -1.59000    1.000000    
     19 F     s     -0.1320 *   -1.4674 *    3.4284 *  -1.59000    1.000000    
     20 F     s      0.1867 *    1.0346 *    1.3865 *  -1.59000    1.000000    
     21 F     s     -1.0074 *   -1.5973 *    0.6852 *  -1.59000    1.000000    
--------------------------------------------------------------------------------


  Brillouin zone sampling points :

--------------------------------------------------------------------------------
  Point number          x          y          z            Weight
--------------------------------------------------------------------------------
        1           0.000000   0.000000   0.000000     1.00000000
--------------------------------------------------------------------------------


********************************************************************************
*  General input information                                                   *
********************************************************************************

  Species output for all configurations : 

--------------------------------------------------------------------------------
  Species    Type    Atomic    Atomic    Charge       Radii (Angs)     Library
                     Number     Mass       (e)     Cova   Ionic  VDW   Symbol
--------------------------------------------------------------------------------
    Al       Core       13      26.98   3.000000   1.350  0.000  2.050          
    F        Core        9      19.00   0.590000   0.710  0.000  1.300          
    F        Shell       9       0.00  -1.590000   0.710  0.000  1.300          
--------------------------------------------------------------------------------


  Accuracy factor for short range sums = 12.000

  Time limit = Infinity

  Maximum range for interatomic potentials =    100000.000000 Angstroms

  General interatomic potentials :

--------------------------------------------------------------------------------
Atom  Types   Potential      Parameter       Value         Units   Cutoffs(Ang)
  1     2                                                            Min /  Max 
--------------------------------------------------------------------------------
Al   c F    s Buckingham    Buckingham A     3760.0008    eV        0.000 10.000
                            Buckingham rho  0.22200000    Ang       
                            Buckingham C     0.0000000    eV*Ang^6  
--------------------------------------------------------------------------------
F    s F    s Buck 4 range  Buck4 A          1127.7000    eV        0.000 12.000
                            Buck4 rho       0.27530000    Ang       
                            Buck4 C          15.830000    eV*Ang^6  
                            Buck4 minimum    2.7900000    Ang       
--------------------------------------------------------------------------------
F    c F    s Spring (c-s)  Spring k 2       20.770000    eV*Ang^-2 0.000  0.800
                            Spring k 4       0.0000000    eV*Ang^-4 
--------------------------------------------------------------------------------

********************************************************************************
*  Output for configuration   1                                                *
********************************************************************************


  Components of energy : 

--------------------------------------------------------------------------------
  Interatomic potentials     =          11.55421137 eV    
  Monopole - monopole (real) =        -182.03695666 eV    
--------------------------------------------------------------------------------
  Total lattice energy       =        -170.48274529 eV    
--------------------------------------------------------------------------------
  Total lattice energy       =          -16448.9789 kJ/mol
--------------------------------------------------------------------------------


  Number of variables =       27

  Maximum number of calculations  =          2000
  Maximum Hessian update interval =            10
  Maximum step size               =   1.000000000
  Maximum parameter tolerance     =   0.000001000
  Maximum function  tolerance     =   0.000010000
  Maximum gradient  tolerance     =   0.000000010
  Maximum gradient  component     =   0.010000000

  Symmetry not applied to optimisation

  Newton-Raphson optimiser to be used

  BFGS hessian update to be used

  Lower half triangular hessian to be used

  Minimiser to switch to RFO
  When gradient norm is less than     0.010000

  Shell only optimisation

  Start of cluster optimisation :

  Cycle:      0 Energy:      -170.482745  Gnorm:      1.347183  CPU:    0.004
  ** Hessian calculated **
  Cycle:      1 Energy:      -186.048810  Gnorm:      0.416375  CPU:    0.006
  ** Hessian calculated **
  Cycle:      2 Energy:      -187.186001  Gnorm:      0.009114  CPU:    0.008
  ** Hessian has required structure
  Cycle:      3 Energy:      -187.186577  Gnorm:      0.003595  CPU:    0.010
  ** Hessian has required structure
  Cycle:      4 Energy:      -187.186657  Gnorm:      0.002150  CPU:    0.011
  ** Hessian has required structure
  Cycle:      5 Energy:      -187.186666  Gnorm:      0.001989  CPU:    0.012
  ** Hessian has required structure
  Cycle:      6 Energy:      -187.186668  Gnorm:      0.001859  CPU:    0.014
  ** Hessian has required structure
  Cycle:      7 Energy:      -187.186669  Gnorm:      0.001845  CPU:    0.015
  ** Hessian has required structure
  Cycle:      8 Energy:      -187.186669  Gnorm:      0.001841  CPU:    0.017
  ** Hessian has required structure
  Cycle:      9 Energy:      -187.186669  Gnorm:      0.001836  CPU:    0.018
  ** Hessian has required structure
  Cycle:     10 Energy:      -187.186669  Gnorm:      0.001809  CPU:    0.019
  ** Hessian has required structure
  Cycle:     11 Energy:      -187.186673  Gnorm:      0.001565  CPU:    0.021
  ** Hessian has required structure
  Cycle:     12 Energy:      -187.186690  Gnorm:      0.000000  CPU:    0.023
  ** Hessian has required structure
  Cycle:     13 Energy:      -187.186690  Gnorm:      0.000000  CPU:    0.024
  ** Hessian has required structure
  Cycle:     14 Energy:      -187.186690  Gnorm:      0.000000  CPU:    0.026
  ** Hessian has required structure
  Cycle:     15 Energy:      -187.186690  Gnorm:      0.000000  CPU:    0.027
  ** Hessian calculated **

  XYZ File written as 002/0/sp_mod_90/sp_mod_90_eig.xyz



  **** Optimisation achieved ****


  Final energy =    -187.18668954 eV
  Final Gnorm  =       0.00000029

  Components of energy : 

--------------------------------------------------------------------------------
  Interatomic potentials     =          37.46013741 eV    
  Monopole - monopole (real) =        -224.64682695 eV    
--------------------------------------------------------------------------------
  Total lattice energy       =        -187.18668954 eV    
--------------------------------------------------------------------------------
  Total lattice energy       =          -18060.6541 kJ/mol
--------------------------------------------------------------------------------

  Final cartesian coordinates of atoms :

--------------------------------------------------------------------------------
   No.  Atomic        x           y          z          Radius
        Label       (Angs)      (Angs)     (Angs)       (Angs) 
--------------------------------------------------------------------------------
     1  Al    c     0.161001   -0.774021    1.796083    0.000000
     2  Al    c     2.423634   -1.615703   -0.415054    0.000000
     3  Al    c    -0.778944   -1.830822   -1.152399    0.000000
     4  F     c     3.504668   -0.240631   -0.846844    0.000000
     5  F     c    -1.750057   -0.547195   -1.984450    0.000000
     6  F     c     2.896406   -3.397517   -0.518611    0.000000
     7  F     c    -1.024891   -3.626287   -1.367540    0.000000
     8  F     c     1.820197   -1.432373    1.297392    0.000000
     9  F     c     0.942839   -1.372168   -1.481996    0.000000
    10  F     c    -0.132006   -1.467387    3.428361    0.000000
    11  F     c     0.186717    1.034645    1.386471    0.000000
    12  F     c    -1.007435   -1.597338    0.685234    0.000000
    13  F     s     3.337975   -0.447049   -0.779169    0.000000
    14  F     s    -1.598187   -0.743742   -1.856564    0.000000
    15  F     s     2.819247   -3.109335   -0.499317    0.000000
    16  F     s    -0.982637   -3.344739   -1.332664    0.000000
    17  F     s     1.674672   -1.369136    1.128197    0.000000
    18  F     s     0.905128   -1.467285   -1.282826    0.000000
    19  F     s    -0.088607   -1.367810    3.179064    0.000000
    20  F     s     0.181428    0.739368    1.447840    0.000000
    21  F     s    -0.811345   -1.517944    0.587502    0.000000
--------------------------------------------------------------------------------


  Final Cartesian derivatives :

--------------------------------------------------------------------------------
   No.  Atomic          x             y             z           Radius
        Label       (eV/Angs)     (eV/Angs)    (eV/Angs)      (eV/Angs)
--------------------------------------------------------------------------------
      1 Al    c       0.000000      0.000000      0.000000      0.000000
      2 Al    c       0.000000      0.000000      0.000000      0.000000
      3 Al    c       0.000000      0.000000      0.000000      0.000000
      4 F     c       0.000000      0.000000      0.000000      0.000000
      5 F     c       0.000000      0.000000      0.000000      0.000000
      6 F     c       0.000000      0.000000      0.000000      0.000000
      7 F     c       0.000000      0.000000      0.000000      0.000000
      8 F     c       0.000000      0.000000      0.000000      0.000000
      9 F     c       0.000000      0.000000      0.000000      0.000000
     10 F     c       0.000000      0.000000      0.000000      0.000000
     11 F     c       0.000000      0.000000      0.000000      0.000000
     12 F     c       0.000000      0.000000      0.000000      0.000000
     13 F     s       0.000000      0.000001     -0.000000      0.000000
     14 F     s       0.000001      0.000000      0.000000      0.000000
     15 F     s       0.000001     -0.000003     -0.000001      0.000000
     16 F     s      -0.000000     -0.000006     -0.000001      0.000000
     17 F     s       0.000000      0.000001      0.000001      0.000000
     18 F     s      -0.000000     -0.000000     -0.000000      0.000000
     19 F     s      -0.000001     -0.000003      0.000002      0.000000
     20 F     s      -0.000000      0.000000      0.000000      0.000000
     21 F     s      -0.000001      0.000001      0.000000      0.000000
--------------------------------------------------------------------------------
  Maximum abs         0.000001      0.000006      0.000002      0.000000
--------------------------------------------------------------------------------


  Born effective charge tensors : 

-------------------------------------------------------------------------------
  Atom             x           y             z
-------------------------------------------------------------------------------
    1 Al    x       1.4644     -0.0986      0.0232
            y      -0.1005      0.7287      0.4364
            z       0.0184      0.4346      0.9291
-------------------------------------------------------------------------------
    2 Al    x       1.3446     -0.1820      0.0992
            y      -0.1827      0.4321      0.1195
            z       0.0919      0.1190      1.3923
-------------------------------------------------------------------------------
    3 Al    x       1.2875      0.1918     -0.0908
            y       0.1923      0.4576      0.2197
            z      -0.0885      0.2195      1.4500
-------------------------------------------------------------------------------
    4 F     x      -0.3757      0.3105     -0.0782
            y       0.2647     -0.1721     -0.1166
            z      -0.0757     -0.1232     -0.5257
-------------------------------------------------------------------------------
    5 F     x      -0.4067     -0.2538      0.1276
            y      -0.2160     -0.2265     -0.1934
            z       0.1249     -0.2243     -0.4479
-------------------------------------------------------------------------------
    6 F     x      -0.5598     -0.1398      0.0033
            y      -0.0990     -0.0066      0.0090
            z      -0.0021      0.0247     -0.5413
-------------------------------------------------------------------------------
    7 F     x      -0.5680      0.0756     -0.0104
            y       0.0467      0.0327      0.0295
            z      -0.0126      0.0645     -0.5571
-------------------------------------------------------------------------------
    8 F     x      -0.3888      0.0251     -0.0011
            y       0.0146     -0.2627     -0.0311
            z       0.0095     -0.0405     -0.3359
-------------------------------------------------------------------------------
    9 F     x      -0.3519      0.0062     -0.0149
            y       0.0050     -0.2475     -0.0320
            z      -0.0083     -0.0272     -0.3715
-------------------------------------------------------------------------------
   10 F     x      -0.5490      0.0506     -0.0884
            y       0.0391     -0.4451     -0.2218
            z      -0.0876     -0.2691     -0.0680
-------------------------------------------------------------------------------
   11 F     x      -0.5489      0.0129      0.0138
            y       0.0260     -0.0351     -0.1870
            z       0.0090     -0.1382     -0.5493
-------------------------------------------------------------------------------
   12 F     x      -0.3478      0.0015      0.0167
            y       0.0099     -0.2556     -0.0322
            z       0.0211     -0.0397     -0.3746
-------------------------------------------------------------------------------




  Moment of inertia tensor (10^-46 x kgm^2): 

-------------------------------------------------------------------------------
                x           y           z           Principal axis system
-------------------------------------------------------------------------------
       x        155.68        1.20       -0.58          155.641282
       y          1.20      208.02      -21.35          156.338764
       z         -0.58      -21.35      165.15          216.868494
-------------------------------------------------------------------------------
  Centre of mass (Ang) =     0.603357    -1.405688     0.069583
-------------------------------------------------------------------------------


  Vibrational Frequency Calculation : 

--------------------------------------------------------------------------------

  Frequencies (cm-1) and Eigenvectors : 

  Frequency      -0.0000   -0.0000    0.0000   18.4205   25.1208   29.2952
  IR Intensity    0.0000    0.0000    0.0000    0.0000    0.0000    0.0000
     in X         0.0000    0.0000    0.0000    0.0000    0.0000    0.0000
     in Y         0.0000    0.0000    0.0000    0.0000    0.0000    0.0000
     in Z         0.0000    0.0000    0.0000    0.0000    0.0000    0.0000
  Raman Intsty    0.0000    0.0000    0.0000    0.0022    0.0056    0.0011

     1 x       0.047721 -0.071807  0.315682  0.195543  0.127947  0.066012
     1 y       0.034325  0.318417  0.067240  0.084721  0.014489 -0.262236
     1 z       0.321922 -0.023307 -0.053966  0.010594  0.041688  0.129272
     2 x       0.047721 -0.071807  0.315682 -0.056632 -0.033052 -0.014933
     2 y       0.034325  0.318417  0.067240  0.031554 -0.259084  0.155143
     2 z       0.321922 -0.023307 -0.053966 -0.220377 -0.053336 -0.135015
     3 x       0.047721 -0.071807  0.315682 -0.141690 -0.102186 -0.046371
     3 y       0.034325  0.318417  0.067240 -0.118621  0.245576  0.114630
     3 z       0.321922 -0.023307 -0.053966  0.211570  0.014840  0.003179
     4 x       0.040047 -0.060259  0.264915 -0.130224  0.119093 -0.141052
     4 y       0.028805  0.267210  0.056427  0.022777 -0.359531  0.280850
     4 z       0.270151 -0.019559 -0.045287 -0.404157 -0.130481  0.043833
     5 x       0.040047 -0.060259  0.264915 -0.269729  0.133702 -0.098965
     5 y       0.028805  0.267210  0.056427 -0.164112  0.419098  0.120216
     5 z       0.270151 -0.019559 -0.045287  0.253606  0.083651  0.108989
     6 x       0.040047 -0.060259  0.264915 -0.032926 -0.191874  0.106084
     6 y       0.028805  0.267210  0.056427  0.029063 -0.264711  0.175259
     6 z       0.270151 -0.019559 -0.045287 -0.164236  0.010244 -0.333848
     7 x       0.040047 -0.060259  0.264915 -0.086289 -0.407174  0.000585
     7 y       0.028805  0.267210  0.056427 -0.114723  0.257682  0.102369
     7 z       0.270151 -0.019559 -0.045287  0.266228 -0.047434 -0.093632
     8 x       0.040047 -0.060259  0.264915  0.137605  0.046652  0.025423
     8 y       0.028805  0.267210  0.056427  0.099821 -0.067836 -0.158278
     8 z       0.270151 -0.019559 -0.045287 -0.128122 -0.040848 -0.068619
     9 x       0.040047 -0.060259  0.264915 -0.173888 -0.010985 -0.063253
     9 y       0.028805  0.267210  0.056427 -0.044744 -0.125857  0.155072
     9 z       0.270151 -0.019559 -0.045287 -0.032453 -0.034143 -0.035412
    10 x       0.040047 -0.060259  0.264915  0.415508  0.099913  0.126424
    10 y       0.028805  0.267210  0.056427  0.178177 -0.069349 -0.538820
    10 z       0.270151 -0.019559 -0.045287  0.099868 -0.000850 -0.013953
    11 x       0.040047 -0.060259  0.264915  0.077207  0.215213  0.050078
    11 y       0.028805  0.267210  0.056427  0.049217  0.032142 -0.158513
    11 z       0.270151 -0.019559 -0.045287 -0.093660  0.132446  0.385508
    12 x       0.040047 -0.060259  0.264915  0.066047  0.004147 -0.010935
    12 y       0.028805  0.267210  0.056427 -0.052682  0.177192  0.012864
    12 z       0.270151 -0.019559 -0.045287  0.200796  0.023609  0.010190


  Frequency      47.5406   49.2946   51.3741  120.1447  145.9823  148.6767
  IR Intensity    0.0006    0.0001    0.0031    0.0034    0.0099    0.0052
     in X         0.0000    0.0000    0.0001    0.0028    0.0020    0.0029
     in Y         0.0005    0.0000    0.0029    0.0000    0.0000    0.0001
     in Z         0.0001    0.0000    0.0001    0.0006    0.0079    0.0021
  Raman Intsty    0.0274    0.0051    0.0015    0.0000    0.0012    0.0004

     1 x       0.016810 -0.102652 -0.007705 -0.080778  0.022071  0.059078
     1 y      -0.111383 -0.031820  0.029529  0.000855  0.171355 -0.076612
     1 z      -0.032405  0.021280  0.038613 -0.024938  0.000622  0.006951
     2 x      -0.022203  0.043281 -0.057160 -0.004883 -0.006529  0.046479
     2 y       0.002208  0.085762 -0.017302 -0.014098 -0.030651  0.170048
     2 z       0.013624  0.034617 -0.040752 -0.016935 -0.131375 -0.036741
     3 x      -0.004116  0.048773  0.049806 -0.009365  0.059338 -0.004359
     3 y       0.081680 -0.045248  0.037857  0.005048 -0.123684 -0.084145
     3 z       0.017105 -0.045913 -0.018666 -0.001273 -0.017163  0.101165
     4 x       0.125334  0.042378  0.323898  0.137010  0.176740  0.210580
     4 y      -0.053659 -0.027537 -0.313787  0.013269  0.003521  0.004397
     4 z       0.199479 -0.275907 -0.052734  0.421709  0.438538 -0.071449
     5 x      -0.128958  0.091862 -0.198686  0.226324 -0.161570  0.316550
     5 y       0.195717  0.150669 -0.197243  0.010318 -0.029080  0.023631
     5 z       0.355682  0.190345 -0.086418 -0.265015  0.355638 -0.134444
     6 x      -0.172683  0.013461 -0.452779 -0.059976 -0.027898 -0.141972
     6 y      -0.028361  0.049113 -0.124757 -0.015667 -0.025225  0.114858
     6 z      -0.196324  0.306638 -0.030976 -0.215446 -0.258151 -0.296823
     7 x       0.112680 -0.082396  0.381829 -0.171095 -0.078899 -0.343928
     7 y       0.101193  0.010770 -0.026629  0.005107 -0.094045 -0.055844
     7 z      -0.375632 -0.289650  0.078824  0.178585  0.007973  0.334287
     8 x       0.023929  0.086474  0.034523 -0.105425 -0.034926  0.200984
     8 y      -0.175817  0.442512  0.189430 -0.002138  0.165096  0.187697
     8 z       0.061741 -0.009712 -0.032513 -0.069589 -0.157233  0.051134
     9 x      -0.037996  0.054934 -0.032755 -0.004797  0.072622 -0.062195
     9 y       0.290350 -0.112259  0.409285 -0.013275 -0.296985  0.155305
     9 z       0.091846 -0.030794  0.011403 -0.018887 -0.335865  0.134881
    10 x       0.027555  0.149957  0.046960  0.596906 -0.222342 -0.410040
    10 y       0.239906 -0.206585 -0.185975  0.026579  0.077539 -0.095756
    10 z       0.116119 -0.015303 -0.047134  0.109343 -0.075004 -0.088429
    11 x      -0.003002 -0.475685 -0.080485 -0.394650 -0.036165  0.009704
    11 y      -0.163327 -0.004750  0.066778 -0.011384  0.201194 -0.094249
    11 z      -0.352024  0.104846  0.220318 -0.093346  0.241393 -0.121777
    12 x       0.064473  0.131645 -0.004561 -0.111061  0.223209  0.099726
    12 y      -0.373238 -0.312294  0.123216 -0.003046 -0.022296 -0.251111
    12 z       0.101111  0.007640 -0.035977  0.004060 -0.041028  0.107566


  Frequency     159.7374  160.7028  176.7889  192.4375  200.9990  219.8983
  IR Intensity    0.0036    0.0058    0.0021    0.0086    0.0129    0.0090
     in X         0.0034    0.0001    0.0001    0.0002    0.0125    0.0055
     in Y         0.0001    0.0057    0.0004    0.0028    0.0000    0.0000
     in Z         0.0000    0.0000    0.0016    0.0056    0.0004    0.0034
  Raman Intsty    0.0000    0.0001    0.0017    0.0007    0.0000    0.0013

     1 x      -0.174021  0.007235 -0.037837  0.029483  0.156008  0.134635
     1 y      -0.027402  0.059510 -0.079334  0.206165 -0.032413 -0.201654
     1 z      -0.007602 -0.164548  0.098336 -0.102844  0.047189  0.146285
     2 x       0.067985  0.116131  0.088358  0.040096  0.031356 -0.082606
     2 y      -0.057055  0.038950  0.047142 -0.200747 -0.283055  0.058923
     2 z      -0.114918  0.060911  0.007539  0.095572  0.064682 -0.194275
     3 x       0.042030 -0.128704 -0.068285 -0.086486  0.000248 -0.210501
     3 y       0.076364  0.045077 -0.016431 -0.165520  0.307321  0.112994
     3 z       0.125849  0.047460 -0.025838  0.134358 -0.078901  0.189558
     4 x       0.178543  0.321436  0.325589 -0.229366 -0.264038  0.091061
     4 y      -0.187951 -0.097533 -0.199444  0.002614 -0.041086  0.027519
     4 z      -0.239217  0.181277 -0.142337  0.011360  0.018683  0.152315
     5 x       0.159299 -0.370344 -0.181273  0.237651 -0.311591  0.039926
     5 y       0.257606 -0.083442 -0.237319  0.035927 -0.007714  0.034072
     5 z       0.259240  0.149765 -0.223573  0.041298 -0.151979 -0.209572
     6 x       0.332298  0.294534  0.339165  0.033998  0.209761 -0.069593
     6 y       0.026767  0.084129  0.124859 -0.153748 -0.195240  0.044756
     6 z      -0.153983  0.129596 -0.181552 -0.404342 -0.187864  0.044282
     7 x       0.328589 -0.176048 -0.250592  0.169818  0.071819  0.311860
     7 y       0.003062  0.051661  0.048754 -0.130453  0.235712  0.075647
     7 z       0.298170  0.023001 -0.315584 -0.323534  0.224133 -0.164905
     8 x      -0.250952  0.066314 -0.024229  0.101650  0.254638  0.213837
     8 y      -0.132273  0.106514 -0.025829  0.175106  0.072326  0.320626
     8 z      -0.205384  0.017264 -0.010342  0.099024  0.146462 -0.096982
     9 x       0.033888 -0.047008 -0.042697 -0.103401  0.095119 -0.127129
     9 y      -0.008574 -0.034141  0.026215 -0.050941 -0.004929 -0.388272
     9 z      -0.041154  0.218806  0.178184  0.421018  0.028411 -0.112029
    10 x      -0.165348  0.061375 -0.053765  0.008455 -0.150787 -0.123596
    10 y       0.038104 -0.351153  0.324884 -0.036774  0.020897  0.031200
    10 z       0.017730 -0.307731  0.253080 -0.192577  0.011857  0.188819
    11 x      -0.262419  0.052944 -0.059538 -0.046143 -0.396738  0.055099
    11 y      -0.026246  0.011307 -0.016348  0.227194 -0.051438 -0.246105
    11 z      -0.017680 -0.349135  0.346833  0.092546 -0.082737 -0.140183
    12 x      -0.277626 -0.196844 -0.031492 -0.152517  0.268251 -0.202624
    12 y       0.039148  0.141614  0.012166  0.121861 -0.018821  0.135992
    12 z       0.078310  0.004098 -0.000083  0.103768 -0.046256  0.169554


  Frequency     224.1218  240.2201  243.3756  258.2720  267.2633  318.8355
  IR Intensity    0.0074    0.0610    0.1326    0.0710    0.0278    0.0000
     in X         0.0028    0.0573    0.0053    0.0649    0.0053    0.0000
     in Y         0.0000    0.0001    0.0427    0.0001    0.0013    0.0000
     in Z         0.0046    0.0035    0.0846    0.0061    0.0211    0.0000
  Raman Intsty    0.0001    0.0001    0.0001    0.0001    0.0010    0.2276

     1 x      -0.176392  0.318009  0.074650 -0.109051 -0.070149  0.039911
     1 y      -0.144415  0.032256 -0.304477 -0.023117  0.033633 -0.033683
     1 z       0.049668  0.064775 -0.221799  0.011718  0.286427 -0.220169
     2 x       0.106798  0.115534  0.109849  0.343680 -0.220493 -0.149809
     2 y       0.145869  0.087765 -0.115784 -0.125945 -0.151180  0.007512
     2 z       0.294722 -0.146600 -0.168600 -0.035663 -0.002374  0.081666
     3 x       0.180540  0.080847 -0.028859  0.303600  0.145144  0.111858
     3 y      -0.039878 -0.098325 -0.142241  0.142128 -0.142523  0.027128
     3 z      -0.185715  0.209099 -0.194220  0.188762  0.063541  0.118867
     4 x       0.044474  0.081952 -0.071010 -0.108447 -0.163662 -0.044056
     4 y       0.031574  0.135984  0.133239  0.239494 -0.188636 -0.120991
     4 z      -0.203885 -0.066478  0.160020 -0.028620  0.053733  0.004691
     5 x      -0.096904  0.087354  0.006344 -0.072068  0.156393  0.039772
     5 y       0.011436 -0.152211  0.146389 -0.276665 -0.112719 -0.111550
     5 z       0.213862  0.110522  0.201358 -0.004711  0.108361  0.021022
     6 x      -0.260296 -0.186473  0.054397 -0.141095  0.281114  0.072021
     6 y       0.073788 -0.016096 -0.150068 -0.262279 -0.012374  0.082107
     6 z      -0.328453  0.130149  0.203122 -0.024065 -0.062061 -0.018604
     7 x      -0.030773 -0.136018 -0.099589 -0.165555 -0.158817 -0.059156
     7 y      -0.037122 -0.013777 -0.170750  0.242700 -0.076285  0.078545
     7 z       0.051541 -0.193647  0.138699 -0.062195 -0.144858 -0.033060
     8 x       0.064099  0.100482  0.247180 -0.175744 -0.055627  0.325962
     8 y       0.088310 -0.407737  0.196515  0.183514  0.271918 -0.064687
     8 z       0.273394 -0.025201 -0.134787 -0.303030 -0.016314  0.375845
     9 x       0.215089  0.017951 -0.062833  0.262831  0.000964  0.108438
     9 y      -0.288527  0.027861  0.269542  0.050134  0.377522  0.101428
     9 z       0.019166 -0.015691  0.143769  0.025452 -0.263376 -0.480836
    10 x       0.061497 -0.156707 -0.019933 -0.060282 -0.029875  0.038581
    10 y       0.023283 -0.015042  0.283933 -0.013614 -0.148252  0.101084
    10 z       0.157076 -0.040568  0.006320  0.025457  0.228234 -0.197950
    11 x       0.008168 -0.469839 -0.035242  0.097629  0.071701 -0.034947
    11 y      -0.173876  0.004306 -0.206841 -0.031991 -0.090122  0.052615
    11 z      -0.125984 -0.104160  0.205443 -0.015368 -0.280070  0.162302
    12 x      -0.137560  0.048333 -0.204781 -0.278644  0.071189 -0.448951
    12 y       0.316922  0.410857  0.168342 -0.123030  0.288856 -0.119692
    12 z      -0.245803  0.053409 -0.227291  0.190679 -0.037855  0.189990


  Frequency     451.6711  496.3678  497.0374  597.5224  606.1177  631.4018
  IR Intensity    0.0010    0.0210    0.0279    0.0756    0.0686    0.0017
     in X         0.0000    0.0203    0.0003    0.0051    0.0639    0.0009
     in Y         0.0001    0.0005    0.0026    0.0000    0.0001    0.0000
     in Z         0.0009    0.0002    0.0250    0.0705    0.0046    0.0007
  Raman Intsty    2.8057    0.0030    0.0011    0.0026    0.0010    0.0255

     1 x       0.077750 -0.444988  0.025040  0.038672  0.497099 -0.344411
     1 y      -0.169878  0.021107  0.106883  0.066138 -0.047671  0.038540
     1 z      -0.221925 -0.041605  0.144154  0.058126  0.041404 -0.023200
     2 x      -0.283553  0.028598 -0.244283 -0.182077  0.058408  0.144235
     2 y       0.051592 -0.032290  0.013147  0.009435  0.027964  0.016407
     2 z       0.063735 -0.319208 -0.293344 -0.325778  0.301559  0.339221
     3 x       0.192378  0.004522  0.326393  0.292899  0.039496  0.114735
     3 y       0.086772  0.051024  0.017221 -0.009694 -0.033339 -0.038084
     3 z       0.226153  0.257559 -0.304052 -0.374880 -0.185069 -0.250241
     4 x      -0.172486  0.139208 -0.115574  0.127413  0.072045 -0.031354
     4 y      -0.258650  0.174398 -0.165578  0.137132  0.078481 -0.036795
     4 z       0.067036 -0.025521  0.084147 -0.030703 -0.042481  0.018318
     5 x       0.153490  0.152267  0.013589 -0.001623  0.123157  0.052697
     5 y      -0.245624 -0.195414 -0.070516 -0.023578 -0.146059 -0.055677
     5 z       0.136998  0.114243  0.072060  0.026376  0.115812  0.032868
     6 x      -0.044142  0.061147 -0.040427  0.067934  0.042174 -0.005315
     6 y       0.287284 -0.214929  0.201711 -0.178780 -0.128201  0.009921
     6 z       0.000043  0.027287  0.053050  0.008013 -0.029821  0.003947
     7 x       0.016984  0.045924 -0.020322 -0.010251  0.039470  0.027759
     7 y       0.302934  0.273267  0.088616  0.050110  0.237271  0.129853
     7 z       0.018203  0.019687  0.044954  0.020621  0.046734  0.011594
     8 x      -0.159890  0.185901  0.304969 -0.272172 -0.225378  0.347522
     8 y       0.079529 -0.066542 -0.126082  0.094502  0.085824 -0.133584
     8 z      -0.159863  0.279116 -0.152293  0.368200  0.005755 -0.348907
     9 x      -0.018709 -0.295318  0.062937 -0.159837 -0.476568 -0.427589
     9 y      -0.104179 -0.045201 -0.118300 -0.074103 -0.024390 -0.020861
     9 z       0.203428 -0.000898  0.308931  0.111879 -0.128181 -0.114410
    10 x       0.055887  0.031978 -0.055275  0.030802 -0.043162  0.004074
    10 y       0.150606 -0.026524 -0.117346  0.062184 -0.048977  0.021291
    10 z      -0.286293  0.081206  0.248563 -0.189736  0.120683 -0.057114
    11 x      -0.005213  0.055665 -0.009241 -0.003904 -0.027786 -0.004669
    11 y      -0.247580  0.082357  0.289511 -0.246975  0.159385 -0.079435
    11 z       0.092028 -0.003054 -0.064758  0.038055 -0.035521  0.013131
    12 x       0.190076  0.114027 -0.268339  0.043495 -0.212979  0.138690
    12 y       0.073232 -0.028888 -0.145569  0.101005 -0.150123  0.145192
    12 z      -0.152567 -0.369026 -0.054554  0.412961 -0.241133  0.362187


  Frequency     689.1469  693.7280  710.9419  808.4330  812.6514  814.7400
  IR Intensity    0.0703    0.0692    0.0018    0.0006    0.0041    0.0012
     in X         0.0021    0.0659    0.0009    0.0003    0.0001    0.0000
     in Y         0.0215    0.0009    0.0000    0.0001    0.0033    0.0002
     in Z         0.0467    0.0024    0.0009    0.0001    0.0007    0.0010
  Raman Intsty    0.0003    0.0056    0.1992    0.0000    0.0003    0.0046

     1 x       0.025928 -0.021126  0.011014 -0.022194  0.009594  0.086650
     1 y       0.381511 -0.120666  0.344778 -0.088249  0.074527  0.462428
     1 z       0.375693 -0.102701  0.239304  0.085455 -0.081537 -0.559344
     2 x      -0.279693 -0.432688  0.315220 -0.148754  0.146943 -0.111395
     2 y       0.118525  0.143517 -0.149666 -0.555790  0.402915 -0.132873
     2 z       0.166998  0.146706 -0.136726  0.091776 -0.064304  0.061336
     3 x       0.119081 -0.370426 -0.424632 -0.074790 -0.162341  0.059214
     3 y       0.068096 -0.122967 -0.169663  0.429193  0.558027  0.011092
     3 z       0.120812 -0.181343 -0.245761 -0.094140 -0.138210  0.052555
     4 x       0.113971  0.172936 -0.094110  0.236559 -0.178592  0.078929
     4 y       0.132210  0.203198 -0.099390  0.311873 -0.234468  0.098966
     4 z      -0.047174 -0.069721  0.037167 -0.095712  0.071943 -0.029644
     5 x      -0.058401  0.157255  0.159106  0.148268  0.206285 -0.019222
     5 y       0.071039 -0.191059 -0.184833 -0.205745 -0.283982  0.019743
     5 z      -0.047458  0.129472  0.136066  0.127066  0.176927 -0.013095
     6 x       0.076454  0.096239 -0.084163 -0.073856  0.050855 -0.010264
     6 y      -0.248411 -0.311669  0.248584  0.322306 -0.229275  0.063610
     6 z      -0.022324 -0.025249  0.018046  0.015511 -0.007745  0.001168
     7 x      -0.022014  0.044404  0.057802 -0.032685 -0.040538 -0.004704
     7 y      -0.135799  0.256777  0.297477 -0.278166 -0.355087 -0.014838
     7 z      -0.018233  0.035221  0.046751 -0.030058 -0.033871 -0.003777
     8 x       0.178571  0.072505  0.001836  0.019169 -0.012985  0.001666
     8 y      -0.074769 -0.022328 -0.011644  0.007544 -0.007157 -0.008396
     8 z      -0.200794 -0.150550  0.077759 -0.027457  0.024228 -0.011554
     9 x      -0.002962  0.391143  0.149183 -0.024590 -0.010458 -0.008875
     9 y      -0.020276  0.033581  0.055888  0.000229 -0.019425 -0.005131
     9 z       0.034933  0.063590 -0.040391 -0.001612 -0.001286  0.007076
    10 x       0.046218 -0.008940  0.018115  0.014860 -0.012530 -0.082889
    10 y       0.103187 -0.020881  0.029676  0.035340 -0.031688 -0.205091
    10 z      -0.275039  0.062083 -0.101621 -0.079003  0.070876  0.466468
    11 x      -0.007313  0.001537 -0.000431 -0.000064 -0.001461 -0.008872
    11 y      -0.362478  0.115744 -0.301387  0.067401 -0.061597 -0.354864
    11 z       0.064510 -0.018277  0.046295 -0.018216  0.017013  0.100329
    12 x      -0.164029  0.055118 -0.090084  0.005171  0.006340  0.013156
    12 y      -0.141710  0.055938 -0.064698 -0.004763 -0.011225  0.000073
    12 z      -0.279075  0.137088 -0.049451  0.010467  0.020399  0.013848




--------------------------------------------------------------------------------
  Vibrational properties (for cluster):  Temperature  =       0.000 K
--------------------------------------------------------------------------------
  Zero point energy            =        0.684114 eV
--------------------------------------------------------------------------------

  Phonon density of states : 

--------------------------------------------------------------------------------
 Frequency (cm-1) Density of States                                             
--------------------------------------------------------------------------------
    0.00000 |********************                                          0.029
   12.73031 |****************************************                      0.059
   25.46063 |********************                                          0.029
   38.19094 |****************************************                      0.059
   50.92125 |********************                                          0.029
   63.65156 |                                                              0.000
   76.38188 |                                                              0.000
   89.11219 |                                                              0.000
  101.84250 |                                                              0.000
  114.57282 |********************                                          0.029
  127.30313 |                                                              0.000
  140.03344 |****************************************                      0.059
  152.76375 |****************************************                      0.059
  165.49407 |********************                                          0.029
  178.22438 |                                                              0.000
  190.95469 |****************************************                      0.059
  203.68501 |                                                              0.000
  216.41532 |****************************************                      0.059
  229.14563 |********************                                          0.029
  241.87594 |********************                                          0.029
  254.60626 |****************************************                      0.059
  267.33657 |                                                              0.000
  280.06688 |                                                              0.000
  292.79720 |                                                              0.000
  305.52751 |                                                              0.000
  318.25782 |********************                                          0.029
  330.98813 |                                                              0.000
  343.71845 |                                                              0.000
  356.44876 |                                                              0.000
  369.17907 |                                                              0.000
  381.90939 |                                                              0.000
  394.63970 |                                                              0.000
  407.37001 |                                                              0.000
  420.10032 |                                                              0.000
  432.83064 |                                                              0.000
  445.56095 |********************                                          0.029
  458.29126 |                                                              0.000
  471.02158 |                                                              0.000
  483.75189 |********************                                          0.029
  496.48220 |********************                                          0.029
  509.21251 |                                                              0.000
  521.94283 |                                                              0.000
  534.67314 |                                                              0.000
  547.40345 |                                                              0.000
  560.13377 |                                                              0.000
  572.86408 |                                                              0.000
  585.59439 |********************                                          0.029
  598.32470 |********************                                          0.029
  611.05502 |                                                              0.000
  623.78533 |********************                                          0.029
  636.51564 |                                                              0.000
  649.24596 |                                                              0.000
  661.97627 |                                                              0.000
  674.70658 |                                                              0.000
  687.43689 |****************************************                      0.059
  700.16721 |********************                                          0.029
  712.89752 |                                                              0.000
  725.62783 |                                                              0.000
  738.35815 |                                                              0.000
  751.08846 |                                                              0.000
  763.81877 |                                                              0.000
  776.54908 |                                                              0.000
  789.27940 |                                                              0.000
  802.00971 |************************************************************  0.088
--------------------------------------------------------------------------------



  Time to end of optimisation =       0.0371 seconds


  Peak dynamic memory used =       0.65 MB 


  Timing analysis for GULP :

--------------------------------------------------------------------------------
  Task / Subroutine                                          Time (Seconds)
--------------------------------------------------------------------------------
  Calculation of real space energy and derivatives                0.0025
  Calculation of phonons                                          0.0016
  Calculation and manipulation of Hessian matrix                  0.0016
--------------------------------------------------------------------------------
  Total CPU time                                                  0.0371
--------------------------------------------------------------------------------


  Job Finished at 14:38.49 25th May        2022                               

