********************************************************************************
*                       GENERAL UTILITY LATTICE PROGRAM                        *
*                                 Julian Gale                                  *
*                       Curtin Institute for Computation                       *
*                           Department of Chemistry                            *
*                    Curtin University, Western Australia                      *
********************************************************************************
* Version = 5.1.1 * Last modified =  24th November 2018                        *
********************************************************************************
*  optimise     - perform optimisation run                                     *
*  conp         - constant pressure calculation                                *
*  shell        - only shells and radii to be optimised                        *
*  phonon       - calculate phonons for final geometry                         *
*  eigenvectors - output phonon eigenvectors                                   *
********************************************************************************

  Job Started  at 14:40.25 25th May        2022                               

  Number of CPUs =     1

  Host name      = login03                                 


  Total number of configurations input =      1

********************************************************************************
*  Input for Configuration =   1                                               *
********************************************************************************

  Formula = Al3F9                                                       

  Number of irreducible atoms/shells =      21


  Total number atoms/shells =      21

  Dimensionality = 0               :  Cluster


  Charge on cluster =  -0.000000


  Initial cluster dipoles : x =     -0.458084 e.Angs
                            y =     -0.115530 e.Angs
                            z =      0.992767 e.Angs

  Temperature of configuration =  0.000     K 

  Symmetry number =      1

  Cartesian coordinates of cluster :

--------------------------------------------------------------------------------
   No.  Atomic       x           y          z         Charge      Occupancy
        Label      (Angs)      (Angs)     (Angs)        (e)         (Frac)  
--------------------------------------------------------------------------------
      1 Al    c      0.2391     -2.3372     -1.7482     3.00000    1.000000    
      2 Al    c      1.9983     -0.5501     -0.7285     3.00000    1.000000    
      3 Al    c     -0.3716      0.2999     -1.7231     3.00000    1.000000    
      4 F     c      3.6279     -0.1793     -0.0377     0.59000    1.000000    
      5 F     c     -0.1640     -4.0315     -2.2356     0.59000    1.000000    
      6 F     c      2.1348     -1.8224     -2.3276     0.59000    1.000000    
      7 F     c      1.5550      0.6813     -2.3037     0.59000    1.000000    
      8 F     c     -1.4804      1.6530     -2.1815     0.59000    1.000000    
      9 F     c     -1.1037     -1.2656     -1.0307     0.59000    1.000000    
     10 F     c     -0.1152     -1.0154     -3.2718     0.59000    1.000000    
     11 F     c      0.5189      0.3827     -0.0902     0.59000    1.000000    
     12 F     c      1.0821     -2.0496     -0.1133     0.59000    1.000000    
     13 F     s      3.6279 *   -0.1793 *   -0.0377 *  -1.59000    1.000000    
     14 F     s     -0.1640 *   -4.0315 *   -2.2356 *  -1.59000    1.000000    
     15 F     s      2.1348 *   -1.8224 *   -2.3276 *  -1.59000    1.000000    
     16 F     s      1.5550 *    0.6813 *   -2.3037 *  -1.59000    1.000000    
     17 F     s     -1.4804 *    1.6530 *   -2.1815 *  -1.59000    1.000000    
     18 F     s     -1.1037 *   -1.2656 *   -1.0307 *  -1.59000    1.000000    
     19 F     s     -0.1152 *   -1.0154 *   -3.2718 *  -1.59000    1.000000    
     20 F     s      0.5189 *    0.3827 *   -0.0902 *  -1.59000    1.000000    
     21 F     s      1.0821 *   -2.0496 *   -0.1133 *  -1.59000    1.000000    
--------------------------------------------------------------------------------


  Brillouin zone sampling points :

--------------------------------------------------------------------------------
  Point number          x          y          z            Weight
--------------------------------------------------------------------------------
        1           0.000000   0.000000   0.000000     1.00000000
--------------------------------------------------------------------------------


********************************************************************************
*  General input information                                                   *
********************************************************************************

  Species output for all configurations : 

--------------------------------------------------------------------------------
  Species    Type    Atomic    Atomic    Charge       Radii (Angs)     Library
                     Number     Mass       (e)     Cova   Ionic  VDW   Symbol
--------------------------------------------------------------------------------
    Al       Core       13      26.98   3.000000   1.350  0.000  2.050          
    F        Core        9      19.00   0.590000   0.710  0.000  1.300          
    F        Shell       9       0.00  -1.590000   0.710  0.000  1.300          
--------------------------------------------------------------------------------


  Accuracy factor for short range sums = 12.000

  Time limit = Infinity

  Maximum range for interatomic potentials =    100000.000000 Angstroms

  General interatomic potentials :

--------------------------------------------------------------------------------
Atom  Types   Potential      Parameter       Value         Units   Cutoffs(Ang)
  1     2                                                            Min /  Max 
--------------------------------------------------------------------------------
Al   c F    s Buckingham    Buckingham A     3760.0008    eV        0.000 10.000
                            Buckingham rho  0.22200000    Ang       
                            Buckingham C     0.0000000    eV*Ang^6  
--------------------------------------------------------------------------------
F    s F    s Buck 4 range  Buck4 A          1127.7000    eV        0.000 12.000
                            Buck4 rho       0.27530000    Ang       
                            Buck4 C          15.830000    eV*Ang^6  
                            Buck4 minimum    2.7900000    Ang       
--------------------------------------------------------------------------------
F    c F    s Spring (c-s)  Spring k 2       20.770000    eV*Ang^-2 0.000  0.800
                            Spring k 4       0.0000000    eV*Ang^-4 
--------------------------------------------------------------------------------

********************************************************************************
*  Output for configuration   1                                                *
********************************************************************************


  Components of energy : 

--------------------------------------------------------------------------------
  Interatomic potentials     =          10.82203831 eV    
  Monopole - monopole (real) =        -177.24083511 eV    
--------------------------------------------------------------------------------
  Total lattice energy       =        -166.41879680 eV    
--------------------------------------------------------------------------------
  Total lattice energy       =          -16056.8699 kJ/mol
--------------------------------------------------------------------------------


  Number of variables =       27

  Maximum number of calculations  =          2000
  Maximum Hessian update interval =            10
  Maximum step size               =   1.000000000
  Maximum parameter tolerance     =   0.000001000
  Maximum function  tolerance     =   0.000010000
  Maximum gradient  tolerance     =   0.000000010
  Maximum gradient  component     =   0.010000000

  Symmetry not applied to optimisation

  Newton-Raphson optimiser to be used

  BFGS hessian update to be used

  Lower half triangular hessian to be used

  Minimiser to switch to RFO
  When gradient norm is less than     0.010000

  Shell only optimisation

  Start of cluster optimisation :

  Cycle:      0 Energy:      -166.418797  Gnorm:      1.525502  CPU:    0.004
  ** Hessian calculated **
  Cycle:      1 Energy:      -183.590717  Gnorm:      0.641045  CPU:    0.006
  ** Hessian calculated **
  Cycle:      2 Energy:      -185.163845  Gnorm:      0.031332  CPU:    0.008
  Cycle:      3 Energy:      -185.169504  Gnorm:      0.003489  CPU:    0.009
  ** Hessian has required structure
  Cycle:      4 Energy:      -185.169581  Gnorm:      0.001104  CPU:    0.011
  ** Hessian has required structure
  Cycle:      5 Energy:      -185.169589  Gnorm:      0.000489  CPU:    0.012
  ** Hessian has required structure
  Cycle:      6 Energy:      -185.169591  Gnorm:      0.000192  CPU:    0.014
  ** Hessian has required structure
  Cycle:      7 Energy:      -185.169591  Gnorm:      0.000078  CPU:    0.015
  ** Hessian has required structure
  Cycle:      8 Energy:      -185.169591  Gnorm:      0.000013  CPU:    0.016
  ** Hessian has required structure
  Cycle:      9 Energy:      -185.169591  Gnorm:      0.000000  CPU:    0.018
  ** Hessian has required structure
  Cycle:     10 Energy:      -185.169591  Gnorm:      0.000000  CPU:    0.019
  ** Hessian has required structure
  Cycle:     11 Energy:      -185.169591  Gnorm:      0.000000  CPU:    0.021
  ** Hessian calculated **

  XYZ File written as 006/5/sp_mod_-20/sp_mod_-20_eig.xyz



  **** Optimisation achieved ****


  Final energy =    -185.16959147 eV
  Final Gnorm  =       0.00000014

  Components of energy : 

--------------------------------------------------------------------------------
  Interatomic potentials     =          37.82947336 eV    
  Monopole - monopole (real) =        -222.99906483 eV    
--------------------------------------------------------------------------------
  Total lattice energy       =        -185.16959147 eV    
--------------------------------------------------------------------------------
  Total lattice energy       =          -17866.0350 kJ/mol
--------------------------------------------------------------------------------

  Final cartesian coordinates of atoms :

--------------------------------------------------------------------------------
   No.  Atomic        x           y          z          Radius
        Label       (Angs)      (Angs)     (Angs)       (Angs) 
--------------------------------------------------------------------------------
     1  Al    c     0.239101   -2.337228   -1.748193    0.000000
     2  Al    c     1.998273   -0.550135   -0.728501    0.000000
     3  Al    c    -0.371610    0.299923   -1.723097    0.000000
     4  F     c     3.627919   -0.179316   -0.037666    0.000000
     5  F     c    -0.164030   -4.031450   -2.235641    0.000000
     6  F     c     2.134773   -1.822401   -2.327562    0.000000
     7  F     c     1.554969    0.681290   -2.303736    0.000000
     8  F     c    -1.480434    1.653008   -2.181547    0.000000
     9  F     c    -1.103666   -1.265605   -1.030667    0.000000
    10  F     c    -0.115176   -1.015363   -3.271824    0.000000
    11  F     c     0.518872    0.382685   -0.090175    0.000000
    12  F     c     1.082148   -2.049638   -0.113321    0.000000
    13  F     s     3.365891   -0.239092   -0.132663    0.000000
    14  F     s    -0.106953   -3.767056   -2.145672    0.000000
    15  F     s     1.934827   -1.758748   -2.094172    0.000000
    16  F     s     1.404330    0.532025   -2.072373    0.000000
    17  F     s    -1.312577    1.439035   -2.096129    0.000000
    18  F     s    -0.921827   -1.222474   -1.137896    0.000000
    19  F     s    -0.123783   -1.020342   -2.958132    0.000000
    20  F     s     0.562619    0.285532   -0.277448    0.000000
    21  F     s     1.077956   -1.939780   -0.298625    0.000000
--------------------------------------------------------------------------------


  Final Cartesian derivatives :

--------------------------------------------------------------------------------
   No.  Atomic          x             y             z           Radius
        Label       (eV/Angs)     (eV/Angs)    (eV/Angs)      (eV/Angs)
--------------------------------------------------------------------------------
      1 Al    c       0.000000      0.000000      0.000000      0.000000
      2 Al    c       0.000000      0.000000      0.000000      0.000000
      3 Al    c       0.000000      0.000000      0.000000      0.000000
      4 F     c       0.000000      0.000000      0.000000      0.000000
      5 F     c       0.000000      0.000000      0.000000      0.000000
      6 F     c       0.000000      0.000000      0.000000      0.000000
      7 F     c       0.000000      0.000000      0.000000      0.000000
      8 F     c       0.000000      0.000000      0.000000      0.000000
      9 F     c       0.000000      0.000000      0.000000      0.000000
     10 F     c       0.000000      0.000000      0.000000      0.000000
     11 F     c       0.000000      0.000000      0.000000      0.000000
     12 F     c       0.000000      0.000000      0.000000      0.000000
     13 F     s      -0.000002     -0.000000     -0.000001      0.000000
     14 F     s       0.000000      0.000002      0.000001      0.000000
     15 F     s       0.000000      0.000000     -0.000001      0.000000
     16 F     s       0.000000      0.000000     -0.000001      0.000000
     17 F     s       0.000001     -0.000001      0.000001      0.000000
     18 F     s       0.000001      0.000000      0.000000      0.000000
     19 F     s       0.000000      0.000000     -0.000001      0.000000
     20 F     s      -0.000000     -0.000001     -0.000000      0.000000
     21 F     s      -0.000000      0.000000     -0.000000      0.000000
--------------------------------------------------------------------------------
  Maximum abs         0.000002      0.000002      0.000001      0.000000
--------------------------------------------------------------------------------


  Born effective charge tensors : 

-------------------------------------------------------------------------------
  Atom             x           y             z
-------------------------------------------------------------------------------
    1 Al    x       1.3274      0.0036     -0.0401
            y       0.0189      0.9241     -0.3742
            z      -0.0270     -0.3378      1.0850
-------------------------------------------------------------------------------
    2 Al    x       0.6754     -0.1473      0.0573
            y      -0.1470      1.2752      0.0125
            z       0.0168      0.0032      1.3859
-------------------------------------------------------------------------------
    3 Al    x       1.2568      0.1648     -0.1983
            y       0.1491      0.9822      0.3160
            z      -0.1708      0.2890      1.0975
-------------------------------------------------------------------------------
    4 F     x      -0.0306      0.1176      0.1888
            y       0.1173     -0.5193      0.0428
            z       0.2227      0.0507     -0.4509
-------------------------------------------------------------------------------
    5 F     x      -0.5145      0.1342      0.0394
            y       0.1214      0.0012      0.1784
            z       0.0285      0.1480     -0.4875
-------------------------------------------------------------------------------
    6 F     x      -0.5315     -0.0447     -0.0206
            y      -0.0475     -0.4943     -0.0837
            z      -0.0157     -0.0886     -0.4067
-------------------------------------------------------------------------------
    7 F     x      -0.5612      0.0135     -0.0544
            y       0.0162     -0.4676      0.0650
            z      -0.0521      0.0715     -0.4037
-------------------------------------------------------------------------------
    8 F     x      -0.3131     -0.2909      0.1078
            y      -0.2778     -0.1948     -0.1364
            z       0.0849     -0.1139     -0.4930
-------------------------------------------------------------------------------
    9 F     x      -0.3124     -0.0064     -0.0583
            y      -0.0069     -0.2839     -0.0133
            z      -0.0034     -0.0005     -0.3069
-------------------------------------------------------------------------------
   10 F     x      -0.3931      0.0458     -0.0506
            y       0.0459     -0.5781     -0.0129
            z      -0.0578     -0.0146     -0.4613
-------------------------------------------------------------------------------
   11 F     x      -0.2895     -0.0095      0.0085
            y      -0.0302     -0.3345      0.0276
            z      -0.0092     -0.0218     -0.2792
-------------------------------------------------------------------------------
   12 F     x      -0.3139      0.0193      0.0203
            y       0.0406     -0.3100     -0.0217
            z      -0.0169      0.0149     -0.2793
-------------------------------------------------------------------------------




  Moment of inertia tensor (10^-46 x kgm^2): 

-------------------------------------------------------------------------------
                x           y           z           Principal axis system
-------------------------------------------------------------------------------
       x        129.90        2.69      -23.16          119.213966
       y          2.69      119.89       -5.84          119.213968
       z        -23.16       -5.84      169.40          180.767236
-------------------------------------------------------------------------------
  Centre of mass (Ang) =     0.656468    -0.853767    -1.474800
-------------------------------------------------------------------------------


  Vibrational Frequency Calculation : 

--------------------------------------------------------------------------------

  Frequencies (cm-1) and Eigenvectors : 

  Frequency     -89.1845  -36.0134  -36.0134   -0.0000    0.0000    0.0000
  IR Intensity    0.0000    0.0010    0.0010    0.0000    0.0000    0.0000
     in X         0.0000    0.0005    0.0003    0.0000    0.0000    0.0000
     in Y         0.0000    0.0003    0.0007    0.0000    0.0000    0.0000
     in Z         0.0000    0.0002    0.0000    0.0000    0.0000    0.0000
  Raman Intsty    0.0000    0.0000    0.0000    0.0000    0.0000    0.0000

     1 x       0.311956 -0.143506 -0.093415  0.175418 -0.056578 -0.270400
     1 y      -0.111896 -0.043385 -0.040996 -0.275407 -0.010715 -0.176424
     1 z       0.130922  0.275721  0.224650 -0.021649 -0.322138  0.053360
     2 x      -0.080390  0.140297 -0.052055  0.175418 -0.056578 -0.270400
     2 y       0.347137  0.029115 -0.029871 -0.275407 -0.010715 -0.176424
     2 z       0.003304 -0.341381  0.136742 -0.021649 -0.322138  0.053360
     3 x      -0.231566 -0.036350  0.174446  0.175418 -0.056578 -0.270400
     3 y      -0.235241 -0.015297  0.026107 -0.275407 -0.010715 -0.176424
     3 z      -0.134226  0.043966 -0.353229 -0.021649 -0.322138  0.053360
     4 x      -0.008517  0.169312 -0.061839  0.147208 -0.047480 -0.226915
     4 y       0.036779  0.033578 -0.039657 -0.231116 -0.008992 -0.148052
     4 z       0.000350 -0.410131  0.164239 -0.018167 -0.270332  0.044778
     5 x       0.033052 -0.174617 -0.109369  0.147208 -0.047480 -0.226915
     5 y      -0.011855 -0.051025 -0.050038 -0.231116 -0.008992 -0.148052
     5 z       0.013871  0.330514  0.271243 -0.018167 -0.270332  0.044778
     6 x      -0.183215 -0.116571 -0.052459  0.147208 -0.047480 -0.226915
     6 y      -0.186123 -0.107851 -0.127127 -0.231116 -0.008992 -0.148052
     6 z      -0.106199 -0.106591  0.242200 -0.018167 -0.270332  0.044778
     7 x       0.246820 -0.039810  0.179135  0.147208 -0.047480 -0.226915
     7 y      -0.088532 -0.025563 -0.095546 -0.231116 -0.008992 -0.148052
     7 z       0.103586 -0.244745 -0.103921 -0.018167 -0.270332  0.044778
     8 x      -0.024534 -0.046299  0.209009  0.147208 -0.047480 -0.226915
     8 y      -0.024924 -0.021122  0.031306 -0.231116 -0.008992 -0.148052
     8 z      -0.014221  0.051317 -0.424835 -0.018167 -0.270332  0.044778
     9 x       0.079903  0.016731 -0.057876  0.147208 -0.047480 -0.226915
     9 y      -0.345032  0.081280  0.188344 -0.231116 -0.008992 -0.148052
     9 z      -0.003283  0.318269 -0.125543 -0.018167 -0.270332  0.044778
    10 x      -0.063605 -0.175203  0.116209  0.147208 -0.047480 -0.226915
    10 y       0.274656 -0.114409 -0.152501 -0.231116 -0.008992 -0.148052
    10 z       0.002614  0.169496 -0.069866 -0.018167 -0.270332  0.044778
    11 x      -0.310064  0.244615 -0.042203  0.147208 -0.047480 -0.226915
    11 y       0.111218  0.117464  0.176306 -0.231116 -0.008992 -0.148052
    11 z      -0.130128 -0.128582 -0.199330 -0.018167 -0.270332  0.044778
    12 x       0.230161  0.168983 -0.215137  0.147208 -0.047480 -0.226915
    12 y       0.233815  0.122881  0.122250 -0.231116 -0.008992 -0.148052
    12 z       0.133411  0.046305  0.236087 -0.018167 -0.270332  0.044778


  Frequency      23.4469   86.0510   86.0511  121.3223  121.3223  130.7434
  IR Intensity    0.0000    0.0066    0.0066    0.0012    0.0012    0.0196
     in X         0.0000    0.0011    0.0044    0.0009    0.0001    0.0008
     in Y         0.0000    0.0055    0.0010    0.0000    0.0011    0.0188
     in Z         0.0000    0.0000    0.0012    0.0002    0.0000    0.0000
  Raman Intsty    0.0000    0.0000    0.0000    0.0000    0.0000    0.0000

     1 x      -0.111868 -0.092933 -0.149313 -0.018473 -0.050066  0.053404
     1 y       0.040126 -0.038117 -0.010182  0.008078  0.020505  0.106806
     1 z      -0.046949  0.291426  0.232097  0.074580  0.123323 -0.141680
     2 x       0.028828 -0.023720  0.176984  0.097440 -0.001750 -0.018326
     2 y      -0.124484 -0.063093  0.032584  0.023636  0.009874  0.079898
     2 z      -0.001185  0.074035 -0.358994 -0.118115 -0.000523  0.007055
     3 x       0.083040  0.145626 -0.086803 -0.013099  0.035307 -0.087338
     3 y       0.084358  0.035064 -0.050927 -0.017164  0.042471  0.071219
     3 z       0.048133 -0.359790  0.096292  0.075619 -0.121941  0.140528
     4 x       0.104322  0.002740 -0.004246 -0.139547  0.118483  0.130043
     4 y      -0.450480 -0.007324 -0.003373 -0.033791 -0.514947 -0.529173
     4 z      -0.004287 -0.015486  0.074183  0.451859 -0.002545 -0.016615
     5 x      -0.404824  0.031772  0.018880 -0.297018  0.412916  0.074625
     5 y       0.145207  0.023594  0.024441  0.198726  0.013504 -0.077880
     5 z      -0.169897 -0.040926 -0.040478 -0.371662 -0.259733  0.457958
     6 x      -0.203506 -0.253648  0.126779  0.059644 -0.060206 -0.015221
     6 y      -0.206736  0.304752 -0.056834  0.011728  0.022466  0.187598
     6 z      -0.117961 -0.044149  0.039532 -0.048947  0.108033 -0.154611
     7 x       0.274155  0.050811  0.119152  0.058064  0.044358 -0.063924
     7 y      -0.098337  0.310338  0.250358  0.016062  0.048760  0.176181
     7 z       0.115058  0.030150  0.057879 -0.047780 -0.107860  0.166528
     8 x       0.300502 -0.046498  0.009827 -0.177065 -0.377601 -0.058119
     8 y       0.305272  0.011093 -0.009268 -0.300474 -0.177201 -0.116193
     8 z       0.174184  0.054066 -0.021043 -0.379101  0.254271 -0.457900
     9 x      -0.016114  0.074218 -0.471706  0.116946 -0.020890  0.003798
     9 y       0.069585  0.120373 -0.085428  0.023665  0.092959 -0.009299
     9 z       0.000662  0.050637 -0.239069  0.305542  0.002475 -0.005311
    10 x      -0.070649 -0.085766  0.343082 -0.024712 -0.007461 -0.015833
    10 y       0.305073  0.043790  0.090615 -0.007248  0.031629  0.104964
    10 z       0.002903 -0.042494  0.207438  0.142024  0.001041 -0.001190
    11 x       0.062532 -0.163309 -0.024673  0.147854  0.090825 -0.066247
    11 y      -0.022430 -0.364148 -0.368245  0.097436  0.231205 -0.039417
    11 z       0.026244 -0.108988 -0.046439 -0.043730 -0.147322  0.137002
    12 x      -0.046418  0.355154 -0.046630  0.177342 -0.180751  0.073154
    12 y      -0.047155 -0.363646  0.191726 -0.023441  0.164813 -0.004130
    12 z      -0.026906  0.110432  0.004467 -0.046436  0.150617 -0.132897


  Frequency     130.7434  133.0279  184.6508  245.3694  245.3694  258.6834
  IR Intensity    0.0196    0.0391    0.0000    0.0308    0.0308    0.0128
     in X         0.0154    0.0068    0.0000    0.0002    0.0252    0.0022
     in Y         0.0006    0.0004    0.0000    0.0304    0.0000    0.0001
     in Z         0.0036    0.0319    0.0000    0.0002    0.0055    0.0104
  Raman Intsty    0.0000    0.0264    0.0000    0.0000    0.0000    0.0012

     1 x      -0.110250 -0.053974  0.188059  0.073268 -0.029718 -0.052406
     1 y      -0.028122 -0.007517 -0.067456  0.268011 -0.099541 -0.008423
     1 z       0.041878  0.122176  0.078925  0.052153 -0.020487  0.117673
     2 x      -0.006485 -0.061749 -0.048462  0.042314 -0.256989 -0.058526
     2 y       0.003033 -0.015420  0.209268  0.012050 -0.057780 -0.014640
     2 z      -0.205460  0.117654  0.001992  0.023183 -0.138832  0.114126
     3 x      -0.116777 -0.051272 -0.139597 -0.150980 -0.126386 -0.050282
     3 y      -0.019639 -0.019181 -0.141813  0.173183  0.140527 -0.017597
     3 z       0.050613  0.122063 -0.080917 -0.038926 -0.033246  0.117586
     4 x      -0.227701  0.177652  0.077517  0.067004 -0.266995  0.007179
     4 y      -0.073457  0.045615 -0.334730 -0.084128 -0.077146  0.002138
     4 z       0.377229 -0.469843 -0.003185  0.021403 -0.133831 -0.049933
     5 x       0.501771  0.218515 -0.300807  0.102377  0.053473  0.023727
     5 y      -0.152529  0.087096  0.107897  0.265295 -0.132273  0.018948
     5 z      -0.018594 -0.446196 -0.126243  0.076541  0.009869 -0.040342
     6 x      -0.090326 -0.059775  0.253358  0.277675  0.117276 -0.121944
     6 y       0.033919 -0.029460  0.257379 -0.261339 -0.328365  0.117361
     6 z      -0.142595  0.154747  0.146857  0.202271  0.102003  0.004693
     7 x      -0.070864 -0.065992 -0.341313 -0.115535 -0.080427 -0.057926
     7 y      -0.056911 -0.002615  0.122426 -0.445828  0.211311 -0.159079
     7 z      -0.133620  0.155000 -0.143243 -0.232038  0.034978  0.002062
     8 x       0.380730  0.232688  0.223290 -0.194306 -0.077331  0.029472
     8 y       0.351411  0.025892  0.226834  0.137956  0.197595 -0.005858
     8 z      -0.041840 -0.446772  0.129429 -0.072307 -0.011621 -0.040578
     9 x      -0.050548 -0.038106  0.029520 -0.080553  0.255257 -0.390356
     9 y      -0.013641 -0.010502 -0.127473  0.149765  0.085079 -0.087027
     9 z       0.170411  0.176287 -0.001213 -0.034814  0.218041 -0.354262
    10 x      -0.263194 -0.083908  0.087955 -0.115301  0.509746  0.126480
    10 y      -0.058298 -0.020808 -0.379806  0.107445  0.139275  0.028253
    10 z       0.070914  0.144629 -0.003614 -0.018411  0.117816  0.108952
    11 x       0.045497 -0.083208 -0.114554 -0.161254 -0.094805  0.187444
    11 y       0.017622 -0.056323  0.041089 -0.290389  0.164403  0.499944
    11 z      -0.069446  0.150129 -0.048076 -0.022410 -0.056738 -0.019344
    12 x       0.052897 -0.098868  0.085034  0.262075  0.076063  0.388032
    12 y       0.005184  0.011295  0.086383 -0.118880 -0.239867 -0.366229
    12 z      -0.077842  0.150775  0.049289  0.036377 -0.051050 -0.027587


  Frequency     299.2545  310.0570  310.0571  353.0236  353.0236  400.1082
  IR Intensity    0.0000    0.0287    0.0287    0.0035    0.0035    0.0077
     in X         0.0000    0.0038    0.0199    0.0017    0.0012    0.0013
     in Y         0.0000    0.0247    0.0036    0.0012    0.0022    0.0001
     in Z         0.0000    0.0001    0.0052    0.0005    0.0001    0.0063
  Raman Intsty    0.3030    0.0000    0.0000    0.0000    0.0000    1.2263

     1 x       0.000165  0.158149 -0.143072 -0.015459  0.245444 -0.090152
     1 y      -0.035350 -0.025468  0.076958  0.248640  0.081957 -0.246505
     1 z      -0.030605  0.017264 -0.100325 -0.124818  0.020260  0.004129
     2 x       0.045339  0.054366  0.004365  0.159573 -0.014800  0.195472
     2 y       0.010542 -0.231305 -0.039825 -0.069413 -0.225496  0.043653
     2 z      -0.004421 -0.012926  0.064691  0.227658 -0.108782  0.169689
     3 x      -0.015517 -0.093482 -0.132090 -0.135844 -0.237438 -0.189309
     3 y       0.032371 -0.045422 -0.152849 -0.172241  0.152935  0.181670
     3 z      -0.029961  0.015421 -0.102785 -0.098211  0.086480  0.008204
     4 x       0.041408 -0.019976  0.063883  0.256946 -0.130197  0.387815
     4 y       0.009368  0.037063  0.022609  0.076006  0.008505  0.088336
     4 z       0.023199  0.016291 -0.096480  0.134023 -0.062177  0.154920
     5 x      -0.012961 -0.057137 -0.000088  0.089034  0.018541 -0.091370
     5 y      -0.045863  0.012958 -0.006151  0.248418  0.189401 -0.398455
     5 z      -0.008315  0.075907  0.081894  0.064007  0.026411 -0.122837
     6 x       0.263175  0.081277  0.344083 -0.272695  0.018413 -0.136040
     6 y      -0.403287  0.129595  0.331829 -0.284248  0.101872  0.076438
     6 z       0.252762  0.137602  0.165360 -0.130572 -0.305798  0.100733
     7 x       0.060180 -0.269857  0.389609 -0.283796  0.245516 -0.088173
     7 y       0.473279  0.126801 -0.115137  0.148134 -0.055660 -0.130259
     7 z       0.261104 -0.180005  0.108760  0.154575  0.294422  0.098766
     8 x      -0.031835  0.043695  0.012230  0.044893 -0.209456 -0.257723
     8 y       0.035640  0.034820  0.016028  0.005732  0.246196  0.319885
     8 z      -0.007540 -0.097745  0.053448  0.020750 -0.060722 -0.116001
     9 x      -0.050734  0.106544 -0.183964 -0.179255  0.092267  0.175554
     9 y      -0.010091 -0.312372 -0.101726 -0.059011 -0.009341  0.041826
     9 z      -0.174186 -0.063246  0.364707  0.272213 -0.127488 -0.123105
    10 x      -0.524552 -0.117040 -0.038420  0.253220 -0.014784  0.049709
    10 y      -0.120735  0.519489  0.080410 -0.120048 -0.390783  0.009811
    10 z      -0.077832 -0.008326  0.081270 -0.193749  0.086238  0.178688
    11 x       0.086050  0.316196 -0.118105  0.094217  0.102551  0.051662
    11 y       0.128864 -0.051049  0.093519 -0.007758 -0.018576 -0.084032
    11 z      -0.094900 -0.221623 -0.340195 -0.284662 -0.183677 -0.194918
    12 x       0.133536 -0.225547 -0.146537 -0.012418 -0.114755  0.008652
    12 y      -0.076187 -0.137199 -0.183490 -0.015549 -0.082811  0.101693
    12 z      -0.096851  0.317599 -0.253818 -0.042099  0.335222 -0.193151


  Frequency     422.8235  422.8236  481.9258  516.6990  516.6991  528.4018
  IR Intensity    0.0167    0.0168    0.0102    0.0001    0.0001    0.0000
     in X         0.0122    0.0017    0.0018    0.0001    0.0000    0.0000
     in Y         0.0015    0.0151    0.0001    0.0000    0.0001    0.0000
     in Z         0.0031    0.0000    0.0083    0.0000    0.0000    0.0000
  Raman Intsty    0.0000    0.0000    8.5422    0.0000    0.0000    0.0000

     1 x       0.165512 -0.044682 -0.044524  0.136423  0.084161 -0.332071
     1 y       0.027363 -0.103966 -0.086433 -0.007730  0.008943  0.119111
     1 z      -0.098947  0.214242  0.032218 -0.261190 -0.267105 -0.139364
     2 x      -0.050617  0.022774  0.051468 -0.200592  0.050488  0.085573
     2 y      -0.001459 -0.120922  0.011083 -0.038648  0.049632 -0.369522
     2 z       0.279598  0.027544  0.087859  0.330417 -0.097372 -0.003515
     3 x       0.139686  0.115720 -0.077848  0.056397 -0.130007  0.246498
     3 y       0.063111 -0.058251  0.057467  0.041719 -0.067312  0.250410
     3 z      -0.052823 -0.231450  0.033588 -0.073354  0.365602  0.142880
     4 x       0.108521  0.010315  0.241010 -0.303627  0.090836  0.000754
     4 y       0.024462  0.006059  0.054934 -0.070291  0.016365 -0.003258
     4 z       0.030414  0.003155  0.092334 -0.135735  0.040108 -0.000031
     5 x       0.008817 -0.017613 -0.054885 -0.061983 -0.053604 -0.002927
     5 y       0.062743 -0.084863 -0.245657 -0.240565 -0.230352  0.001050
     5 z       0.024624 -0.036340 -0.079179 -0.066082 -0.060550 -0.001229
     6 x       0.031300  0.414254  0.224992  0.036357 -0.040546  0.039923
     6 y      -0.163445 -0.014813 -0.055911  0.020785  0.025961  0.040556
     6 z      -0.292659 -0.453370 -0.290168  0.003599  0.049162  0.023141
     7 x       0.029852 -0.365229  0.176301  0.048573 -0.001932 -0.053782
     7 y       0.203716 -0.165652  0.154346  0.020553  0.036758  0.019291
     7 z      -0.375153  0.383080 -0.288167 -0.023559 -0.042544 -0.022572
     8 x       0.024038  0.059394 -0.157607 -0.054263  0.213529  0.002173
     8 y      -0.037772 -0.078432  0.197915  0.059105 -0.258076  0.002208
     8 z       0.015949  0.038925 -0.074958 -0.021219  0.081215  0.001259
     9 x      -0.060745 -0.060139 -0.258279 -0.318929 -0.021168  0.097208
     9 y      -0.038324  0.228840 -0.061825  0.067423  0.478828 -0.419764
     9 z      -0.068517 -0.004816  0.211514  0.175690 -0.047222 -0.003994
    10 x      -0.085253 -0.057905  0.036044  0.003717 -0.010465  0.013859
    10 y      -0.048697  0.207269  0.011863  0.011814  0.036946 -0.059847
    10 z       0.655711  0.069312 -0.369466  0.067049 -0.019448 -0.000569
    11 x      -0.189695 -0.092778 -0.090640  0.350057 -0.260311 -0.377221
    11 y       0.008144  0.116148  0.108475 -0.220493  0.003216  0.135306
    11 z      -0.065366 -0.058646  0.308684 -0.102331 -0.345953 -0.158313
    12 x      -0.170204 -0.002087 -0.032443  0.309359  0.078130  0.280014
    12 y      -0.116900  0.122844 -0.142831  0.357222 -0.099236  0.284458
    12 z      -0.077328  0.046382  0.306293  0.107507  0.343893  0.162307


  Frequency     583.4813  635.3329  635.3330  808.7775  808.7775  914.0103
  IR Intensity    0.1883    0.1044    0.1044    0.0079    0.0079    0.0006
     in X         0.0327    0.0154    0.0709    0.0001    0.0064    0.0001
     in Y         0.0021    0.0885    0.0147    0.0078    0.0000    0.0000
     in Z         0.1535    0.0005    0.0188    0.0000    0.0014    0.0005
  Raman Intsty    0.0666    0.0000    0.0000    0.0000    0.0000    2.8795

     1 x       0.184955 -0.379164  0.403830 -0.146134  0.067556 -0.096421
     1 y       0.078084  0.149839 -0.132986 -0.522931 -0.246612 -0.472835
     1 z      -0.373966 -0.088406  0.230125 -0.228416 -0.036229 -0.174372
     2 x       0.144826 -0.152628  0.040257 -0.120115 -0.576465  0.476079
     2 y       0.037318  0.602257  0.129363  0.106476 -0.152719  0.108752
     2 z      -0.397226  0.016428 -0.055855 -0.026485 -0.177700  0.157473
     3 x       0.198886  0.145900  0.384120  0.330277 -0.155889 -0.295169
     3 y       0.017928  0.173294  0.381392 -0.313333  0.364592  0.385392
     3 z      -0.374539  0.001608  0.251846  0.199517 -0.096868 -0.166205
     4 x       0.097773  0.026617 -0.103705  0.066385  0.422064 -0.227817
     4 y       0.021888 -0.025487 -0.029544  0.012732  0.096414 -0.051844
     4 z       0.079239  0.007374 -0.040928  0.027814  0.178412 -0.095968
     5 x      -0.042379 -0.000871 -0.036844  0.099074  0.036094  0.056063
     5 y      -0.120489 -0.089309 -0.063636  0.413789  0.160724  0.236541
     5 z      -0.001999 -0.018798 -0.031269  0.119885  0.045414  0.068581
     6 x      -0.150436  0.122145 -0.098086  0.030787  0.020545 -0.003280
     6 y       0.030706 -0.083417 -0.026625  0.020784  0.029327  0.006068
     6 z       0.205718 -0.135016  0.015570  0.000997  0.025488 -0.004975
     7 x      -0.120766 -0.031452 -0.119215 -0.025463  0.041164 -0.000300
     7 y      -0.097415 -0.115094 -0.065607 -0.000507 -0.018491 -0.006801
     7 z       0.204498  0.118292  0.062723  0.006913  0.024078 -0.005098
     8 x      -0.091035  0.059551 -0.042519 -0.227019  0.181015  0.154615
     8 y       0.089613 -0.089753  0.009678  0.275136 -0.223738 -0.189019
     8 z      -0.000000  0.026979 -0.021993 -0.094450  0.074990  0.064531
     9 x      -0.213893  0.112269 -0.261673 -0.039345 -0.080228 -0.059959
     9 y      -0.050965 -0.251610 -0.114457  0.109959 -0.037732 -0.014350
     9 z       0.150395 -0.037470  0.186090  0.010284  0.058847  0.048848
    10 x      -0.035300  0.023609 -0.028017 -0.011703  0.004524  0.008285
    10 y      -0.010592 -0.075594 -0.019665  0.052432 -0.007375  0.001920
    10 z       0.254038  0.037569 -0.204510 -0.002392 -0.018602 -0.000122
    11 x      -0.063139  0.217231 -0.131440 -0.013710  0.104978 -0.020920
    11 y       0.102181 -0.159195 -0.022549 -0.024849 -0.049160  0.025309
    11 z       0.237778 -0.165554 -0.275305 -0.103864  0.006136  0.071477
    12 x      -0.010804 -0.069258 -0.165423  0.044695  0.062043 -0.007367
    12 y      -0.123810 -0.213271 -0.117758  0.010168  0.091427 -0.033214
    12 z       0.235627  0.250480 -0.198154  0.100811 -0.024407  0.070920




--------------------------------------------------------------------------------
  Vibrational properties (for cluster):  Temperature  =       0.000 K
--------------------------------------------------------------------------------
  Zero point energy            =        0.686095 eV
--------------------------------------------------------------------------------

  Phonon density of states : 

--------------------------------------------------------------------------------
 Frequency (cm-1) Density of States                                             
--------------------------------------------------------------------------------
    0.00000 |****************************************                      0.062
   14.28141 |********************                                          0.031
   28.56283 |                                                              0.000
   42.84424 |                                                              0.000
   57.12565 |                                                              0.000
   71.40706 |                                                              0.000
   85.68848 |****************************************                      0.062
   99.96989 |                                                              0.000
  114.25130 |****************************************                      0.062
  128.53271 |************************************************************  0.094
  142.81413 |                                                              0.000
  157.09554 |                                                              0.000
  171.37695 |********************                                          0.031
  185.65836 |                                                              0.000
  199.93978 |                                                              0.000
  214.22119 |                                                              0.000
  228.50260 |                                                              0.000
  242.78401 |****************************************                      0.062
  257.06543 |********************                                          0.031
  271.34684 |                                                              0.000
  285.62825 |********************                                          0.031
  299.90966 |****************************************                      0.062
  314.19108 |                                                              0.000
  328.47249 |                                                              0.000
  342.75390 |****************************************                      0.062
  357.03532 |                                                              0.000
  371.31673 |                                                              0.000
  385.59814 |                                                              0.000
  399.87955 |********************                                          0.031
  414.16097 |****************************************                      0.062
  428.44238 |                                                              0.000
  442.72379 |                                                              0.000
  457.00520 |                                                              0.000
  471.28662 |********************                                          0.031
  485.56803 |                                                              0.000
  499.84944 |                                                              0.000
  514.13085 |************************************************************  0.094
  528.41227 |                                                              0.000
  542.69368 |                                                              0.000
  556.97509 |                                                              0.000
  571.25650 |********************                                          0.031
  585.53792 |                                                              0.000
  599.81933 |                                                              0.000
  614.10074 |                                                              0.000
  628.38215 |****************************************                      0.062
  642.66357 |                                                              0.000
  656.94498 |                                                              0.000
  671.22639 |                                                              0.000
  685.50780 |                                                              0.000
  699.78922 |                                                              0.000
  714.07063 |                                                              0.000
  728.35204 |                                                              0.000
  742.63346 |                                                              0.000
  756.91487 |                                                              0.000
  771.19628 |                                                              0.000
  785.47769 |                                                              0.000
  799.75911 |****************************************                      0.062
  814.04052 |                                                              0.000
  828.32193 |                                                              0.000
  842.60334 |                                                              0.000
  856.88476 |                                                              0.000
  871.16617 |                                                              0.000
  885.44758 |                                                              0.000
  899.72899 |********************                                          0.031
--------------------------------------------------------------------------------



  Time to end of optimisation =       0.0320 seconds


  Peak dynamic memory used =       0.65 MB 


  Timing analysis for GULP :

--------------------------------------------------------------------------------
  Task / Subroutine                                          Time (Seconds)
--------------------------------------------------------------------------------
  Calculation of real space energy and derivatives                0.0019
  Calculation of phonons                                          0.0019
  Calculation and manipulation of Hessian matrix                  0.0011
--------------------------------------------------------------------------------
  Total CPU time                                                  0.0320
--------------------------------------------------------------------------------


  Job Finished at 14:40.25 25th May        2022                               

