------------------------------------------------------------
          Invoking FHI-aims ...

          When using FHI-aims, please cite the following reference:

            Volker Blum, Ralf Gehrke, Felix Hanke, Paula Havu,
            Ville Havu, Xinguo Ren, Karsten Reuter, and Matthias Scheffler,
            'Ab Initio Molecular Simulations with Numeric Atom-Centered Orbitals',
            Computer Physics Communications 180, 2175-2196 (2009)

          In addition, many other developments in FHI-aims are likely important for
          your particular application. A partial list of references is given at the end of
          this file. Thank you for giving credit to the authors of these developments.

          For any questions about FHI-aims, please visit our slack channel at

            https://fhi-aims.slack.com

          and our main development and support site at

            https://aims-git.rz-berlin.mpg.de .

          The latter site, in particular, has a wiki to collect information, as well
          as an issue tracker to log discussions, suggest improvements, and report issues
          or bugs. https://aims-git.rz-berlin.mpg.de is also the main development site
          of the project and all new and updated code versions can be obtained there.
          Please send an email to aims-coordinators@fhi-berlin.mpg.de and we will add
          you to these sites. They are for you and everyone is welcome there.

------------------------------------------------------------



  Date     :  20220517, Time     :  112340.108
  Time zero on CPU 1             :   0.411740000000000E-01  s.
  Internal wall clock time zero  :           422018620.108  s.

  FHI-aims created a unique identifier for this run for later identification
  aims_uuid : 092E6BFA-6297-4810-A5F7-5FC003D1310E

  Build configuration of the current instance of FHI-aims
  -------------------------------------------------------
  FHI-aims version      : 210914
  Commit number         : GITDIR-NOTFOUND
  CMake host system     : Linux-3.10.0-693.17.1.el7.x86_64
  CMake version         : 3.21.1
  Fortran compiler      : /shared/ucl/apps/intel/2018.Update3/impi/2018.3.222/intel64/bin/mpiifort (Intel) version 18.0.3.20180410
  Fortran compiler flags: -O3 -ip -fp-model precise
  C compiler            : /shared/ucl/apps/intel/2018.Update3/compilers_and_libraries_2018.3.222/linux/bin/intel64/icc (Intel) version 18.0.3.20180410
  C compiler flags      : -O3 -ip -fp-model precise -std=gnu99
  ELPA2 kernel          : AVX2
  Using MPI
  Using ScaLAPACK
  Using LibXC
  Using i-PI
  Using RLSY
  Linking against: /shared/ucl/apps/intel/2019.Update5/compilers_and_libraries_2019.5.281/linux/mkl/lib/intel64/libmkl_intel_lp64.so
                   /shared/ucl/apps/intel/2019.Update5/compilers_and_libraries_2019.5.281/linux/mkl/lib/intel64/libmkl_sequential.so
                   /shared/ucl/apps/intel/2019.Update5/compilers_and_libraries_2019.5.281/linux/mkl/lib/intel64/libmkl_core.so
                   /shared/ucl/apps/intel/2019.Update5/compilers_and_libraries_2019.5.281/linux/mkl/lib/intel64/libmkl_blacs_intelmpi_lp64.so
                   /shared/ucl/apps/intel/2019.Update5/compilers_and_libraries_2019.5.281/linux/mkl/lib/intel64/libmkl_scalapack_lp64.so

  Using       24 parallel tasks.
  Task        0 on host node-k98a-025 reporting.
  Task        1 on host node-k98a-025 reporting.
  Task        2 on host node-k98a-025 reporting.
  Task        3 on host node-k98a-025 reporting.
  Task        4 on host node-k98a-025 reporting.
  Task        5 on host node-k98a-025 reporting.
  Task        6 on host node-k98a-025 reporting.
  Task        7 on host node-k98a-025 reporting.
  Task        8 on host node-k98a-025 reporting.
  Task        9 on host node-k98a-025 reporting.
  Task       10 on host node-k98a-025 reporting.
  Task       11 on host node-k98a-025 reporting.
  Task       12 on host node-k98a-025 reporting.
  Task       13 on host node-k98a-025 reporting.
  Task       14 on host node-k98a-025 reporting.
  Task       15 on host node-k98a-025 reporting.
  Task       16 on host node-k98a-025 reporting.
  Task       17 on host node-k98a-025 reporting.
  Task       18 on host node-k98a-025 reporting.
  Task       19 on host node-k98a-025 reporting.
  Task       20 on host node-k98a-025 reporting.
  Task       21 on host node-k98a-025 reporting.
  Task       22 on host node-k98a-025 reporting.
  Task       23 on host node-k98a-025 reporting.

  Performing system and environment tests:
  | Environment variable OMP_NUM_THREADS correctly set to 1.
  | Checking for ScaLAPACK...
  | Testing pdtran()...
  | All pdtran() tests passed.

  Obtaining array dimensions for all initial allocations:
  
  -----------------------------------------------------------------------
  Parsing control.in (first pass over file, find array dimensions only).
  The contents of control.in will be repeated verbatim below
  unless switched off by setting 'verbatim_writeout .false.' .
  in the first line of control.in .
  -----------------------------------------------------------------------
  
  #########################################################################################  Physical model
  #########################################################################################
  xc                 pbesol
  spin               none
  relativistic       atomic_zora scalar
  charge             0.0
  #  SCF convergence
  occupation_type    gaussian 0.01
  mixer              pulay
  n_max_pulay        10
  charge_mix_param   0.5
  sc_accuracy_rho    1E-5
  sc_accuracy_eev    1E-3
  sc_accuracy_etot   1E-6
  sc_accuracy_forces 1E-4
  sc_iter_limit      1500
  #  Relaxation
  #relax_geometry   bfgs 1.e-3
  
  ################################################################################
  #
  #  FHI-aims code project
  #  VB, Fritz-Haber Institut, 2009
  #
  #  Suggested "light" defaults for Al atom (to be pasted into control.in file)
  #  Be sure to double-check any results obtained with these settings for post-processing,
  #  e.g., with the "tight" defaults and larger basis sets.
  #
  ################################################################################
    species        Al
  #     global species definitions
      nucleus             13
      mass                26.9815386
  #
      l_hartree           4
  #
      cut_pot             3.5          1.5  1.0
      basis_dep_cutoff    1e-4
  #
      radial_base         41 5.0
      radial_multiplier   1
      angular_grids       specified
        division   0.6594  110
        division   0.8170  194
        division   0.9059  302
  #      division   1.0363  434
  #      division   1.1443  590
  #      division   1.2621  770
  #      division   2.8177  974
  #      outer_grid   974
        outer_grid   302
  ################################################################################
  #
  #  Definition of "minimal" basis
  #
  ################################################################################
  #     valence basis states
      valence      3  s   2.
      valence      3  p   1.
  #     ion occupancy
      ion_occ      3  s   1.
      ion_occ      2  p   6.
  ################################################################################
  #
  #  Suggested additional basis functions. For production calculations,
  #  uncomment them one after another (the most important basis functions are
  #  listed first).
  #
  #  Constructed for dimers: 2.0 A, 2.5 A, 3.0 A, 3.75 A, 4.5 A
  #
  ################################################################################
  #  "First tier" - improvements: -199.47 meV to -10.63 meV
       ionic 3 d auto
       ionic 3 p auto
  #     hydro 4 f 4.7
       ionic 3 s auto
  #  "Second tier" - improvements: -5.35 meV to -1.57 meV
  #     hydro 5 g 7
  #     hydro 3 d 6
  #     hydro 2 s 11.6
  #     hydro 2 p 0.9
  #  "Third tier" - improvements: -0.63 meV to -0.20 meV
  #     hydro 5 f 7.6
  #     hydro 4 p 7.2
  #     hydro 4 s 3.7
  #     hydro 4 d 7.6
  #  "Fourth tier" - improvements: -0.17 meV to -0.08 meV
  #     hydro 4 d 13.6
  #     hydro 5 g 11.2
  #     hydro 4 d 0.9
  #     hydro 1 s 0.4
  #     hydro 4 p 0.1
  #     hydro 5 f 9.8
  #  Further basis functions that fell out of the optimization - noise level...
  #     hydro 4 p 5
  
  ################################################################################
  #
  #  FHI-aims code project
  #  VB, Fritz-Haber Institut, 2009
  #
  #  Suggested "light" defaults for F atom (to be pasted into control.in file)
  #  Be sure to double-check any results obtained with these settings for post-processing,
  #  e.g., with the "tight" defaults and larger basis sets.
  #
  ################################################################################
    species        F
  #     global species definitions
      nucleus             9
      mass                18.9984032
  #
      l_hartree           4
  #
      cut_pot             3.5  1.5  1.0
      basis_dep_cutoff    1e-4
  #
      radial_base         37 5.0
      radial_multiplier   1
      angular_grids specified
        division   0.4014  110
        division   0.5291  194
        division   0.6019  302
  #      division   0.6814  434
  #      division   0.7989  590
  #      division   0.8965  770
  #      division   1.3427  974
  #      outer_grid   974
        outer_grid   302
  ################################################################################
  #
  #  Definition of "minimal" basis
  #
  ################################################################################
  #     valence basis states
      valence      2  s   2.
      valence      2  p   5.
  #     ion occupancy
      ion_occ      2  s   1.
      ion_occ      2  p   4.
  ################################################################################
  #
  #  Suggested additional basis functions. For production calculations,
  #  uncomment them one after another (the most important basis functions are
  #  listed first).
  #
  #  Constructed for dimers: 1.2 A, 1.418 A, 1.75 A, 2.25 A, 3.25 A
  #
  ################################################################################
  #  "First tier" - improvements: -149.44 meV to -45.88 meV
       hydro 2 p 1.7
       hydro 3 d 7.4
       hydro 3 s 6.8
  #  "Second tier" - improvements: -12.96 meV to -1.56 meV
  #     hydro 4 f 11.2
  #     ionic 2 p auto
  #     hydro 1 s 0.75
  #     hydro 4 d 8.8
  #     hydro 5 g 16.8
  #  "Third tier" - improvements: -0.58 meV to -0.05 meV
  #     hydro 3 p 6.2
  #     hydro 3 s 3.2
  #     hydro 4 f 9.6
  #     hydro 3 s 19.6
  #     hydro 4 d 8.6
  #     hydro 5 g 14.4
  # Further basis functions: -0.05 meV and below
  #     hydro 3 p 4.2
  
  -----------------------------------------------------------------------
  Completed first pass over input file control.in .
  -----------------------------------------------------------------------
  
  
  -----------------------------------------------------------------------
  Parsing geometry.in (first pass over file, find array dimensions only).
  The contents of geometry.in will be repeated verbatim below
  unless switched off by setting 'verbatim_writeout .false.' .
  in the first line of geometry.in .
  -----------------------------------------------------------------------
  
  atom 0.372523795 -0.599021078 1.743749117 Al
  atom 2.337197763 -1.782529054 -0.533619490 Al
  atom -0.909517582 -1.836997140 -0.982151536 Al
  atom 3.390568111 -0.363494393 -0.989211603 F
  atom -1.878061451 -0.699028889 -2.028828021 F
  atom 2.843566587 -3.533059877 -0.669319992 F
  atom -1.173933573 -3.640477385 -0.868588669 F
  atom 1.808594396 -1.637784532 1.231790200 F
  atom 0.813219164 -1.508731682 -1.491982065 F
  atom 0.022025151 -1.173477441 3.430610681 F
  atom 0.662240179 1.138443766 1.235879272 F
  atom -1.045144269 -1.231087721 0.748438412 F
  
  -----------------------------------------------------------------------
  Completed first pass over input file geometry.in .
  -----------------------------------------------------------------------
  

  Basic array size parameters:
  | Number of species                 :        2
  | Number of atoms                   :       12
  | Max. basis fn. angular momentum   :        2
  | Max. atomic/ionic basis occupied n:        3
  | Max. number of basis fn. types    :        3
  | Max. radial fns per species/type  :        5
  | Max. logarithmic grid size        :     1340
  | Max. radial integration grid size :       41
  | Max. angular integration grid size:      302
  | Max. angular grid division number :        8
  | Radial grid for Hartree potential :     1340
  | Number of spin channels           :        1

------------------------------------------------------------
          Reading file control.in.
------------------------------------------------------------
  XC: Using PBEsol gradient-corrected functionals.
  Spin treatment: No spin polarisation.
  Scalar relativistic treatment of kinetic energy: on-site free-atom approximation to ZORA.
  Charge =   0.000000E+00: Neutral system requested explicitly.
  Occupation type: Gaussian broadening, width =   0.100000E-01 eV.
  Using pulay charge density mixing.
  Pulay mixing - number of memorized iterations:   10
  Charge density mixing - mixing parameter:     0.5000
  Convergence accuracy of self-consistent charge density:  0.1000E-04
  Convergence accuracy of sum of eigenvalues:  0.1000E-02
  Convergence accuracy of total energy:  0.1000E-05
  Convergence accuracy of forces:  0.1000E-03
  Maximum number of s.-c. iterations  :  1500
 
  Reading configuration options for species Al                  .
  | Found nuclear charge :  13.0000
  | Found atomic mass :    26.9815386000000      amu
  | Found l_max for Hartree potential  :   4
  | Found cutoff potl. onset [A], width [A], scale factor :    3.50000    1.50000    1.00000
  | Threshold for basis-dependent cutoff potential is   0.100000E-03
  | Found data for basic radial integration grid :    41 points, outermost radius =    5.000 A
  | Found multiplier for basic radial grid :   1
  | Found angular grid specification: user-specified.
  | Specified grid contains     4 separate shells.
  | Check grid settings after all constraints further below.
  | Found free-atom valence shell :  3 s   2.000
  | Found free-atom valence shell :  3 p   1.000
  | Found free-ion valence shell :  3 s   1.000
  | Found free-ion valence shell :  2 p   6.000
  | Found ionic basis function :  3 d , default cutoff radius.
  | Found ionic basis function :  3 p , default cutoff radius.
  | Found ionic basis function :  3 s , default cutoff radius.
  Species Al                  : Missing cutoff potential type.
  Defaulting to exp(1/x)/(1-x)^2 type cutoff potential.
  Species Al: No 'logarithmic' tag. Using default grid for free atom:
  | Default logarithmic grid data [bohr] : 0.1000E-03 0.1000E+03 0.1012E+01
  | Will include ionic basis functions of  2.0-fold positive Al                   ion.
  Species Al: On-site basis accuracy parameter (for Gram-Schmidt orthonormalisation) not specified.
  Using default value basis_acc =  0.1000000E-03.
  Species Al                  : Using default innermost maximum threshold i_radial=  2 for radial functions.
  Species Al                  : Default cutoff onset for free atom density etc. : 0.35000000E+01 AA.
  Species Al                  : Basic radial grid will be enhanced according to radial_multiplier =   1, to contain    41 grid points.
 
  Reading configuration options for species F                   .
  | Found nuclear charge :   9.0000
  | Found atomic mass :    18.9984032000000      amu
  | Found l_max for Hartree potential  :   4
  | Found cutoff potl. onset [A], width [A], scale factor :    3.50000    1.50000    1.00000
  | Threshold for basis-dependent cutoff potential is   0.100000E-03
  | Found data for basic radial integration grid :    37 points, outermost radius =    5.000 A
  | Found multiplier for basic radial grid :   1
  | Found angular grid specification: user-specified.
  | Specified grid contains     4 separate shells.
  | Check grid settings after all constraints further below.
  | Found free-atom valence shell :  2 s   2.000
  | Found free-atom valence shell :  2 p   5.000
  | Found free-ion valence shell :  2 s   1.000
  | Found free-ion valence shell :  2 p   4.000
  | Found hydrogenic basis function :  2 p   1.700
  | Found hydrogenic basis function :  3 d   7.400
  | Found hydrogenic basis function :  3 s   6.800
  Species F                   : Missing cutoff potential type.
  Defaulting to exp(1/x)/(1-x)^2 type cutoff potential.
  Species F : No 'logarithmic' tag. Using default grid for free atom:
  | Default logarithmic grid data [bohr] : 0.1000E-03 0.1000E+03 0.1012E+01
  Species F : On-site basis accuracy parameter (for Gram-Schmidt orthonormalisation) not specified.
  Using default value basis_acc =  0.1000000E-03.
  Species F                   : Using default innermost maximum threshold i_radial=  2 for radial functions.
  Species F                   : Default cutoff onset for free atom density etc. : 0.35000000E+01 AA.
  Species F                   : Basic radial grid will be enhanced according to radial_multiplier =   1, to contain    37 grid points.
 
  Finished reading input file 'control.in'.
 
------------------------------------------------------------


------------------------------------------------------------
          Reading geometry description geometry.in.
------------------------------------------------------------
  | The smallest distance between any two atoms is         1.81613638 AA.
  | The first atom of this pair is atom number                      1 .
  | The second atom of this pair is atom number                    10 .
  Input structure read successfully.
  The structure contains       12 atoms,  and a total of        120.000 electrons.

  Input geometry:
  | No unit cell requested.
  | Atomic structure:
  |       Atom                x [A]            y [A]            z [A]
  |    1: Species Al            0.37252379       -0.59902108        1.74374912
  |    2: Species Al            2.33719776       -1.78252905       -0.53361949
  |    3: Species Al           -0.90951758       -1.83699714       -0.98215154
  |    4: Species F             3.39056811       -0.36349439       -0.98921160
  |    5: Species F            -1.87806145       -0.69902889       -2.02882802
  |    6: Species F             2.84356659       -3.53305988       -0.66931999
  |    7: Species F            -1.17393357       -3.64047739       -0.86858867
  |    8: Species F             1.80859440       -1.63778453        1.23179020
  |    9: Species F             0.81321916       -1.50873168       -1.49198206
  |   10: Species F             0.02202515       -1.17347744        3.43061068
  |   11: Species F             0.66224018        1.13844377        1.23587927
  |   12: Species F            -1.04514427       -1.23108772        0.74843841

 
  Finished reading input file 'control.in'.
 

------------------------------------------------------------
          Reading geometry description geometry.in.
------------------------------------------------------------
 
  Consistency checks for stacksize environment parameter are next.
 
  | Maximum stacksize for task 0: unlimited
  | Maximum stacksize for task 1: unlimited
  | Maximum stacksize for task 2: unlimited
  | Maximum stacksize for task 3: unlimited
  | Maximum stacksize for task 4: unlimited
  | Maximum stacksize for task 5: unlimited
  | Maximum stacksize for task 6: unlimited
  | Maximum stacksize for task 7: unlimited
  | Maximum stacksize for task 8: unlimited
  | Maximum stacksize for task 9: unlimited
  | Maximum stacksize for task 10: unlimited
  | Maximum stacksize for task 11: unlimited
  | Maximum stacksize for task 12: unlimited
  | Maximum stacksize for task 13: unlimited
  | Maximum stacksize for task 14: unlimited
  | Maximum stacksize for task 15: unlimited
  | Maximum stacksize for task 16: unlimited
  | Maximum stacksize for task 17: unlimited
  | Maximum stacksize for task 18: unlimited
  | Maximum stacksize for task 19: unlimited
  | Maximum stacksize for task 20: unlimited
  | Maximum stacksize for task 21: unlimited
  | Maximum stacksize for task 22: unlimited
  | Maximum stacksize for task 23: unlimited
  | Current stacksize for task 0: unlimited
  | Current stacksize for task 1: unlimited
  | Current stacksize for task 2: unlimited
  | Current stacksize for task 3: unlimited
  | Current stacksize for task 4: unlimited
  | Current stacksize for task 5: unlimited
  | Current stacksize for task 6: unlimited
  | Current stacksize for task 7: unlimited
  | Current stacksize for task 8: unlimited
  | Current stacksize for task 9: unlimited
  | Current stacksize for task 10: unlimited
  | Current stacksize for task 11: unlimited
  | Current stacksize for task 12: unlimited
  | Current stacksize for task 13: unlimited
  | Current stacksize for task 14: unlimited
  | Current stacksize for task 15: unlimited
  | Current stacksize for task 16: unlimited
  | Current stacksize for task 17: unlimited
  | Current stacksize for task 18: unlimited
  | Current stacksize for task 19: unlimited
  | Current stacksize for task 20: unlimited
  | Current stacksize for task 21: unlimited
  | Current stacksize for task 22: unlimited
  | Current stacksize for task 23: unlimited
 
  Consistency checks for the contents of control.in are next.
 
  MPI_IN_PLACE appears to work with this MPI implementation.
  | Keeping use_mpi_in_place .true. (see manual).
  Target number of points in a grid batch is not set. Defaulting to  100
  Method for grid partitioning is not set. Defaulting to parallel hash+maxmin partitioning.
  Batch size limit is not set. Defaulting to    200
  By default, will store active basis functions for each batch.
  If in need of memory, prune_basis_once .false. can be used to disable this option.
  communication_type for Hartree potential was not specified.
  Defaulting to calc_hartree .
  Pulay mixer: Number of initial linear mixing iterations not set.
  Defaulting to    0 iterations.
  Work space size for distributed Hartree potential not set.
  Defaulting to   0.200000E+03 MB.
  Algorithm-dependent basis array size parameters:
  | n_max_pulay                         :       10
  Presetting      1001 iterations before the initial mixing cycle
  is restarted anyway using the sc_init_iter criterion / keyword.
  Presetting a factor      1.000 between actual scf density residual
  and density convergence criterion sc_accuracy_rho below which sc_init_iter
  takes no effect.
  Geometry relaxation not requested: no relaxation will be performed.
  Forces evaluation will include force correction term due to incomplete self-consistency (default).
  Handling of forces: Unphysical translation and rotation will be removed from forces.
  No accuracy limit for integral partition fn. given. Defaulting to  0.1000E-14.
  No threshold value for u(r) in integrations given. Defaulting to  0.1000E-05.
  No accuracy for occupation numbers given. Defaulting to  0.1000E-12.
  No threshold value for occupation numbers given. Defaulting to  0.0000E+00.
  No accuracy for fermi level given. Defaulting to  0.1000E-19.
  Maximum # of iterations to find E_F not set. Defaulting to  200.
  Preferred method for the eigenvalue solver ('KS_method') not specified in 'control.in'.
  Calling BLACS routine to test compilation state
  Since ScaLAPACK support is enabled, defaulting to ELPA (via ELSI).
  Will not use alltoall communication since running on < 1024 CPUs.
  Threshold for basis singularities not set.
  Default threshold for basis singularities:  0.1000E-04
  partition_type (choice of integration weights) for integrals was not specified.
  | Using a version of the partition function of Stratmann and coworkers ('stratmann_sparse').
  | At each grid point, the set of atoms used to build the partition table is smoothly restricted to
  | only those atoms whose free-atom density would be non-zero at that grid point.
  Partitioning for Hartree potential was not defined. Using partition_type for integrals.
  | Adjusted default value of keyword multip_moments_threshold to:       0.10000000E-11
  | This value may affect high angular momentum components of the Hartree potential in periodic systems.
  No q(lm)/r^(l+1) cutoff set for long-range Hartree potential.
  | Using default value of  0.100000E-09 .
  | Verify using the multipole_threshold keyword.
  Defaulting to new monopole extrapolation.
  Density update method: automatic selection selected.
  Charge integration errors on the 3D integration grid will be compensated
  by explicit normalization and distribution of residual charges.
  Use the "compensate_multipole_errors" flag to change this behaviour.
  Set 'collect_eigenvectors' to be '.true.' for use_density_matrix .false.
 
  Consistency checks for the contents of geometry.in are next.
 
  Number of empty states per atom not set in control.in - providing a guess from actual geometry.
  | Total number of empty states used during s.c.f. cycle:       36
  If you use a very high smearing, use empty_states (per atom!) in control.in to increase this value.

  Structure-dependent array size parameters: 
  | Maximum number of distinct radial functions  :       14
  | Maximum number of basis functions            :      180
  | Number of Kohn-Sham states (occupied + empty):       96
------------------------------------------------------------

------------------------------------------------------------
          Preparing all fixed parts of the calculation.
------------------------------------------------------------
  Determining machine precision:
    2.225073858507201E-308
  Setting up grids for atomic and cluster calculations.

  Creating wave function, potential, and density for free atoms.

  Species: Al

  List of occupied orbitals and eigenvalues:
    n    l              occ      energy [Ha]    energy [eV]
    1    0           2.0000       -55.621123     -1513.5278
    2    0           2.0000        -3.957030      -107.6763
    3    0           2.0000        -0.272233        -7.4078
    2    1           6.0000        -2.540949       -69.1427
    3    1           1.0000        -0.083300        -2.2667


  Species: F

  List of occupied orbitals and eigenvalues:
    n    l              occ      energy [Ha]    energy [eV]
    1    0           2.0000       -24.399611      -663.9472
    2    0           2.0000        -1.098702       -29.8972
    2    1           5.0000        -0.408210       -11.1080


  Adding cutoff potential to free-atom effective potential.
  Creating fixed part of basis set: Ionic, confined, hydrogenic.
 
  Al                   ion:

  List of free ionic orbitals and eigenvalues:
    n    l      energy [Ha]    energy [eV]
    1    0       -56.418846     -1535.2349
    2    0        -4.732717      -128.7838
    3    0        -0.872690       -23.7471
    2    1        -3.317230       -90.2664


  List of ionic basis orbitals and eigenvalues:
    n    l      energy [Ha]    energy [eV]    outer radius [A]
    3    2        -0.346815        -9.4373       4.594041
    3    1        -0.631870       -17.1940       4.538221
    3    0        -0.872657       -23.7462       4.538221

 
  F                    hydrogenic:
 
  List of hydrogenic basis orbitals: 
    n    l      effective z      eigenvalue [eV]  inner max. [A]     outer max. [A]     outer radius [A]   
    2    1         1.700000        -9.7616           1.243167           1.243167           4.598524
    3    2         7.400000       -82.7828           0.642437           0.642437           3.305741
    3    0         6.800000       -69.9026           0.057798           1.022307           3.781556
 
  Creating atomic-like basis functions for current effective potential.

  Species Al                  :

  List of atomic basis orbitals and eigenvalues:
    n    l      energy [Ha]    energy [eV]    outer radius [A]
    1    0       -55.621123     -1513.5278       0.850197
    2    0        -3.957030      -107.6763       3.144911
    3    0        -0.272233        -7.4078       4.594041
    2    1        -2.540949       -69.1427       3.731966
    3    1        -0.083300        -2.2667       4.594041


  Species F                   :

  List of atomic basis orbitals and eigenvalues:
    n    l      energy [Ha]    energy [eV]    outer radius [A]
    1    0       -24.399611      -663.9472       1.258458
    2    0        -1.098702       -29.8972       4.325857
    2    1        -0.408210       -11.1080       4.487453

  Assembling full basis from fixed parts.
  | Species Al :   atomic orbital   1 s accepted.
  | Species Al :   atomic orbital   2 s accepted.
  | Species Al :    ionic orbital   3 s accepted.
  | Species Al :   atomic orbital   3 s accepted.
  | Species Al :   atomic orbital   2 p accepted.
  | Species Al :    ionic orbital   3 p accepted.
  | Species Al :   atomic orbital   3 p accepted.
  | Species Al :    ionic orbital   3 d accepted.
  | Species F :   atomic orbital   1 s accepted.
  | Species F :    hydro orbital   3 s accepted.
  | Species F :   atomic orbital   2 s accepted.
  | Species F :   atomic orbital   2 p accepted.
  | Species F :    hydro orbital   2 p accepted.
  | Species F :    hydro orbital   3 d accepted.
 
  Basis size parameters after reduction:
  | Total number of radial functions:       14
  | Total number of basis functions :      180
 
  Per-task memory consumption for arrays in subroutine allocate_ext:
  |           4.807768MB.
  Testing on-site integration grid accuracy.
  |  Species  Function  <phi|h_atom|phi> (log., in eV)  <phi|h_atom|phi> (rad., in eV)
           1        1              -1513.5277717935              -1513.5271881332
           1        2               -107.6762691836               -107.6762662489
           1        3                 -6.9467474784                 -6.9471269649
           1        4                  5.5771951849                  5.4862107220 ***
           1        5                -69.1427313144                -69.1427312731
           1        6                 -1.5197375330                 -1.5230432022
           1        7                  6.8210948310                  6.5529872240 ***
           1        8                  4.3216540965                  4.2851170187 ***
           2        9               -663.9471986398               -663.9470363334
           2       10                 16.8514011578                 16.8512525338
           2       11                -28.4490593856                -28.4490661472
           2       12                -11.1080115307                -11.1080620173
           2       13                  7.1940182175                  7.1685154137
           2       14                 44.8544281765                 44.8543763625
 * Note: Onsite integrals marked "***" above are less accurate than
 * onsite_accuracy_threshold =    0.03000 eV. Usually, this is harmless.
 * When in doubt, tighten the "radial" and/or "radial_multiplier" flags to check.

  Preparing densities etc. for the partition functions (integrals / Hartree potential).

  Preparations completed.
  max(cpu_time)          :      0.184 s.
  Wall clock time (cpu1) :      0.184 s.
------------------------------------------------------------

------------------------------------------------------------
          Begin self-consistency loop: Initialization.

          Date     :  20220517, Time     :  112340.336
------------------------------------------------------------

  Initializing index lists of integration centers etc. from given atomic structure:
  | Number of centers in hartree potential         :        12
  | Number of centers in hartree multipole         :        12
  | Number of centers in electron density summation:        12
  | Number of centers in basis integrals           :        12
  | Number of centers in integrals                 :        12
  | Number of centers in hamiltonian               :        12
  * Using 24 tasks for Scalapack Eigenvalue solver.
  Detailed listing of tasks and assigned k-points:
  (for non-periodic systems, the "k-point" denotes an internal label only)
   Task     0 k-point     1 on node-k98a-025
   Task     1 k-point     1 on node-k98a-025
   Task     2 k-point     1 on node-k98a-025
   Task     3 k-point     1 on node-k98a-025
   Task     4 k-point     1 on node-k98a-025
   Task     5 k-point     1 on node-k98a-025
   Task     6 k-point     1 on node-k98a-025
   Task     7 k-point     1 on node-k98a-025
   Task     8 k-point     1 on node-k98a-025
   Task     9 k-point     1 on node-k98a-025
   Task    10 k-point     1 on node-k98a-025
   Task    11 k-point     1 on node-k98a-025
   Task    12 k-point     1 on node-k98a-025
   Task    13 k-point     1 on node-k98a-025
   Task    14 k-point     1 on node-k98a-025
   Task    15 k-point     1 on node-k98a-025
   Task    16 k-point     1 on node-k98a-025
   Task    17 k-point     1 on node-k98a-025
   Task    18 k-point     1 on node-k98a-025
   Task    19 k-point     1 on node-k98a-025
   Task    20 k-point     1 on node-k98a-025
   Task    21 k-point     1 on node-k98a-025
   Task    22 k-point     1 on node-k98a-025
   Task    23 k-point     1 on node-k98a-025
  Tasks:    24 split into      6 X      4 BLACS grid
  Calculating block size based on n_basis =          180  max_nprow =            6  max_npcol =            4
  ScaLAPACK block size set to:           16
  Allocating        0.012 MB for ovlp
  Allocating        0.012 MB for ham
  Allocating        0.012 MB for eigenvec
  Required Scalapack workspace - INTEGER:            1  REAL:             1
  Partitioning the integration grid into batches with parallel hashing+maxmin method.
  | Number of batches:     1032
  | Maximal batch size:     179
  | Minimal batch size:      24
  | Average batch size:      89.070
  | Standard deviation of batch sizes:      24.536

  Integration load balanced across    24 MPI tasks.
  Work distribution over tasks is as follows:
  Task     0 has       3854 integration points.
  Task     1 has       3832 integration points.
  Task     2 has       3783 integration points.
  Task     3 has       3936 integration points.
  Task     4 has       3825 integration points.
  Task     5 has       3926 integration points.
  Task     6 has       3829 integration points.
  Task     7 has       3768 integration points.
  Task     8 has       3773 integration points.
  Task     9 has       3791 integration points.
  Task    10 has       3767 integration points.
  Task    11 has       3761 integration points.
  Task    12 has       3853 integration points.
  Task    13 has       3840 integration points.
  Task    14 has       3928 integration points.
  Task    15 has       3828 integration points.
  Task    16 has       3837 integration points.
  Task    17 has       3857 integration points.
  Task    18 has       3765 integration points.
  Task    19 has       3823 integration points.
  Task    20 has       3815 integration points.
  Task    21 has       3769 integration points.
  Task    22 has       3831 integration points.
  Task    23 has       3929 integration points.
  Initializing partition tables, free-atom densities, potentials, etc. across the integration grid (initialize_grid_storage).
  | initialize_grid_storage: Actual outermost partition radius vs. multipole_radius_free
  | (-- VB: in principle, multipole_radius_free should be larger, hence this output)
  | Species        1: Confinement radius =              4.999999999999999 AA, multipole_radius_free =              5.004487022111096 AA.
  | Species        1: outer_partition_radius set to              5.004487022111096 AA .
  | Species        2: Confinement radius =              4.999999999999999 AA, multipole_radius_free =              5.009370088163274 AA.
  | Species        2: outer_partition_radius set to              5.009370088163274 AA .
  | The sparse table of interatomic distances needs          1.64 kbyte instead of         1.15 kbyte of memory.
  | Using the partition_type stratmann_smoother will reduce your memory usage.
  | Net number of integration points:    91920
  | of which are non-zero points    :    85861
  Renormalizing the initial density to the exact electron count on the 3D integration grid.
  | Initial density: Formal number of electrons (from input files) :     120.0000000000
  | Integrated number of electrons on 3D grid     :     119.9998313274
  | Charge integration error                      :      -0.0001686726
  | Normalization factor for density and gradient :       1.0000014056
  Renormalizing the free-atom superposition density to the exact electron count on the 3D integration grid.
  | Formal number of electrons (from input files) :     120.0000000000
  | Integrated number of electrons on 3D grid     :     119.9998313274
  | Charge integration error                      :      -0.0001686726
  | Normalization factor for density and gradient :       1.0000014056
  Obtaining max. number of non-zero basis functions in each batch (get_n_compute_maxes).
  | Maximal number of non-zero basis functions:      165 in task     0
  | Maximal number of non-zero basis functions:      165 in task     1
  | Maximal number of non-zero basis functions:      159 in task     2
  | Maximal number of non-zero basis functions:      163 in task     3
  | Maximal number of non-zero basis functions:      163 in task     4
  | Maximal number of non-zero basis functions:      171 in task     5
  | Maximal number of non-zero basis functions:      159 in task     6
  | Maximal number of non-zero basis functions:      170 in task     7
  | Maximal number of non-zero basis functions:      170 in task     8
  | Maximal number of non-zero basis functions:      164 in task     9
  | Maximal number of non-zero basis functions:      164 in task    10
  | Maximal number of non-zero basis functions:      165 in task    11
  | Maximal number of non-zero basis functions:      166 in task    12
  | Maximal number of non-zero basis functions:      171 in task    13
  | Maximal number of non-zero basis functions:      171 in task    14
  | Maximal number of non-zero basis functions:      171 in task    15
  | Maximal number of non-zero basis functions:      166 in task    16
  | Maximal number of non-zero basis functions:      170 in task    17
  | Maximal number of non-zero basis functions:      166 in task    18
  | Maximal number of non-zero basis functions:      164 in task    19
  | Maximal number of non-zero basis functions:      166 in task    20
  | Maximal number of non-zero basis functions:      165 in task    21
  | Maximal number of non-zero basis functions:      170 in task    22
  | Maximal number of non-zero basis functions:      164 in task    23
  Selecting the method for density update.
  Loop over occupied states selected for charge density update.
  Allocating        0.132 MB for KS_eigenvector
  Integrating Hamiltonian matrix: batch-based integration.
  Time summed over all CPUs for integration: real work        0.725 s, elapsed        0.770 s
  Integrating overlap matrix.
  Time summed over all CPUs for integration: real work        0.277 s, elapsed        0.289 s
  Deallocating overlap matrix.

  Updating Kohn-Sham eigenvalues and eigenvectors using ELSI and the ELPA eigensolver.
  Overlap matrix is not singular
  | Lowest and highest eigenvalues :  0.4174E-02,  0.5142E+01
  Finished singularity check of overlap matrix
  | Time :     0.004 s
  Starting ELPA eigensolver
  Finished Cholesky decomposition
  | Time :     0.001 s
  Finished transformation to standard eigenproblem
  | Time :     0.001 s
  Finished solving standard eigenproblem
  | Time :     0.004 s
  Finished back-transformation of eigenvectors
  | Time :     0.000 s

  Obtaining occupation numbers and chemical potential using ELSI.
  | Chemical potential (Fermi level):    -7.77911310 eV
  Writing Kohn-Sham eigenvalues.

  State    Occupation    Eigenvalue [Ha]    Eigenvalue [eV]
      1       2.00000         -55.483322        -1509.77801
      2       2.00000         -55.483315        -1509.77782
      3       2.00000         -55.483242        -1509.77584
      4       2.00000         -24.377890         -663.35615
      5       2.00000         -24.373889         -663.24727
      6       2.00000         -24.372742         -663.21605
      7       2.00000         -24.340563         -662.34042
      8       2.00000         -24.339601         -662.31425
      9       2.00000         -24.339529         -662.31229
     10       2.00000         -24.339387         -662.30841
     11       2.00000         -24.339269         -662.30521
     12       2.00000         -24.338609         -662.28725
     13       2.00000          -3.948499         -107.44412
     14       2.00000          -3.948482         -107.44365
     15       2.00000          -3.948359         -107.44031
     16       2.00000          -2.540765          -69.13774
     17       2.00000          -2.540752          -69.13738
     18       2.00000          -2.540705          -69.13611
     19       2.00000          -2.540348          -69.12638
     20       2.00000          -2.540258          -69.12395
     21       2.00000          -2.540182          -69.12187
     22       2.00000          -2.540105          -69.11978
     23       2.00000          -2.540032          -69.11779
     24       2.00000          -2.539993          -69.11672
     25       2.00000          -1.204311          -32.77097
     26       2.00000          -1.197098          -32.57468
     27       2.00000          -1.194354          -32.50004
     28       2.00000          -1.149268          -31.27319
     29       2.00000          -1.148565          -31.25403
     30       2.00000          -1.148200          -31.24411
     31       2.00000          -1.146383          -31.19467
     32       2.00000          -1.146237          -31.19071
     33       2.00000          -1.145900          -31.18152
     34       2.00000          -0.577863          -15.72446
     35       2.00000          -0.571890          -15.56191
     36       2.00000          -0.550263          -14.97342
     37       2.00000          -0.536665          -14.60341
     38       2.00000          -0.512577          -13.94792
     39       2.00000          -0.503534          -13.70187
     40       2.00000          -0.500375          -13.61590
     41       2.00000          -0.498639          -13.56865
     42       2.00000          -0.494204          -13.44797
     43       2.00000          -0.492857          -13.41132
     44       2.00000          -0.492128          -13.39148
     45       2.00000          -0.490658          -13.35147
     46       2.00000          -0.480971          -13.08789
     47       2.00000          -0.479407          -13.04532
     48       2.00000          -0.476502          -12.96627
     49       2.00000          -0.455082          -12.38342
     50       2.00000          -0.454204          -12.35953
     51       2.00000          -0.453936          -12.35223
     52       2.00000          -0.451715          -12.29180
     53       2.00000          -0.451460          -12.28486
     54       2.00000          -0.449760          -12.23860
     55       2.00000          -0.449162          -12.22231
     56       2.00000          -0.448118          -12.19390
     57       2.00000          -0.447657          -12.18137
     58       2.00000          -0.446930          -12.16158
     59       2.00000          -0.446360          -12.14606
     60       2.00000          -0.445992          -12.13606
     61       0.00000          -0.139823           -3.80477
     62       0.00000          -0.082834           -2.25404
     63       0.00000          -0.081910           -2.22890
     64       0.00000          -0.026251           -0.71432
     65       0.00000          -0.011621           -0.31622
     66       0.00000          -0.003341           -0.09092
     67       0.00000          -0.001564           -0.04257
     68       0.00000           0.038471            1.04685
     69       0.00000           0.050649            1.37822
     70       0.00000           0.053058            1.44378
     71       0.00000           0.078855            2.14575
     72       0.00000           0.081967            2.23045
     73       0.00000           0.137464            3.74060
     74       0.00000           0.161349            4.39054
     75       0.00000           0.163130            4.43898
     76       0.00000           0.182501            4.96610
     77       0.00000           0.184412            5.01812
     78       0.00000           0.189851            5.16611
     79       0.00000           0.195985            5.33301
     80       0.00000           0.200290            5.45017
     81       0.00000           0.205603            5.59473
     82       0.00000           0.212822            5.79117
     83       0.00000           0.214453            5.83556
     84       0.00000           0.227205            6.18257
     85       0.00000           0.240533            6.54525
     86       0.00000           0.250598            6.81913
     87       0.00000           0.274778            7.47708
     88       0.00000           0.294311            8.00860
     89       0.00000           0.297696            8.10073
     90       0.00000           0.302833            8.24051
     91       0.00000           0.303766            8.26589
     92       0.00000           0.317738            8.64608
     93       0.00000           0.345823            9.41033
     94       0.00000           0.350998            9.55115
     95       0.00000           0.355501            9.67369
     96       0.00000           0.368638           10.03115

  Highest occupied state (VBM) at    -12.13606446 eV
  | Occupation number:      2.00000000

  Lowest unoccupied state (CBM) at    -3.80477381 eV
  | Occupation number:      0.00000000

  Overall HOMO-LUMO gap:      8.33129065 eV.
  Calculating total energy contributions from superposition of free atom densities.

  Total energy components:
  | Sum of eigenvalues            :        -887.71813160 Ha      -24156.03940669 eV
  | XC energy correction          :        -144.31547270 Ha       -3927.02381692 eV
  | XC potential correction       :         187.90627916 Ha        5113.19001230 eV
  | Free-atom electrostatic energy:        -781.25517158 Ha      -21259.03486638 eV
  | Hartree energy correction     :           0.00000000 Ha           0.00000000 eV
  | Entropy correction            :           0.00000000 Ha           0.00000000 eV
  | ---------------------------
  | Total energy                  :       -1625.38249672 Ha      -44228.90807769 eV
  | Total energy, T -> 0          :       -1625.38249672 Ha      -44228.90807769 eV  <-- do not rely on this value for anything but (periodic) metals
  | Electronic free energy        :       -1625.38249672 Ha      -44228.90807769 eV

  Derived energy quantities:
  | Kinetic energy                :        1627.54858337 Ha       44287.85029462 eV
  | Electrostatic energy          :       -3108.61560739 Ha      -84589.73455539 eV
  | Energy correction for multipole
  | error in Hartree potential    :           0.00000000 Ha           0.00000000 eV
  | Sum of eigenvalues per atom                           :       -2013.00328389 eV
  | Total energy (T->0) per atom                          :       -3685.74233981 eV  <-- do not rely on this value for anything but (periodic) metals
  | Electronic free energy per atom                       :       -3685.74233981 eV
  Initialize hartree_potential_storage
  Max. number of atoms included in rho_multipole:           12

  End scf initialization - timings             :  max(cpu_time)    wall_clock(cpu1)
  | Time for scf. initialization                :        0.116 s           0.116 s
  | Boundary condition initialization           :        0.000 s           0.000 s
  | Integration                                 :        0.046 s           0.045 s
  | Solution of K.-S. eqns.                     :        0.011 s           0.011 s
  | Grid partitioning                           :        0.036 s           0.036 s
  | Preloading free-atom quantities on grid     :        0.016 s           0.017 s
  | Free-atom superposition energy              :        0.005 s           0.005 s
  | Total energy evaluation                     :        0.000 s           0.000 s

  Partial memory accounting:
  | Current value for overall tracked memory usage:
  |   Minimum:        0.273 MB (on task 23)
  |   Maximum:        0.292 MB (on task  0)
  |   Average:        0.287 MB
  | Peak value for overall tracked memory usage:
  |   Minimum:        1.264 MB (on task  2 after allocating wave)
  |   Maximum:        1.344 MB (on task  5 after allocating wave)
  |   Average:        1.307 MB
  | Largest tracked array allocation so far:
  |   Minimum:        0.217 MB (H_times_psi on task  2)
  |   Maximum:        0.489 MB (all_coords on task 10)
  |   Average:        0.257 MB
  Note:  These values currently only include a subset of arrays which are explicitly tracked.
  The "true" memory usage will be greater.
------------------------------------------------------------
  Evaluating new KS density.
  Integration grid: deviation in total charge (<rho> - N_e) =   1.421085E-14

  Time for density update prior                :  max(cpu_time)    wall_clock(cpu1)
  | self-consistency iterative process          :        0.028 s           0.028 s

------------------------------------------------------------
          Begin self-consistency iteration #    1

  Date     :  20220517, Time     :  112340.480
------------------------------------------------------------
  Pulay mixing of updated and previous charge densities.
  Renormalizing the density to the exact electron count on the 3D integration grid.
  | Formal number of electrons (from input files) :     120.0000000000
  | Integrated number of electrons on 3D grid     :     120.0000000000
  | Charge integration error                      :      -0.0000000000
  | Normalization factor for density and gradient :       1.0000000000

  Evaluating partitioned Hartree potential by multipole expansion.
  | Original multipole sum: apparent total charge =  -0.403149E-13
  | Sum of charges compensated after spline to logarithmic grids =   0.106969E-03
  | Analytical far-field extrapolation by fixed multipoles:
  | Hartree multipole sum: apparent total charge =  -0.397738E-13
  Summing up the Hartree potential.
  Time summed over all CPUs for potential: real work        0.382 s, elapsed        0.393 s
  | RMS charge density error from multipole expansion :   0.104424E-01

  Integrating Hamiltonian matrix: batch-based integration.
  Time summed over all CPUs for integration: real work        0.675 s, elapsed        0.713 s

  Updating Kohn-Sham eigenvalues and eigenvectors using ELSI and the ELPA eigensolver.
  Starting ELPA eigensolver
  Finished transformation to standard eigenproblem
  | Time :     0.001 s
  Finished solving standard eigenproblem
  | Time :     0.003 s
  Finished back-transformation of eigenvectors
  | Time :     0.000 s

  Obtaining occupation numbers and chemical potential using ELSI.
  | Chemical potential (Fermi level):    -7.73065340 eV
  Writing Kohn-Sham eigenvalues.

  State    Occupation    Eigenvalue [Ha]    Eigenvalue [eV]
      1       2.00000         -55.651684        -1514.35938
      2       2.00000         -55.649222        -1514.29238
      3       2.00000         -55.648898        -1514.28356
      4       2.00000         -24.282532         -660.76131
      5       2.00000         -24.274645         -660.54671
      6       2.00000         -24.272150         -660.47881
      7       2.00000         -24.080992         -655.27714
      8       2.00000         -24.075689         -655.13282
      9       2.00000         -24.071397         -655.01605
     10       2.00000         -24.071003         -655.00531
     11       2.00000         -24.070551         -654.99303
     12       2.00000         -24.069276         -654.95832
     13       2.00000          -4.091474         -111.33468
     14       2.00000          -4.089320         -111.27607
     15       2.00000          -4.089002         -111.26740
     16       2.00000          -2.684973          -73.06184
     17       2.00000          -2.684880          -73.05930
     18       2.00000          -2.682892          -73.00519
     19       2.00000          -2.682715          -73.00038
     20       2.00000          -2.682541          -72.99566
     21       2.00000          -2.682475          -72.99386
     22       2.00000          -2.682432          -72.99269
     23       2.00000          -2.680249          -72.93329
     24       2.00000          -2.679912          -72.92411
     25       2.00000          -1.204500          -32.77611
     26       2.00000          -1.193310          -32.47161
     27       2.00000          -1.189401          -32.36524
     28       2.00000          -1.026629          -27.93598
     29       2.00000          -1.022910          -27.83480
     30       2.00000          -1.020050          -27.75699
     31       2.00000          -1.017996          -27.70108
     32       2.00000          -1.016125          -27.65017
     33       2.00000          -1.016020          -27.64732
     34       2.00000          -0.589896          -16.05189
     35       2.00000          -0.580693          -15.80147
     36       2.00000          -0.555523          -15.11656
     37       2.00000          -0.546441          -14.86941
     38       2.00000          -0.506377          -13.77922
     39       2.00000          -0.495560          -13.48488
     40       2.00000          -0.491573          -13.37640
     41       2.00000          -0.487656          -13.26979
     42       2.00000          -0.480031          -13.06230
     43       2.00000          -0.407763          -11.09580
     44       2.00000          -0.397642          -10.82040
     45       2.00000          -0.395755          -10.76903
     46       2.00000          -0.372179          -10.12751
     47       2.00000          -0.369160          -10.04535
     48       2.00000          -0.367275           -9.99405
     49       2.00000          -0.342143           -9.31018
     50       2.00000          -0.339100           -9.22739
     51       2.00000          -0.338298           -9.20554
     52       2.00000          -0.334131           -9.09217
     53       2.00000          -0.332443           -9.04624
     54       2.00000          -0.330599           -8.99606
     55       2.00000          -0.326499           -8.88450
     56       2.00000          -0.324739           -8.83661
     57       2.00000          -0.324035           -8.81745
     58       2.00000          -0.323797           -8.81095
     59       2.00000          -0.321860           -8.75825
     60       2.00000          -0.320279           -8.71523
     61       0.00000          -0.159304           -4.33489
     62       0.00000          -0.087541           -2.38210
     63       0.00000          -0.085355           -2.32262
     64       0.00000          -0.048025           -1.30682
     65       0.00000          -0.032521           -0.88495
     66       0.00000          -0.018144           -0.49374
     67       0.00000          -0.015862           -0.43164
     68       0.00000           0.022332            0.60770
     69       0.00000           0.030211            0.82208
     70       0.00000           0.033258            0.90500
     71       0.00000           0.051094            1.39034
     72       0.00000           0.054844            1.49239
     73       0.00000           0.132173            3.59660
     74       0.00000           0.149466            4.06719
     75       0.00000           0.162135            4.41193
     76       0.00000           0.178272            4.85104
     77       0.00000           0.180986            4.92488
     78       0.00000           0.183779            5.00089
     79       0.00000           0.187814            5.11067
     80       0.00000           0.194938            5.30454
     81       0.00000           0.197108            5.36359
     82       0.00000           0.200573            5.45786
     83       0.00000           0.209145            5.69113
     84       0.00000           0.214561            5.83851
     85       0.00000           0.229677            6.24982
     86       0.00000           0.243833            6.63502
     87       0.00000           0.265522            7.22522
     88       0.00000           0.277552            7.55258
     89       0.00000           0.282561            7.68889
     90       0.00000           0.287189            7.81481
     91       0.00000           0.293909            7.99766
     92       0.00000           0.298428            8.12063
     93       0.00000           0.322289            8.76994
     94       0.00000           0.334866            9.11217
     95       0.00000           0.365248            9.93891
     96       0.00000           0.372436           10.13451

  Highest occupied state (VBM) at     -8.71522764 eV
  | Occupation number:      2.00000000

  Lowest unoccupied state (CBM) at    -4.33489132 eV
  | Occupation number:      0.00000000

  Overall HOMO-LUMO gap:      4.38033632 eV.

  Total energy components:
  | Sum of eigenvalues            :        -882.67858507 Ha      -24018.90636829 eV
  | XC energy correction          :        -145.69045458 Ha       -3964.43897744 eV
  | XC potential correction       :         189.71357088 Ha        5162.36892197 eV
  | Free-atom electrostatic energy:        -781.25517158 Ha      -21259.03486638 eV
  | Hartree energy correction     :          -5.24549546 Ha        -142.73719390 eV
  | Entropy correction            :           0.00000000 Ha           0.00000000 eV
  | ---------------------------
  | Total energy                  :       -1625.15613581 Ha      -44222.74848403 eV
  | Total energy, T -> 0          :       -1625.15613581 Ha      -44222.74848403 eV  <-- do not rely on this value for anything but (periodic) metals
  | Electronic free energy        :       -1625.15613581 Ha      -44222.74848403 eV

  Derived energy quantities:
  | Kinetic energy                :        1634.19192595 Ha       44468.62484374 eV
  | Electrostatic energy          :       -3113.65760718 Ha      -84726.93435034 eV
  | Energy correction for multipole
  | error in Hartree potential    :           0.04415233 Ha           1.20144596 eV
  | Sum of eigenvalues per atom                           :       -2001.57553069 eV
  | Total energy (T->0) per atom                          :       -3685.22904034 eV  <-- do not rely on this value for anything but (periodic) metals
  | Electronic free energy per atom                       :       -3685.22904034 eV
  Evaluating new KS density.
  Integration grid: deviation in total charge (<rho> - N_e) =   0.000000E+00

  Self-consistency convergence accuracy:
  | Change of charge density      :  0.6125E+00
  | Change of sum of eigenvalues  :  0.1371E+03 eV
  | Change of total energy        :  0.6160E+01 eV


------------------------------------------------------------
  End self-consistency iteration #     1       :  max(cpu_time)    wall_clock(cpu1)
  | Time for this iteration                     :        0.081 s           0.082 s
  | Charge density update                       :        0.027 s           0.027 s
  | Density mixing                              :        0.001 s           0.001 s
  | Hartree multipole update                    :        0.001 s           0.001 s
  | Hartree multipole summation                 :        0.017 s           0.017 s
  | Integration                                 :        0.030 s           0.030 s
  | Solution of K.-S. eqns.                     :        0.004 s           0.004 s
  | Total energy evaluation                     :        0.000 s           0.000 s

  Partial memory accounting:
  | Current value for overall tracked memory usage:
  |   Minimum:        0.273 MB (on task 23)
  |   Maximum:        0.292 MB (on task  0)
  |   Average:        0.287 MB
  | Peak value for overall tracked memory usage:
  |   Minimum:        1.264 MB (on task  2 after allocating wave)
  |   Maximum:        1.344 MB (on task  5 after allocating wave)
  |   Average:        1.307 MB
  | Largest tracked array allocation so far:
  |   Minimum:        0.651 MB (gradient_basis_wave on task  2)
  |   Maximum:        0.701 MB (gradient_basis_wave on task  5)
  |   Average:        0.681 MB
  Note:  These values currently only include a subset of arrays which are explicitly tracked.
  The "true" memory usage will be greater.
------------------------------------------------------------

------------------------------------------------------------
          Begin self-consistency iteration #    2

  Date     :  20220517, Time     :  112340.567
------------------------------------------------------------
  Pulay mixing of updated and previous charge densities.
  Renormalizing the density to the exact electron count on the 3D integration grid.
  | Formal number of electrons (from input files) :     120.0000000000
  | Integrated number of electrons on 3D grid     :     120.0000000000
  | Charge integration error                      :      -0.0000000000
  | Normalization factor for density and gradient :       1.0000000000

  Evaluating partitioned Hartree potential by multipole expansion.
  | Original multipole sum: apparent total charge =  -0.849038E-13
  | Sum of charges compensated after spline to logarithmic grids =   0.665378E-04
  | Analytical far-field extrapolation by fixed multipoles:
  | Hartree multipole sum: apparent total charge =  -0.846249E-13
  Summing up the Hartree potential.
  Time summed over all CPUs for potential: real work        0.380 s, elapsed        0.391 s
  | RMS charge density error from multipole expansion :   0.123689E-01

  Integrating Hamiltonian matrix: batch-based integration.
  Time summed over all CPUs for integration: real work        0.676 s, elapsed        0.714 s

  Updating Kohn-Sham eigenvalues and eigenvectors using ELSI and the ELPA eigensolver.
  Starting ELPA eigensolver
  Finished transformation to standard eigenproblem
  | Time :     0.000 s
  Finished solving standard eigenproblem
  | Time :     0.004 s
  Finished back-transformation of eigenvectors
  | Time :     0.000 s

  Obtaining occupation numbers and chemical potential using ELSI.
  | Chemical potential (Fermi level):    -7.91479273 eV
  Highest occupied state (VBM) at     -9.91600459 eV
  | Occupation number:      2.00000000

  Lowest unoccupied state (CBM) at    -4.52039826 eV
  | Occupation number:      0.00000000

  Overall HOMO-LUMO gap:      5.39560633 eV.

  Checking to see if s.c.f. parameters should be adjusted.

  Total energy components:
  | Sum of eigenvalues            :        -885.88214784 Ha      -24106.07974651 eV
  | XC energy correction          :        -145.18105351 Ha       -3950.57746918 eV
  | XC potential correction       :         189.04332165 Ha        5144.13051258 eV
  | Free-atom electrostatic energy:        -781.25517158 Ha      -21259.03486638 eV
  | Hartree energy correction     :          -1.80985050 Ha         -49.24853784 eV
  | Entropy correction            :           0.00000000 Ha           0.00000000 eV
  | ---------------------------
  | Total energy                  :       -1625.08490177 Ha      -44220.81010732 eV
  | Total energy, T -> 0          :       -1625.08490177 Ha      -44220.81010732 eV  <-- do not rely on this value for anything but (periodic) metals
  | Electronic free energy        :       -1625.08490177 Ha      -44220.81010732 eV

  Derived energy quantities:
  | Kinetic energy                :        1630.24274575 Ha       44361.16218281 eV
  | Electrostatic energy          :       -3110.14659401 Ha      -84631.39482095 eV
  | Energy correction for multipole
  | error in Hartree potential    :           0.04804989 Ha           1.30750402 eV
  | Sum of eigenvalues per atom                           :       -2008.83997888 eV
  | Total energy (T->0) per atom                          :       -3685.06750894 eV  <-- do not rely on this value for anything but (periodic) metals
  | Electronic free energy per atom                       :       -3685.06750894 eV
  Evaluating new KS density.
  Integration grid: deviation in total charge (<rho> - N_e) =   2.842171E-14

  Self-consistency convergence accuracy:
  | Change of charge density      :  0.5020E+00
  | Change of sum of eigenvalues  : -0.8717E+02 eV
  | Change of total energy        :  0.1938E+01 eV


------------------------------------------------------------
  End self-consistency iteration #     2       :  max(cpu_time)    wall_clock(cpu1)
  | Time for this iteration                     :        0.085 s           0.082 s
  | Charge density update                       :        0.027 s           0.028 s
  | Density mixing                              :        0.005 s           0.002 s
  | Hartree multipole update                    :        0.001 s           0.001 s
  | Hartree multipole summation                 :        0.017 s           0.017 s
  | Integration                                 :        0.030 s           0.030 s
  | Solution of K.-S. eqns.                     :        0.004 s           0.004 s
  | Total energy evaluation                     :        0.000 s           0.000 s

  Partial memory accounting:
  | Current value for overall tracked memory usage:
  |   Minimum:        0.274 MB (on task 23)
  |   Maximum:        0.293 MB (on task  0)
  |   Average:        0.288 MB
  | Peak value for overall tracked memory usage:
  |   Minimum:        1.264 MB (on task  2 after allocating wave)
  |   Maximum:        1.344 MB (on task  5 after allocating wave)
  |   Average:        1.307 MB
  | Largest tracked array allocation so far:
  |   Minimum:        0.651 MB (gradient_basis_wave on task  2)
  |   Maximum:        0.701 MB (gradient_basis_wave on task  5)
  |   Average:        0.681 MB
  Note:  These values currently only include a subset of arrays which are explicitly tracked.
  The "true" memory usage will be greater.
------------------------------------------------------------

------------------------------------------------------------
          Begin self-consistency iteration #    3

  Date     :  20220517, Time     :  112340.653
------------------------------------------------------------
  Pulay mixing of updated and previous charge densities.
  Renormalizing the density to the exact electron count on the 3D integration grid.
  | Formal number of electrons (from input files) :     120.0000000000
  | Integrated number of electrons on 3D grid     :     120.0000000000
  | Charge integration error                      :       0.0000000000
  | Normalization factor for density and gradient :       1.0000000000

  Evaluating partitioned Hartree potential by multipole expansion.
  | Original multipole sum: apparent total charge =  -0.238598E-14
  | Sum of charges compensated after spline to logarithmic grids =   0.850780E-04
  | Analytical far-field extrapolation by fixed multipoles:
  | Hartree multipole sum: apparent total charge =  -0.290868E-14
  Summing up the Hartree potential.
  Time summed over all CPUs for potential: real work        0.380 s, elapsed        0.391 s
  | RMS charge density error from multipole expansion :   0.169913E-01

  Integrating Hamiltonian matrix: batch-based integration.
  Time summed over all CPUs for integration: real work        0.676 s, elapsed        0.716 s

  Updating Kohn-Sham eigenvalues and eigenvectors using ELSI and the ELPA eigensolver.
  Starting ELPA eigensolver
  Finished transformation to standard eigenproblem
  | Time :     0.000 s
  Finished solving standard eigenproblem
  | Time :     0.003 s
  Finished back-transformation of eigenvectors
  | Time :     0.000 s

  Obtaining occupation numbers and chemical potential using ELSI.
  | Chemical potential (Fermi level):    -7.97632655 eV
  Highest occupied state (VBM) at     -9.70436285 eV
  | Occupation number:      2.00000000

  Lowest unoccupied state (CBM) at    -4.78625819 eV
  | Occupation number:      0.00000000

  Overall HOMO-LUMO gap:      4.91810466 eV.

  Total energy components:
  | Sum of eigenvalues            :        -887.02254663 Ha      -24137.11157648 eV
  | XC energy correction          :        -145.14875418 Ha       -3949.69855977 eV
  | XC potential correction       :         188.99949536 Ha        5142.93793843 eV
  | Free-atom electrostatic energy:        -781.25517158 Ha      -21259.03486638 eV
  | Hartree energy correction     :          -0.65690430 Ha         -17.87527552 eV
  | Entropy correction            :           0.00000000 Ha           0.00000000 eV
  | ---------------------------
  | Total energy                  :       -1625.08388133 Ha      -44220.78233973 eV
  | Total energy, T -> 0          :       -1625.08388133 Ha      -44220.78233973 eV  <-- do not rely on this value for anything but (periodic) metals
  | Electronic free energy        :       -1625.08388133 Ha      -44220.78233973 eV

  Derived energy quantities:
  | Kinetic energy                :        1628.57448713 Ha       44315.76655619 eV
  | Electrostatic energy          :       -3108.50961428 Ha      -84586.85033616 eV
  | Energy correction for multipole
  | error in Hartree potential    :           0.06324608 Ha           1.72101347 eV
  | Sum of eigenvalues per atom                           :       -2011.42596471 eV
  | Total energy (T->0) per atom                          :       -3685.06519498 eV  <-- do not rely on this value for anything but (periodic) metals
  | Electronic free energy per atom                       :       -3685.06519498 eV
  Evaluating new KS density.
  Integration grid: deviation in total charge (<rho> - N_e) =  -1.421085E-14

  Self-consistency convergence accuracy:
  | Change of charge density      :  0.1274E+00
  | Change of sum of eigenvalues  : -0.3103E+02 eV
  | Change of total energy        :  0.2777E-01 eV


------------------------------------------------------------
  End self-consistency iteration #     3       :  max(cpu_time)    wall_clock(cpu1)
  | Time for this iteration                     :        0.084 s           0.083 s
  | Charge density update                       :        0.027 s           0.027 s
  | Density mixing                              :        0.004 s           0.003 s
  | Hartree multipole update                    :        0.001 s           0.002 s
  | Hartree multipole summation                 :        0.017 s           0.016 s
  | Integration                                 :        0.030 s           0.031 s
  | Solution of K.-S. eqns.                     :        0.004 s           0.004 s
  | Total energy evaluation                     :        0.000 s           0.000 s

  Partial memory accounting:
  | Current value for overall tracked memory usage:
  |   Minimum:        0.274 MB (on task 23)
  |   Maximum:        0.293 MB (on task  0)
  |   Average:        0.288 MB
  | Peak value for overall tracked memory usage:
  |   Minimum:        1.264 MB (on task  2 after allocating wave)
  |   Maximum:        1.344 MB (on task  5 after allocating wave)
  |   Average:        1.307 MB
  | Largest tracked array allocation so far:
  |   Minimum:        0.651 MB (gradient_basis_wave on task  2)
  |   Maximum:        0.701 MB (gradient_basis_wave on task  5)
  |   Average:        0.681 MB
  Note:  These values currently only include a subset of arrays which are explicitly tracked.
  The "true" memory usage will be greater.
------------------------------------------------------------

------------------------------------------------------------
          Begin self-consistency iteration #    4

  Date     :  20220517, Time     :  112340.742
------------------------------------------------------------
  Pulay mixing of updated and previous charge densities.
  Renormalizing the density to the exact electron count on the 3D integration grid.
  | Formal number of electrons (from input files) :     120.0000000000
  | Integrated number of electrons on 3D grid     :     120.0000000000
  | Charge integration error                      :      -0.0000000000
  | Normalization factor for density and gradient :       1.0000000000

  Evaluating partitioned Hartree potential by multipole expansion.
  | Original multipole sum: apparent total charge =  -0.521349E-13
  | Sum of charges compensated after spline to logarithmic grids =   0.940610E-04
  | Analytical far-field extrapolation by fixed multipoles:
  | Hartree multipole sum: apparent total charge =  -0.525377E-13
  Summing up the Hartree potential.
  Time summed over all CPUs for potential: real work        0.380 s, elapsed        0.391 s
  | RMS charge density error from multipole expansion :   0.193101E-01

  Integrating Hamiltonian matrix: batch-based integration.
  Time summed over all CPUs for integration: real work        0.677 s, elapsed        0.716 s

  Updating Kohn-Sham eigenvalues and eigenvectors using ELSI and the ELPA eigensolver.
  Starting ELPA eigensolver
  Finished transformation to standard eigenproblem
  | Time :     0.001 s
  Finished solving standard eigenproblem
  | Time :     0.003 s
  Finished back-transformation of eigenvectors
  | Time :     0.000 s

  Obtaining occupation numbers and chemical potential using ELSI.
  | Chemical potential (Fermi level):    -7.97592560 eV
  Highest occupied state (VBM) at     -9.80163596 eV
  | Occupation number:      2.00000000

  Lowest unoccupied state (CBM) at    -4.74429070 eV
  | Occupation number:      0.00000000

  Overall HOMO-LUMO gap:      5.05734527 eV.

  Total energy components:
  | Sum of eigenvalues            :        -887.21157438 Ha      -24142.25528330 eV
  | XC energy correction          :        -145.12950697 Ha       -3949.17481651 eV
  | XC potential correction       :         188.97336081 Ha        5142.22678137 eV
  | Free-atom electrostatic energy:        -781.25517158 Ha      -21259.03486638 eV
  | Hartree energy correction     :          -0.45871832 Ha         -12.48236046 eV
  | Entropy correction            :           0.00000000 Ha           0.00000000 eV
  | ---------------------------
  | Total energy                  :       -1625.08161043 Ha      -44220.72054528 eV
  | Total energy, T -> 0          :       -1625.08161043 Ha      -44220.72054528 eV  <-- do not rely on this value for anything but (periodic) metals
  | Electronic free energy        :       -1625.08161043 Ha      -44220.72054528 eV

  Derived energy quantities:
  | Kinetic energy                :        1627.81698265 Ha       44295.15381040 eV
  | Electrostatic energy          :       -3107.76908610 Ha      -84566.69953918 eV
  | Energy correction for multipole
  | error in Hartree potential    :           0.07052232 Ha           1.91901001 eV
  | Sum of eigenvalues per atom                           :       -2011.85460694 eV
  | Total energy (T->0) per atom                          :       -3685.06004544 eV  <-- do not rely on this value for anything but (periodic) metals
  | Electronic free energy per atom                       :       -3685.06004544 eV
  Evaluating new KS density.
  Integration grid: deviation in total charge (<rho> - N_e) =  -2.842171E-14

  Self-consistency convergence accuracy:
  | Change of charge density      :  0.8728E-01
  | Change of sum of eigenvalues  : -0.5144E+01 eV
  | Change of total energy        :  0.6179E-01 eV


------------------------------------------------------------
  End self-consistency iteration #     4       :  max(cpu_time)    wall_clock(cpu1)
  | Time for this iteration                     :        0.084 s           0.082 s
  | Charge density update                       :        0.027 s           0.027 s
  | Density mixing                              :        0.005 s           0.002 s
  | Hartree multipole update                    :        0.001 s           0.001 s
  | Hartree multipole summation                 :        0.017 s           0.017 s
  | Integration                                 :        0.030 s           0.030 s
  | Solution of K.-S. eqns.                     :        0.004 s           0.004 s
  | Total energy evaluation                     :        0.000 s           0.001 s

  Partial memory accounting:
  | Current value for overall tracked memory usage:
  |   Minimum:        0.274 MB (on task 23)
  |   Maximum:        0.293 MB (on task  0)
  |   Average:        0.288 MB
  | Peak value for overall tracked memory usage:
  |   Minimum:        1.264 MB (on task  2 after allocating wave)
  |   Maximum:        1.344 MB (on task  5 after allocating wave)
  |   Average:        1.307 MB
  | Largest tracked array allocation so far:
  |   Minimum:        0.651 MB (gradient_basis_wave on task  2)
  |   Maximum:        0.701 MB (gradient_basis_wave on task  5)
  |   Average:        0.681 MB
  Note:  These values currently only include a subset of arrays which are explicitly tracked.
  The "true" memory usage will be greater.
------------------------------------------------------------

------------------------------------------------------------
          Begin self-consistency iteration #    5

  Date     :  20220517, Time     :  112340.827
------------------------------------------------------------
  Pulay mixing of updated and previous charge densities.
  Renormalizing the density to the exact electron count on the 3D integration grid.
  | Formal number of electrons (from input files) :     120.0000000000
  | Integrated number of electrons on 3D grid     :     120.0000000000
  | Charge integration error                      :      -0.0000000000
  | Normalization factor for density and gradient :       1.0000000000

  Evaluating partitioned Hartree potential by multipole expansion.
  | Original multipole sum: apparent total charge =  -0.111336E-13
  | Sum of charges compensated after spline to logarithmic grids =   0.945638E-04
  | Analytical far-field extrapolation by fixed multipoles:
  | Hartree multipole sum: apparent total charge =  -0.111981E-13
  Summing up the Hartree potential.
  Time summed over all CPUs for potential: real work        0.380 s, elapsed        0.391 s
  | RMS charge density error from multipole expansion :   0.190635E-01

  Integrating Hamiltonian matrix: batch-based integration.
  Time summed over all CPUs for integration: real work        0.676 s, elapsed        0.717 s

  Updating Kohn-Sham eigenvalues and eigenvectors using ELSI and the ELPA eigensolver.
  Starting ELPA eigensolver
  Finished transformation to standard eigenproblem
  | Time :     0.001 s
  Finished solving standard eigenproblem
  | Time :     0.003 s
  Finished back-transformation of eigenvectors
  | Time :     0.000 s

  Obtaining occupation numbers and chemical potential using ELSI.
  | Chemical potential (Fermi level):    -7.94817186 eV
  Highest occupied state (VBM) at     -9.83797540 eV
  | Occupation number:      2.00000000

  Lowest unoccupied state (CBM) at    -4.67264452 eV
  | Occupation number:      0.00000000

  Overall HOMO-LUMO gap:      5.16533088 eV.

  Total energy components:
  | Sum of eigenvalues            :        -886.98045065 Ha      -24135.96608653 eV
  | XC energy correction          :        -145.12422471 Ha       -3949.03107875 eV
  | XC potential correction       :         188.96664654 Ha        5142.04407678 eV
  | Free-atom electrostatic energy:        -781.25517158 Ha      -21259.03486638 eV
  | Hartree energy correction     :          -0.68825699 Ha         -18.72842569 eV
  | Entropy correction            :           0.00000000 Ha           0.00000000 eV
[...]
   Total forces(   7)            :  0.655290E+00  0.333698E+01 -0.139460E+00
  atom #    8
   Hellmann-Feynman              : -0.648994E-01 -0.865373E+00  0.316163E+00
   Ionic forces                  :  0.000000E+00  0.000000E+00  0.000000E+00
   Multipole                     :  0.176915E+00 -0.156799E+00  0.225507E+00
   Hartree pot. SCF incomplete   : -0.377408E-06 -0.145575E-05 -0.768304E-06
   Pulay + GGA                   : -0.873532E+00  0.151938E+01 -0.142623E+01
   ----------------------------------------------------------------
   Total forces(   8)            : -0.761516E+00  0.497207E+00 -0.884560E+00
  atom #    9
   Hellmann-Feynman              : -0.333618E-01  0.834974E+00 -0.241733E+00
   Ionic forces                  :  0.000000E+00  0.000000E+00  0.000000E+00
   Multipole                     :  0.394644E-01  0.938526E-01 -0.305449E+00
   Hartree pot. SCF incomplete   :  0.364105E-06  0.228713E-05  0.231755E-05
   Pulay + GGA                   : -0.187008E+00 -0.109154E+01  0.147062E+01
   ----------------------------------------------------------------
   Total forces(   9)            : -0.180905E+00 -0.162706E+00  0.923436E+00
  atom #   10
   Hellmann-Feynman              : -0.646616E+00 -0.104029E+01  0.293833E+01
   Ionic forces                  :  0.000000E+00  0.000000E+00  0.000000E+00
   Multipole                     : -0.146644E+00 -0.279715E+00  0.624670E+00
   Hartree pot. SCF incomplete   : -0.144412E-06 -0.142872E-05  0.193021E-05
   Pulay + GGA                   :  0.142677E+01  0.238370E+01 -0.660002E+01
   ----------------------------------------------------------------
   Total forces(  10)            :  0.633511E+00  0.106369E+01 -0.303701E+01
  atom #   11
   Hellmann-Feynman              :  0.436096E+00  0.264776E+01 -0.100735E+01
   Ionic forces                  :  0.000000E+00  0.000000E+00  0.000000E+00
   Multipole                     :  0.125151E+00  0.695227E+00 -0.265905E+00
   Hartree pot. SCF incomplete   :  0.210465E-05 -0.263061E-05 -0.670753E-05
   Pulay + GGA                   : -0.104789E+01 -0.673481E+01  0.200570E+01
   ----------------------------------------------------------------
   Total forces(  11)            : -0.486643E+00 -0.339183E+01  0.732441E+00
  atom #   12
   Hellmann-Feynman              : -0.155599E+00 -0.320495E+00  0.224053E+00
   Ionic forces                  :  0.000000E+00  0.000000E+00  0.000000E+00
   Multipole                     : -0.297140E+00  0.124502E-01  0.146927E+00
   Hartree pot. SCF incomplete   : -0.640010E-06  0.647132E-06 -0.186023E-06
   Pulay + GGA                   :  0.156289E+01  0.307928E+00 -0.833459E+00
   ----------------------------------------------------------------
   Total forces(  12)            :  0.111015E+01 -0.116442E-03 -0.462479E+00


  Self-consistency convergence accuracy:
  | Change of charge density      :  0.1765E-05
  | Change of sum of eigenvalues  : -0.9024E-04 eV
  | Change of total energy        :  0.1069E-06 eV
  | Change of forces              :  0.1475E-05 eV/A

  Writing Kohn-Sham eigenvalues.

  State    Occupation    Eigenvalue [Ha]    Eigenvalue [eV]
      1       2.00000         -55.634900        -1513.90266
      2       2.00000         -55.632498        -1513.83730
      3       2.00000         -55.631396        -1513.80731
      4       2.00000         -24.341718         -662.37185
      5       2.00000         -24.337365         -662.25340
      6       2.00000         -24.335924         -662.21418
      7       2.00000         -24.224426         -659.18016
      8       2.00000         -24.218453         -659.01762
      9       2.00000         -24.214040         -658.89754
     10       2.00000         -24.213998         -658.89641
     11       2.00000         -24.213888         -658.89343
     12       2.00000         -24.212680         -658.86054
     13       2.00000          -4.088622         -111.25707
     14       2.00000          -4.086499         -111.19928
     15       2.00000          -4.085375         -111.16871
     16       2.00000          -2.682187          -72.98603
     17       2.00000          -2.681265          -72.96092
     18       2.00000          -2.680156          -72.93077
     19       2.00000          -2.679127          -72.90275
     20       2.00000          -2.679082          -72.90153
     21       2.00000          -2.677945          -72.87059
     22       2.00000          -2.676938          -72.84319
     23       2.00000          -2.674703          -72.78237
     24       2.00000          -2.673574          -72.75166
     25       2.00000          -1.223948          -33.30531
     26       2.00000          -1.213906          -33.03206
     27       2.00000          -1.210459          -32.93827
     28       2.00000          -1.070351          -29.12574
     29       2.00000          -1.065575          -28.99577
     30       2.00000          -1.062234          -28.90486
     31       2.00000          -1.061536          -28.88586
     32       2.00000          -1.059141          -28.82070
     33       2.00000          -1.058862          -28.81311
     34       2.00000          -0.608068          -16.54638
     35       2.00000          -0.599843          -16.32256
     36       2.00000          -0.575930          -15.67185
     37       2.00000          -0.564995          -15.37428
     38       2.00000          -0.523997          -14.25868
     39       2.00000          -0.516266          -14.04830
     40       2.00000          -0.512321          -13.94097
     41       2.00000          -0.507335          -13.80528
     42       2.00000          -0.500255          -13.61264
     43       2.00000          -0.442277          -12.03498
     44       2.00000          -0.434233          -11.81607
     45       2.00000          -0.431738          -11.74818
     46       2.00000          -0.414121          -11.26881
     47       2.00000          -0.410551          -11.17166
     48       2.00000          -0.408520          -11.11640
     49       2.00000          -0.380512          -10.35426
     50       2.00000          -0.377563          -10.27401
     51       2.00000          -0.375950          -10.23011
     52       2.00000          -0.372646          -10.14022
     53       2.00000          -0.370967          -10.09451
     54       2.00000          -0.369280          -10.04862
     55       2.00000          -0.367048           -9.98787
     56       2.00000          -0.365401           -9.94305
     57       2.00000          -0.364413           -9.91618
     58       2.00000          -0.364001           -9.90498
     59       2.00000          -0.362366           -9.86048
     60       2.00000          -0.360768           -9.81699
     61       0.00000          -0.171895           -4.67750
     62       0.00000          -0.099924           -2.71906
     63       0.00000          -0.097444           -2.65158
     64       0.00000          -0.055151           -1.50075
     65       0.00000          -0.038483           -1.04718
     66       0.00000          -0.023238           -0.63233
     67       0.00000          -0.020837           -0.56701
     68       0.00000           0.018919            0.51481
     69       0.00000           0.025206            0.68589
     70       0.00000           0.027438            0.74663
     71       0.00000           0.044701            1.21637
     72       0.00000           0.048686            1.32482
     73       0.00000           0.123656            3.36484
     74       0.00000           0.144517            3.93250
     75       0.00000           0.156231            4.25127
     76       0.00000           0.171961            4.67931
     77       0.00000           0.174109            4.73775
     78       0.00000           0.178177            4.84845
     79       0.00000           0.182093            4.95501
     80       0.00000           0.186089            5.06373
     81       0.00000           0.190080            5.17234
     82       0.00000           0.194610            5.29560
     83       0.00000           0.201927            5.49472
     84       0.00000           0.206737            5.62559
     85       0.00000           0.222232            6.04723
     86       0.00000           0.236079            6.42404
     87       0.00000           0.258962            7.04671
     88       0.00000           0.271856            7.39757
     89       0.00000           0.277367            7.54755
     90       0.00000           0.281610            7.66299
     91       0.00000           0.288396            7.84765
     92       0.00000           0.294383            8.01057
     93       0.00000           0.317692            8.64484
     94       0.00000           0.328325            8.93417
     95       0.00000           0.357140            9.71828
     96       0.00000           0.364202            9.91045

  Highest occupied state (VBM) at     -9.81698737 eV
  | Occupation number:      2.00000000

  Lowest unoccupied state (CBM) at    -4.67749702 eV
  | Occupation number:      0.00000000

  Overall HOMO-LUMO gap:      5.13949034 eV.
  | Chemical Potential                          :    -7.94673720 eV

  Self-consistency cycle converged.


------------------------------------------------------------
  End self-consistency iteration #    13       :  max(cpu_time)    wall_clock(cpu1)
  | Time for this iteration                     :        0.266 s           0.267 s
  | Charge density & force component update     :        0.145 s           0.145 s
  | Density mixing                              :        0.005 s           0.006 s
  | Hartree multipole update                    :        0.001 s           0.001 s
  | Hartree multipole summation                 :        0.049 s           0.049 s
  | Hartree pot. SCF incomplete forces          :        0.032 s           0.031 s
  | Integration                                 :        0.030 s           0.030 s
  | Solution of K.-S. eqns.                     :        0.004 s           0.004 s
  | Total energy evaluation                     :        0.000 s           0.000 s

  Partial memory accounting:
  | Current value for overall tracked memory usage:
  |   Minimum:        0.274 MB (on task 23)
  |   Maximum:        0.293 MB (on task  0)
  |   Average:        0.289 MB
  | Peak value for overall tracked memory usage:
  |   Minimum:        2.710 MB (on task  2 after allocating hessian_basis_wave)
  |   Maximum:        2.874 MB (on task  5 after allocating hessian_basis_wave)
  |   Average:        2.804 MB
  | Largest tracked array allocation so far:
  |   Minimum:        1.303 MB (hessian_basis_wave on task  2)
  |   Maximum:        1.401 MB (hessian_basis_wave on task  5)
  |   Average:        1.362 MB
  Note:  These values currently only include a subset of arrays which are explicitly tracked.
  The "true" memory usage will be greater.
------------------------------------------------------------
  Removing unitary transformations (pure translations, rotations) from forces on atoms.
  Atomic forces before filtering:
  | Net force on center of mass :  -0.592092E-02  0.184740E-02  0.681791E-02 eV/A
  | Net torque on center of mass:  -0.129072E-01 -0.289342E-02  0.198409E-02 eV
  Atomic forces after filtering:
  | Net force on center of mass :  -0.107044E-14 -0.781572E-15 -0.169486E-14 eV/A
  | Net torque on center of mass:  -0.132402E-14  0.283225E-15  0.243102E-14 eV

  Energy and forces in a compact form:
  | Total energy uncorrected      :         -0.442207160186175E+05 eV
  | Total energy corrected        :         -0.442207160186175E+05 eV  <-- do not rely on this value for anything but (periodic) metals
  | Electronic free energy        :         -0.442207160186175E+05 eV
  Total atomic forces (unitary forces cleaned) [eV/Ang]:
  |    1         -0.297950864726818E+00          0.190492435347469E+01          0.272309930519149E+01
  |    2          0.342766269872326E+01         -0.737464319107399E+00         -0.105014895404103E+01
  |    3         -0.284340433322205E+01         -0.108221430462046E+01         -0.193474253676814E+01
  |    4         -0.200215040222147E+01         -0.259261308166026E+01          0.932156104330589E+00
  |    5          0.178868816799913E+01         -0.207760435379999E+01          0.196747648891670E+01
  |    6         -0.104586974809344E+01          0.324365678933757E+01          0.232990600885647E+00
  |    7          0.655675064662240E+00          0.333713519749783E+01         -0.140566404347124E+00
  |    8         -0.760980089772147E+00          0.496696397091783E+00         -0.885243578802270E+00
  |    9         -0.180481547647367E+00         -0.162437601610874E+00          0.922830824761009E+00
  |   10          0.634155786769447E+00          0.106262930951235E+01         -0.303749294305283E+01
  |   11         -0.486021679020880E+00         -0.339230171900461E+01          0.732569318003742E+00
  |   12          0.111067694655011E+01         -0.406667110638341E-03         -0.462928225077782E+00

  ------------------------------------ 
  Start decomposition of the XC Energy 
  ------------------------------------ 
  X and C from original XC functional choice 
  Hartree-Fock Energy :          0.000000000 Ha              0.000000000 eV
  X Energy            :       -140.194379851 Ha          -3814.883174865 eV
  C Energy            :         -4.934692653 Ha           -134.279819178 eV
  Total XC Energy     :       -145.129072504 Ha          -3949.162994043 eV
  ------------------------------------ 
  LDA X and C from self-consistent density 
  X Energy LDA        :       -132.761198148 Ha          -3612.616009486 eV
  C Energy LDA        :         -8.822471898 Ha           -240.071675057 eV
  ------------------------------------ 
  End decomposition of the XC Energy 
  ------------------------------------ 

------------------------------------------------------------

------------------------------------------------------------------------------
  Final output of selected total energy values:

  The following output summarizes some interesting total energy values
  at the end of a run (AFTER all relaxation, molecular dynamics, etc.).

  | Total energy of the DFT / Hartree-Fock s.c.f. calculation      :         -44220.716018618 eV
  | Final zero-broadening corrected energy (caution - metals only) :         -44220.716018618 eV
  | For reference only, the value of 1 Hartree used in FHI-aims is :             27.211384500 eV

  Before relying on these values, please be sure to understand exactly which
  total energy value is referred to by a given number. Different objects may
  all carry the same name 'total energy'. Definitions:

  Total energy of the DFT / Hartree-Fock s.c.f. calculation:
  | Note that this energy does not include ANY quantities calculated after the
  | s.c.f. cycle, in particular not ANY RPA, MP2, etc. many-body perturbation terms.

  Final zero-broadening corrected energy:
  | For metallic systems only, a broadening of the occupation numbers at the Fermi
  | level can be extrapolated back to zero broadening by an electron-gas inspired
  | formula. For all systems that are not real metals, this value can be
  | meaningless and should be avoided.

------------------------------------------------------------------------------
  Methods described in the following list of references were used in this FHI-aims run.
  If you publish the results, please make sure to cite these reference if they apply.
  FHI-aims is an academic code, and for our developers (often, Ph.D. students
  and postdocs), scientific credit in the community is essential.
  Thank you for helping us!

  For any use of FHI-aims, please cite:

    Volker Blum, Ralf Gehrke, Felix Hanke, Paula Havu, Ville Havu,
    Xinguo Ren, Karsten Reuter, and Matthias Scheffler
    'Ab initio molecular simulations with numeric atom-centered orbitals'
    Computer Physics Communications 180, 2175-2196 (2009)
    http://dx.doi.org/10.1016/j.cpc.2009.06.022


  The ELSI infrastructure was used in your run to solve the Kohn-Sham electronic structure.
  Please check out http://elsi-interchange.org to learn more.
  If scalability is important for your project, please acknowledge ELSI by citing:

    V. W-z. Yu, F. Corsetti, A. Garcia, W. P. Huhn, M. Jacquelin, W. Jia,
    B. Lange, L. Lin, J. Lu, W. Mi, A. Seifitokaldani, A. Vazquez-Mayagoitia,
    C. Yang, H. Yang, and V. Blum
    'ELSI: A unified software interface for Kohn-Sham electronic structure solvers'
    Computer Physics Communications 222, 267-285 (2018).
    http://dx.doi.org/10.1016/j.cpc.2017.09.007


  For the real-space grid partitioning and parallelization used in this calculation, please cite:

    Ville Havu, Volker Blum, Paula Havu, and Matthias Scheffler,
    'Efficient O(N) integration for all-electron electronic structure calculation'
    'using numerically tabulated basis functions'
    Journal of Computational Physics 228, 8367-8379 (2009).
    http://dx.doi.org/10.1016/j.jcp.2009.08.008

  Of course, there are many other important community references, e.g., those cited in the
  above references. Our list is limited to references that describe implementations in the
  FHI-aims code. The reason is purely practical (length of this list) - please credit others as well.

------------------------------------------------------------
          Leaving FHI-aims.
          Date     :  20220517, Time     :  112342.002

          Computational steps:
          | Number of self-consistency cycles          :           13
          | Number of SCF (re)initializations          :            1

          Detailed time accounting                     :  max(cpu_time)    wall_clock(cpu1)
          | Total time                                  :        1.835 s           1.894 s
          | Preparation time                            :        0.184 s           0.184 s
          | Boundary condition initalization            :        0.000 s           0.000 s
          | Grid partitioning                           :        0.036 s           0.036 s
          | Preloading free-atom quantities on grid     :        0.016 s           0.017 s
          | Free-atom superposition energy              :        0.005 s           0.005 s
          | Total time for integrations                 :        0.438 s           0.438 s
          | Total time for solution of K.-S. equations  :        0.063 s           0.063 s
          | Total time for density & force components   :        0.620 s           0.621 s
          | Total time for mixing                       :        0.059 s           0.038 s
          | Total time for Hartree multipole update     :        0.017 s           0.015 s
          | Total time for Hartree multipole sum        :        0.280 s           0.281 s
          | Total time for total energy evaluation      :        0.002 s           0.001 s
          | Total time NSC force correction             :        0.063 s           0.063 s
          | Total time for scaled ZORA corrections      :        0.000 s           0.000 s

          Partial memory accounting:
          | Residual value for overall tracked memory usage across tasks:     0.000000 MB (should be 0.000000 MB)
          | Peak values for overall tracked memory usage:
          |   Minimum:        2.710 MB (on task  2 after allocating hessian_basis_wave)
          |   Maximum:        2.874 MB (on task  5 after allocating hessian_basis_wave)
          |   Average:        2.804 MB
          | Largest tracked array allocation:
          |   Minimum:        1.303 MB (hessian_basis_wave on task  2)
          |   Maximum:        1.401 MB (hessian_basis_wave on task  5)
          |   Average:        1.362 MB
          Note:  These values currently only include a subset of arrays which are explicitly tracked.
          The "true" memory usage will be greater.

          Have a nice day.
------------------------------------------------------------
