------------------------------------------------------------
          Invoking FHI-aims ...

          When using FHI-aims, please cite the following reference:

            Volker Blum, Ralf Gehrke, Felix Hanke, Paula Havu,
            Ville Havu, Xinguo Ren, Karsten Reuter, and Matthias Scheffler,
            'Ab Initio Molecular Simulations with Numeric Atom-Centered Orbitals',
            Computer Physics Communications 180, 2175-2196 (2009)

          In addition, many other developments in FHI-aims are likely important for
          your particular application. A partial list of references is given at the end of
          this file. Thank you for giving credit to the authors of these developments.

          For any questions about FHI-aims, please visit our slack channel at

            https://fhi-aims.slack.com

          and our main development and support site at

            https://aims-git.rz-berlin.mpg.de .

          The latter site, in particular, has a wiki to collect information, as well
          as an issue tracker to log discussions, suggest improvements, and report issues
          or bugs. https://aims-git.rz-berlin.mpg.de is also the main development site
          of the project and all new and updated code versions can be obtained there.
          Please send an email to aims-coordinators@fhi-berlin.mpg.de and we will add
          you to these sites. They are for you and everyone is welcome there.

------------------------------------------------------------



  Date     :  20220517, Time     :  113621.448
  Time zero on CPU 1             :   0.395230000000000E-01  s.
  Internal wall clock time zero  :           422019381.448  s.

  FHI-aims created a unique identifier for this run for later identification
  aims_uuid : 106A2B41-B20C-4E79-AC85-03B58F0AA4F7

  Build configuration of the current instance of FHI-aims
  -------------------------------------------------------
  FHI-aims version      : 210914
  Commit number         : GITDIR-NOTFOUND
  CMake host system     : Linux-3.10.0-693.17.1.el7.x86_64
  CMake version         : 3.21.1
  Fortran compiler      : /shared/ucl/apps/intel/2018.Update3/impi/2018.3.222/intel64/bin/mpiifort (Intel) version 18.0.3.20180410
  Fortran compiler flags: -O3 -ip -fp-model precise
  C compiler            : /shared/ucl/apps/intel/2018.Update3/compilers_and_libraries_2018.3.222/linux/bin/intel64/icc (Intel) version 18.0.3.20180410
  C compiler flags      : -O3 -ip -fp-model precise -std=gnu99
  ELPA2 kernel          : AVX2
  Using MPI
  Using ScaLAPACK
  Using LibXC
  Using i-PI
  Using RLSY
  Linking against: /shared/ucl/apps/intel/2019.Update5/compilers_and_libraries_2019.5.281/linux/mkl/lib/intel64/libmkl_intel_lp64.so
                   /shared/ucl/apps/intel/2019.Update5/compilers_and_libraries_2019.5.281/linux/mkl/lib/intel64/libmkl_sequential.so
                   /shared/ucl/apps/intel/2019.Update5/compilers_and_libraries_2019.5.281/linux/mkl/lib/intel64/libmkl_core.so
                   /shared/ucl/apps/intel/2019.Update5/compilers_and_libraries_2019.5.281/linux/mkl/lib/intel64/libmkl_blacs_intelmpi_lp64.so
                   /shared/ucl/apps/intel/2019.Update5/compilers_and_libraries_2019.5.281/linux/mkl/lib/intel64/libmkl_scalapack_lp64.so

  Using       24 parallel tasks.
  Task        0 on host node-k98e-003 reporting.
  Task        1 on host node-k98e-003 reporting.
  Task        2 on host node-k98e-003 reporting.
  Task        3 on host node-k98e-003 reporting.
  Task        4 on host node-k98e-003 reporting.
  Task        5 on host node-k98e-003 reporting.
  Task        6 on host node-k98e-003 reporting.
  Task        7 on host node-k98e-003 reporting.
  Task        8 on host node-k98e-003 reporting.
  Task        9 on host node-k98e-003 reporting.
  Task       10 on host node-k98e-003 reporting.
  Task       11 on host node-k98e-003 reporting.
  Task       12 on host node-k98e-003 reporting.
  Task       13 on host node-k98e-003 reporting.
  Task       14 on host node-k98e-003 reporting.
  Task       15 on host node-k98e-003 reporting.
  Task       16 on host node-k98e-003 reporting.
  Task       17 on host node-k98e-003 reporting.
  Task       18 on host node-k98e-003 reporting.
  Task       19 on host node-k98e-003 reporting.
  Task       20 on host node-k98e-003 reporting.
  Task       21 on host node-k98e-003 reporting.
  Task       22 on host node-k98e-003 reporting.
  Task       23 on host node-k98e-003 reporting.

  Performing system and environment tests:
  | Environment variable OMP_NUM_THREADS correctly set to 1.
  | Checking for ScaLAPACK...
  | Testing pdtran()...
  | All pdtran() tests passed.

  Obtaining array dimensions for all initial allocations:
  
  -----------------------------------------------------------------------
  Parsing control.in (first pass over file, find array dimensions only).
  The contents of control.in will be repeated verbatim below
  unless switched off by setting 'verbatim_writeout .false.' .
  in the first line of control.in .
  -----------------------------------------------------------------------
  
  #########################################################################################  Physical model
  #########################################################################################
  xc                 pbesol
  spin               none
  relativistic       atomic_zora scalar
  charge             0.0
  #  SCF convergence
  occupation_type    gaussian 0.01
  mixer              pulay
  n_max_pulay        10
  charge_mix_param   0.5
  sc_accuracy_rho    1E-5
  sc_accuracy_eev    1E-3
  sc_accuracy_etot   1E-6
  sc_accuracy_forces 1E-4
  sc_iter_limit      1500
  #  Relaxation
  #relax_geometry   bfgs 1.e-3
  
  ################################################################################
  #
  #  FHI-aims code project
  #  VB, Fritz-Haber Institut, 2009
  #
  #  Suggested "light" defaults for Al atom (to be pasted into control.in file)
  #  Be sure to double-check any results obtained with these settings for post-processing,
  #  e.g., with the "tight" defaults and larger basis sets.
  #
  ################################################################################
    species        Al
  #     global species definitions
      nucleus             13
      mass                26.9815386
  #
      l_hartree           4
  #
      cut_pot             3.5          1.5  1.0
      basis_dep_cutoff    1e-4
  #
      radial_base         41 5.0
      radial_multiplier   1
      angular_grids       specified
        division   0.6594  110
        division   0.8170  194
        division   0.9059  302
  #      division   1.0363  434
  #      division   1.1443  590
  #      division   1.2621  770
  #      division   2.8177  974
  #      outer_grid   974
        outer_grid   302
  ################################################################################
  #
  #  Definition of "minimal" basis
  #
  ################################################################################
  #     valence basis states
      valence      3  s   2.
      valence      3  p   1.
  #     ion occupancy
      ion_occ      3  s   1.
      ion_occ      2  p   6.
  ################################################################################
  #
  #  Suggested additional basis functions. For production calculations,
  #  uncomment them one after another (the most important basis functions are
  #  listed first).
  #
  #  Constructed for dimers: 2.0 A, 2.5 A, 3.0 A, 3.75 A, 4.5 A
  #
  ################################################################################
  #  "First tier" - improvements: -199.47 meV to -10.63 meV
       ionic 3 d auto
       ionic 3 p auto
  #     hydro 4 f 4.7
       ionic 3 s auto
  #  "Second tier" - improvements: -5.35 meV to -1.57 meV
  #     hydro 5 g 7
  #     hydro 3 d 6
  #     hydro 2 s 11.6
  #     hydro 2 p 0.9
  #  "Third tier" - improvements: -0.63 meV to -0.20 meV
  #     hydro 5 f 7.6
  #     hydro 4 p 7.2
  #     hydro 4 s 3.7
  #     hydro 4 d 7.6
  #  "Fourth tier" - improvements: -0.17 meV to -0.08 meV
  #     hydro 4 d 13.6
  #     hydro 5 g 11.2
  #     hydro 4 d 0.9
  #     hydro 1 s 0.4
  #     hydro 4 p 0.1
  #     hydro 5 f 9.8
  #  Further basis functions that fell out of the optimization - noise level...
  #     hydro 4 p 5
  
  ################################################################################
  #
  #  FHI-aims code project
  #  VB, Fritz-Haber Institut, 2009
  #
  #  Suggested "light" defaults for F atom (to be pasted into control.in file)
  #  Be sure to double-check any results obtained with these settings for post-processing,
  #  e.g., with the "tight" defaults and larger basis sets.
  #
  ################################################################################
    species        F
  #     global species definitions
      nucleus             9
      mass                18.9984032
  #
      l_hartree           4
  #
      cut_pot             3.5  1.5  1.0
      basis_dep_cutoff    1e-4
  #
      radial_base         37 5.0
      radial_multiplier   1
      angular_grids specified
        division   0.4014  110
        division   0.5291  194
        division   0.6019  302
  #      division   0.6814  434
  #      division   0.7989  590
  #      division   0.8965  770
  #      division   1.3427  974
  #      outer_grid   974
        outer_grid   302
  ################################################################################
  #
  #  Definition of "minimal" basis
  #
  ################################################################################
  #     valence basis states
      valence      2  s   2.
      valence      2  p   5.
  #     ion occupancy
      ion_occ      2  s   1.
      ion_occ      2  p   4.
  ################################################################################
  #
  #  Suggested additional basis functions. For production calculations,
  #  uncomment them one after another (the most important basis functions are
  #  listed first).
  #
  #  Constructed for dimers: 1.2 A, 1.418 A, 1.75 A, 2.25 A, 3.25 A
  #
  ################################################################################
  #  "First tier" - improvements: -149.44 meV to -45.88 meV
       hydro 2 p 1.7
       hydro 3 d 7.4
       hydro 3 s 6.8
  #  "Second tier" - improvements: -12.96 meV to -1.56 meV
  #     hydro 4 f 11.2
  #     ionic 2 p auto
  #     hydro 1 s 0.75
  #     hydro 4 d 8.8
  #     hydro 5 g 16.8
  #  "Third tier" - improvements: -0.58 meV to -0.05 meV
  #     hydro 3 p 6.2
  #     hydro 3 s 3.2
  #     hydro 4 f 9.6
  #     hydro 3 s 19.6
  #     hydro 4 d 8.6
  #     hydro 5 g 14.4
  # Further basis functions: -0.05 meV and below
  #     hydro 3 p 4.2
  
  -----------------------------------------------------------------------
  Completed first pass over input file control.in .
  -----------------------------------------------------------------------
  
  
  -----------------------------------------------------------------------
  Parsing geometry.in (first pass over file, find array dimensions only).
  The contents of geometry.in will be repeated verbatim below
  unless switched off by setting 'verbatim_writeout .false.' .
  in the first line of geometry.in .
  -----------------------------------------------------------------------
  
  atom 0.303225995 -0.599911078 1.733653917 Al
  atom 2.386456563 -1.768556054 -0.453328890 Al
  atom -0.839066982 -1.849432540 -1.045002736 Al
  atom 3.467190911 -0.497636593 -1.176021203 F
  atom -1.861310451 -0.563687689 -1.828415821 F
  atom 2.706175387 -3.559464477 -0.533218192 F
  atom -1.267409573 -3.617037985 -1.038323669 F
  atom 1.876967596 -1.437641132 1.266134000 F
  atom 0.886993764 -1.507784082 -1.481234465 F
  atom 0.141241151 -1.171946241 3.447978081 F
  atom 0.397957379 1.135049366 1.197377872 F
  atom -0.964804269 -1.429320921 0.735759212 F
  
  -----------------------------------------------------------------------
  Completed first pass over input file geometry.in .
  -----------------------------------------------------------------------
  

  Basic array size parameters:
  | Number of species                 :        2
  | Number of atoms                   :       12
  | Max. basis fn. angular momentum   :        2
  | Max. atomic/ionic basis occupied n:        3
  | Max. number of basis fn. types    :        3
  | Max. radial fns per species/type  :        5
  | Max. logarithmic grid size        :     1340
  | Max. radial integration grid size :       41
  | Max. angular integration grid size:      302
  | Max. angular grid division number :        8
  | Radial grid for Hartree potential :     1340
  | Number of spin channels           :        1

------------------------------------------------------------
          Reading file control.in.
------------------------------------------------------------
  XC: Using PBEsol gradient-corrected functionals.
  Spin treatment: No spin polarisation.
  Scalar relativistic treatment of kinetic energy: on-site free-atom approximation to ZORA.
  Charge =   0.000000E+00: Neutral system requested explicitly.
  Occupation type: Gaussian broadening, width =   0.100000E-01 eV.
  Using pulay charge density mixing.
  Pulay mixing - number of memorized iterations:   10
  Charge density mixing - mixing parameter:     0.5000
  Convergence accuracy of self-consistent charge density:  0.1000E-04
  Convergence accuracy of sum of eigenvalues:  0.1000E-02
  Convergence accuracy of total energy:  0.1000E-05
  Convergence accuracy of forces:  0.1000E-03
  Maximum number of s.-c. iterations  :  1500
 
  Reading configuration options for species Al                  .
  | Found nuclear charge :  13.0000
  | Found atomic mass :    26.9815386000000      amu
  | Found l_max for Hartree potential  :   4
  | Found cutoff potl. onset [A], width [A], scale factor :    3.50000    1.50000    1.00000
  | Threshold for basis-dependent cutoff potential is   0.100000E-03
  | Found data for basic radial integration grid :    41 points, outermost radius =    5.000 A
  | Found multiplier for basic radial grid :   1
  | Found angular grid specification: user-specified.
  | Specified grid contains     4 separate shells.
  | Check grid settings after all constraints further below.
  | Found free-atom valence shell :  3 s   2.000
  | Found free-atom valence shell :  3 p   1.000
  | Found free-ion valence shell :  3 s   1.000
  | Found free-ion valence shell :  2 p   6.000
  | Found ionic basis function :  3 d , default cutoff radius.
  | Found ionic basis function :  3 p , default cutoff radius.
  | Found ionic basis function :  3 s , default cutoff radius.
  Species Al                  : Missing cutoff potential type.
  Defaulting to exp(1/x)/(1-x)^2 type cutoff potential.
  Species Al: No 'logarithmic' tag. Using default grid for free atom:
  | Default logarithmic grid data [bohr] : 0.1000E-03 0.1000E+03 0.1012E+01
  | Will include ionic basis functions of  2.0-fold positive Al                   ion.
  Species Al: On-site basis accuracy parameter (for Gram-Schmidt orthonormalisation) not specified.
  Using default value basis_acc =  0.1000000E-03.
  Species Al                  : Using default innermost maximum threshold i_radial=  2 for radial functions.
  Species Al                  : Default cutoff onset for free atom density etc. : 0.35000000E+01 AA.
  Species Al                  : Basic radial grid will be enhanced according to radial_multiplier =   1, to contain    41 grid points.
 
  Reading configuration options for species F                   .
  | Found nuclear charge :   9.0000
  | Found atomic mass :    18.9984032000000      amu
  | Found l_max for Hartree potential  :   4
  | Found cutoff potl. onset [A], width [A], scale factor :    3.50000    1.50000    1.00000
  | Threshold for basis-dependent cutoff potential is   0.100000E-03
  | Found data for basic radial integration grid :    37 points, outermost radius =    5.000 A
  | Found multiplier for basic radial grid :   1
  | Found angular grid specification: user-specified.
  | Specified grid contains     4 separate shells.
  | Check grid settings after all constraints further below.
  | Found free-atom valence shell :  2 s   2.000
  | Found free-atom valence shell :  2 p   5.000
  | Found free-ion valence shell :  2 s   1.000
  | Found free-ion valence shell :  2 p   4.000
  | Found hydrogenic basis function :  2 p   1.700
  | Found hydrogenic basis function :  3 d   7.400
  | Found hydrogenic basis function :  3 s   6.800
  Species F                   : Missing cutoff potential type.
  Defaulting to exp(1/x)/(1-x)^2 type cutoff potential.
  Species F : No 'logarithmic' tag. Using default grid for free atom:
  | Default logarithmic grid data [bohr] : 0.1000E-03 0.1000E+03 0.1012E+01
  Species F : On-site basis accuracy parameter (for Gram-Schmidt orthonormalisation) not specified.
  Using default value basis_acc =  0.1000000E-03.
  Species F                   : Using default innermost maximum threshold i_radial=  2 for radial functions.
  Species F                   : Default cutoff onset for free atom density etc. : 0.35000000E+01 AA.
  Species F                   : Basic radial grid will be enhanced according to radial_multiplier =   1, to contain    37 grid points.
 
  Finished reading input file 'control.in'.
 
------------------------------------------------------------


------------------------------------------------------------
          Reading geometry description geometry.in.
------------------------------------------------------------
  | The smallest distance between any two atoms is         1.81281756 AA.
  | The first atom of this pair is atom number                      3 .
  | The second atom of this pair is atom number                     9 .
  Input structure read successfully.
  The structure contains       12 atoms,  and a total of        120.000 electrons.

  Input geometry:
  | No unit cell requested.
  | Atomic structure:
  |       Atom                x [A]            y [A]            z [A]
  |    1: Species Al            0.30322600       -0.59991108        1.73365392
  |    2: Species Al            2.38645656       -1.76855605       -0.45332889
  |    3: Species Al           -0.83906698       -1.84943254       -1.04500274
  |    4: Species F             3.46719091       -0.49763659       -1.17602120
  |    5: Species F            -1.86131045       -0.56368769       -1.82841582
  |    6: Species F             2.70617539       -3.55946448       -0.53321819
  |    7: Species F            -1.26740957       -3.61703799       -1.03832367
  |    8: Species F             1.87696760       -1.43764113        1.26613400
  |    9: Species F             0.88699376       -1.50778408       -1.48123447
  |   10: Species F             0.14124115       -1.17194624        3.44797808
  |   11: Species F             0.39795738        1.13504937        1.19737787
  |   12: Species F            -0.96480427       -1.42932092        0.73575921

 
  Finished reading input file 'control.in'.
 

------------------------------------------------------------
          Reading geometry description geometry.in.
------------------------------------------------------------
 
  Consistency checks for stacksize environment parameter are next.
 
  | Maximum stacksize for task 0: unlimited
  | Maximum stacksize for task 1: unlimited
  | Maximum stacksize for task 2: unlimited
  | Maximum stacksize for task 3: unlimited
  | Maximum stacksize for task 4: unlimited
  | Maximum stacksize for task 5: unlimited
  | Maximum stacksize for task 6: unlimited
  | Maximum stacksize for task 7: unlimited
  | Maximum stacksize for task 8: unlimited
  | Maximum stacksize for task 9: unlimited
  | Maximum stacksize for task 10: unlimited
  | Maximum stacksize for task 11: unlimited
  | Maximum stacksize for task 12: unlimited
  | Maximum stacksize for task 13: unlimited
  | Maximum stacksize for task 14: unlimited
  | Maximum stacksize for task 15: unlimited
  | Maximum stacksize for task 16: unlimited
  | Maximum stacksize for task 17: unlimited
  | Maximum stacksize for task 18: unlimited
  | Maximum stacksize for task 19: unlimited
  | Maximum stacksize for task 20: unlimited
  | Maximum stacksize for task 21: unlimited
  | Maximum stacksize for task 22: unlimited
  | Maximum stacksize for task 23: unlimited
  | Current stacksize for task 0: unlimited
  | Current stacksize for task 1: unlimited
  | Current stacksize for task 2: unlimited
  | Current stacksize for task 3: unlimited
  | Current stacksize for task 4: unlimited
  | Current stacksize for task 5: unlimited
  | Current stacksize for task 6: unlimited
  | Current stacksize for task 7: unlimited
  | Current stacksize for task 8: unlimited
  | Current stacksize for task 9: unlimited
  | Current stacksize for task 10: unlimited
  | Current stacksize for task 11: unlimited
  | Current stacksize for task 12: unlimited
  | Current stacksize for task 13: unlimited
  | Current stacksize for task 14: unlimited
  | Current stacksize for task 15: unlimited
  | Current stacksize for task 16: unlimited
  | Current stacksize for task 17: unlimited
  | Current stacksize for task 18: unlimited
  | Current stacksize for task 19: unlimited
  | Current stacksize for task 20: unlimited
  | Current stacksize for task 21: unlimited
  | Current stacksize for task 22: unlimited
  | Current stacksize for task 23: unlimited
 
  Consistency checks for the contents of control.in are next.
 
  MPI_IN_PLACE appears to work with this MPI implementation.
  | Keeping use_mpi_in_place .true. (see manual).
  Target number of points in a grid batch is not set. Defaulting to  100
  Method for grid partitioning is not set. Defaulting to parallel hash+maxmin partitioning.
  Batch size limit is not set. Defaulting to    200
  By default, will store active basis functions for each batch.
  If in need of memory, prune_basis_once .false. can be used to disable this option.
  communication_type for Hartree potential was not specified.
  Defaulting to calc_hartree .
  Pulay mixer: Number of initial linear mixing iterations not set.
  Defaulting to    0 iterations.
  Work space size for distributed Hartree potential not set.
  Defaulting to   0.200000E+03 MB.
  Algorithm-dependent basis array size parameters:
  | n_max_pulay                         :       10
  Presetting      1001 iterations before the initial mixing cycle
  is restarted anyway using the sc_init_iter criterion / keyword.
  Presetting a factor      1.000 between actual scf density residual
  and density convergence criterion sc_accuracy_rho below which sc_init_iter
  takes no effect.
  Geometry relaxation not requested: no relaxation will be performed.
  Forces evaluation will include force correction term due to incomplete self-consistency (default).
  Handling of forces: Unphysical translation and rotation will be removed from forces.
  No accuracy limit for integral partition fn. given. Defaulting to  0.1000E-14.
  No threshold value for u(r) in integrations given. Defaulting to  0.1000E-05.
  No accuracy for occupation numbers given. Defaulting to  0.1000E-12.
  No threshold value for occupation numbers given. Defaulting to  0.0000E+00.
  No accuracy for fermi level given. Defaulting to  0.1000E-19.
  Maximum # of iterations to find E_F not set. Defaulting to  200.
  Preferred method for the eigenvalue solver ('KS_method') not specified in 'control.in'.
  Calling BLACS routine to test compilation state
  Since ScaLAPACK support is enabled, defaulting to ELPA (via ELSI).
  Will not use alltoall communication since running on < 1024 CPUs.
  Threshold for basis singularities not set.
  Default threshold for basis singularities:  0.1000E-04
  partition_type (choice of integration weights) for integrals was not specified.
  | Using a version of the partition function of Stratmann and coworkers ('stratmann_sparse').
  | At each grid point, the set of atoms used to build the partition table is smoothly restricted to
  | only those atoms whose free-atom density would be non-zero at that grid point.
  Partitioning for Hartree potential was not defined. Using partition_type for integrals.
  | Adjusted default value of keyword multip_moments_threshold to:       0.10000000E-11
  | This value may affect high angular momentum components of the Hartree potential in periodic systems.
  No q(lm)/r^(l+1) cutoff set for long-range Hartree potential.
  | Using default value of  0.100000E-09 .
  | Verify using the multipole_threshold keyword.
  Defaulting to new monopole extrapolation.
  Density update method: automatic selection selected.
  Charge integration errors on the 3D integration grid will be compensated
  by explicit normalization and distribution of residual charges.
  Use the "compensate_multipole_errors" flag to change this behaviour.
  Set 'collect_eigenvectors' to be '.true.' for use_density_matrix .false.
 
  Consistency checks for the contents of geometry.in are next.
 
  Number of empty states per atom not set in control.in - providing a guess from actual geometry.
  | Total number of empty states used during s.c.f. cycle:       36
  If you use a very high smearing, use empty_states (per atom!) in control.in to increase this value.

  Structure-dependent array size parameters: 
  | Maximum number of distinct radial functions  :       14
  | Maximum number of basis functions            :      180
  | Number of Kohn-Sham states (occupied + empty):       96
------------------------------------------------------------

------------------------------------------------------------
          Preparing all fixed parts of the calculation.
------------------------------------------------------------
  Determining machine precision:
    2.225073858507201E-308
  Setting up grids for atomic and cluster calculations.

  Creating wave function, potential, and density for free atoms.

  Species: Al

  List of occupied orbitals and eigenvalues:
    n    l              occ      energy [Ha]    energy [eV]
    1    0           2.0000       -55.621123     -1513.5278
    2    0           2.0000        -3.957030      -107.6763
    3    0           2.0000        -0.272233        -7.4078
    2    1           6.0000        -2.540949       -69.1427
    3    1           1.0000        -0.083300        -2.2667


  Species: F

  List of occupied orbitals and eigenvalues:
    n    l              occ      energy [Ha]    energy [eV]
    1    0           2.0000       -24.399611      -663.9472
    2    0           2.0000        -1.098702       -29.8972
    2    1           5.0000        -0.408210       -11.1080


  Adding cutoff potential to free-atom effective potential.
  Creating fixed part of basis set: Ionic, confined, hydrogenic.
 
  Al                   ion:

  List of free ionic orbitals and eigenvalues:
    n    l      energy [Ha]    energy [eV]
    1    0       -56.418846     -1535.2349
    2    0        -4.732717      -128.7838
    3    0        -0.872690       -23.7471
    2    1        -3.317230       -90.2664


  List of ionic basis orbitals and eigenvalues:
    n    l      energy [Ha]    energy [eV]    outer radius [A]
    3    2        -0.346815        -9.4373       4.594041
    3    1        -0.631870       -17.1940       4.538221
    3    0        -0.872657       -23.7462       4.538221

 
  F                    hydrogenic:
 
  List of hydrogenic basis orbitals: 
    n    l      effective z      eigenvalue [eV]  inner max. [A]     outer max. [A]     outer radius [A]   
    2    1         1.700000        -9.7616           1.243167           1.243167           4.598524
    3    2         7.400000       -82.7828           0.642437           0.642437           3.305741
    3    0         6.800000       -69.9026           0.057798           1.022307           3.781556
 
  Creating atomic-like basis functions for current effective potential.

  Species Al                  :

  List of atomic basis orbitals and eigenvalues:
    n    l      energy [Ha]    energy [eV]    outer radius [A]
    1    0       -55.621123     -1513.5278       0.850197
    2    0        -3.957030      -107.6763       3.144911
    3    0        -0.272233        -7.4078       4.594041
    2    1        -2.540949       -69.1427       3.731966
    3    1        -0.083300        -2.2667       4.594041


  Species F                   :

  List of atomic basis orbitals and eigenvalues:
    n    l      energy [Ha]    energy [eV]    outer radius [A]
    1    0       -24.399611      -663.9472       1.258458
    2    0        -1.098702       -29.8972       4.325857
    2    1        -0.408210       -11.1080       4.487453

  Assembling full basis from fixed parts.
  | Species Al :   atomic orbital   1 s accepted.
  | Species Al :   atomic orbital   2 s accepted.
  | Species Al :    ionic orbital   3 s accepted.
  | Species Al :   atomic orbital   3 s accepted.
  | Species Al :   atomic orbital   2 p accepted.
  | Species Al :    ionic orbital   3 p accepted.
  | Species Al :   atomic orbital   3 p accepted.
  | Species Al :    ionic orbital   3 d accepted.
  | Species F :   atomic orbital   1 s accepted.
  | Species F :    hydro orbital   3 s accepted.
  | Species F :   atomic orbital   2 s accepted.
  | Species F :   atomic orbital   2 p accepted.
  | Species F :    hydro orbital   2 p accepted.
  | Species F :    hydro orbital   3 d accepted.
 
  Basis size parameters after reduction:
  | Total number of radial functions:       14
  | Total number of basis functions :      180
 
  Per-task memory consumption for arrays in subroutine allocate_ext:
  |           4.807768MB.
  Testing on-site integration grid accuracy.
  |  Species  Function  <phi|h_atom|phi> (log., in eV)  <phi|h_atom|phi> (rad., in eV)
           1        1              -1513.5277717935              -1513.5271881332
           1        2               -107.6762691836               -107.6762662489
           1        3                 -6.9467474784                 -6.9471269649
           1        4                  5.5771951849                  5.4862107220 ***
           1        5                -69.1427313144                -69.1427312731
           1        6                 -1.5197375330                 -1.5230432022
           1        7                  6.8210948310                  6.5529872240 ***
           1        8                  4.3216540965                  4.2851170187 ***
           2        9               -663.9471986398               -663.9470363334
           2       10                 16.8514011578                 16.8512525338
           2       11                -28.4490593856                -28.4490661472
           2       12                -11.1080115307                -11.1080620173
           2       13                  7.1940182175                  7.1685154137
           2       14                 44.8544281765                 44.8543763625
 * Note: Onsite integrals marked "***" above are less accurate than
 * onsite_accuracy_threshold =    0.03000 eV. Usually, this is harmless.
 * When in doubt, tighten the "radial" and/or "radial_multiplier" flags to check.

  Preparing densities etc. for the partition functions (integrals / Hartree potential).

  Preparations completed.
  max(cpu_time)          :      0.184 s.
  Wall clock time (cpu1) :      0.184 s.
------------------------------------------------------------

------------------------------------------------------------
          Begin self-consistency loop: Initialization.

          Date     :  20220517, Time     :  113621.676
------------------------------------------------------------

  Initializing index lists of integration centers etc. from given atomic structure:
  | Number of centers in hartree potential         :        12
  | Number of centers in hartree multipole         :        12
  | Number of centers in electron density summation:        12
  | Number of centers in basis integrals           :        12
  | Number of centers in integrals                 :        12
  | Number of centers in hamiltonian               :        12
  * Using 24 tasks for Scalapack Eigenvalue solver.
  Detailed listing of tasks and assigned k-points:
  (for non-periodic systems, the "k-point" denotes an internal label only)
   Task     0 k-point     1 on node-k98e-003
   Task     1 k-point     1 on node-k98e-003
   Task     2 k-point     1 on node-k98e-003
   Task     3 k-point     1 on node-k98e-003
   Task     4 k-point     1 on node-k98e-003
   Task     5 k-point     1 on node-k98e-003
   Task     6 k-point     1 on node-k98e-003
   Task     7 k-point     1 on node-k98e-003
   Task     8 k-point     1 on node-k98e-003
   Task     9 k-point     1 on node-k98e-003
   Task    10 k-point     1 on node-k98e-003
   Task    11 k-point     1 on node-k98e-003
   Task    12 k-point     1 on node-k98e-003
   Task    13 k-point     1 on node-k98e-003
   Task    14 k-point     1 on node-k98e-003
   Task    15 k-point     1 on node-k98e-003
   Task    16 k-point     1 on node-k98e-003
   Task    17 k-point     1 on node-k98e-003
   Task    18 k-point     1 on node-k98e-003
   Task    19 k-point     1 on node-k98e-003
   Task    20 k-point     1 on node-k98e-003
   Task    21 k-point     1 on node-k98e-003
   Task    22 k-point     1 on node-k98e-003
   Task    23 k-point     1 on node-k98e-003
  Tasks:    24 split into      6 X      4 BLACS grid
  Calculating block size based on n_basis =          180  max_nprow =            6  max_npcol =            4
  ScaLAPACK block size set to:           16
  Allocating        0.012 MB for ovlp
  Allocating        0.012 MB for ham
  Allocating        0.012 MB for eigenvec
  Required Scalapack workspace - INTEGER:            1  REAL:             1
  Partitioning the integration grid into batches with parallel hashing+maxmin method.
  | Number of batches:     1039
  | Maximal batch size:     200
  | Minimal batch size:      18
  | Average batch size:      88.470
  | Standard deviation of batch sizes:      24.706

  Integration load balanced across    24 MPI tasks.
  Work distribution over tasks is as follows:
  Task     0 has       3749 integration points.
  Task     1 has       3932 integration points.
  Task     2 has       3759 integration points.
  Task     3 has       3765 integration points.
  Task     4 has       3748 integration points.
  Task     5 has       3923 integration points.
  Task     6 has       3904 integration points.
  Task     7 has       3900 integration points.
  Task     8 has       3773 integration points.
  Task     9 has       3903 integration points.
  Task    10 has       3755 integration points.
  Task    11 has       3754 integration points.
  Task    12 has       3911 integration points.
  Task    13 has       3916 integration points.
  Task    14 has       3876 integration points.
  Task    15 has       3770 integration points.
  Task    16 has       3758 integration points.
  Task    17 has       3873 integration points.
  Task    18 has       3869 integration points.
  Task    19 has       3923 integration points.
  Task    20 has       3820 integration points.
  Task    21 has       3760 integration points.
  Task    22 has       3814 integration points.
  Task    23 has       3765 integration points.
  Initializing partition tables, free-atom densities, potentials, etc. across the integration grid (initialize_grid_storage).
  | initialize_grid_storage: Actual outermost partition radius vs. multipole_radius_free
  | (-- VB: in principle, multipole_radius_free should be larger, hence this output)
  | Species        1: Confinement radius =              4.999999999999999 AA, multipole_radius_free =              5.004487022111096 AA.
  | Species        1: outer_partition_radius set to              5.004487022111096 AA .
  | Species        2: Confinement radius =              4.999999999999999 AA, multipole_radius_free =              5.009370088163274 AA.
  | Species        2: outer_partition_radius set to              5.009370088163274 AA .
  | The sparse table of interatomic distances needs          1.64 kbyte instead of         1.15 kbyte of memory.
  | Using the partition_type stratmann_smoother will reduce your memory usage.
  | Net number of integration points:    91920
  | of which are non-zero points    :    85816
  Renormalizing the initial density to the exact electron count on the 3D integration grid.
  | Initial density: Formal number of electrons (from input files) :     120.0000000000
  | Integrated number of electrons on 3D grid     :     119.9998177094
  | Charge integration error                      :      -0.0001822906
  | Normalization factor for density and gradient :       1.0000015191
  Renormalizing the free-atom superposition density to the exact electron count on the 3D integration grid.
  | Formal number of electrons (from input files) :     120.0000000000
  | Integrated number of electrons on 3D grid     :     119.9998177094
  | Charge integration error                      :      -0.0001822906
  | Normalization factor for density and gradient :       1.0000015191
  Obtaining max. number of non-zero basis functions in each batch (get_n_compute_maxes).
  | Maximal number of non-zero basis functions:      169 in task     0
  | Maximal number of non-zero basis functions:      159 in task     1
  | Maximal number of non-zero basis functions:      164 in task     2
  | Maximal number of non-zero basis functions:      163 in task     3
  | Maximal number of non-zero basis functions:      171 in task     4
  | Maximal number of non-zero basis functions:      171 in task     5
  | Maximal number of non-zero basis functions:      165 in task     6
  | Maximal number of non-zero basis functions:      169 in task     7
  | Maximal number of non-zero basis functions:      164 in task     8
  | Maximal number of non-zero basis functions:      171 in task     9
  | Maximal number of non-zero basis functions:      164 in task    10
  | Maximal number of non-zero basis functions:      171 in task    11
  | Maximal number of non-zero basis functions:      169 in task    12
  | Maximal number of non-zero basis functions:      166 in task    13
  | Maximal number of non-zero basis functions:      171 in task    14
  | Maximal number of non-zero basis functions:      164 in task    15
  | Maximal number of non-zero basis functions:      164 in task    16
  | Maximal number of non-zero basis functions:      165 in task    17
  | Maximal number of non-zero basis functions:      166 in task    18
  | Maximal number of non-zero basis functions:      160 in task    19
  | Maximal number of non-zero basis functions:      166 in task    20
  | Maximal number of non-zero basis functions:      163 in task    21
  | Maximal number of non-zero basis functions:      171 in task    22
  | Maximal number of non-zero basis functions:      171 in task    23
  Selecting the method for density update.
  Loop over occupied states selected for charge density update.
  Allocating        0.132 MB for KS_eigenvector
  Integrating Hamiltonian matrix: batch-based integration.
  Time summed over all CPUs for integration: real work        0.722 s, elapsed        0.769 s
  Integrating overlap matrix.
  Time summed over all CPUs for integration: real work        0.278 s, elapsed        0.309 s
  Deallocating overlap matrix.

  Updating Kohn-Sham eigenvalues and eigenvectors using ELSI and the ELPA eigensolver.
  Overlap matrix is not singular
  | Lowest and highest eigenvalues :  0.4088E-02,  0.5154E+01
  Finished singularity check of overlap matrix
  | Time :     0.004 s
  Starting ELPA eigensolver
  Finished Cholesky decomposition
  | Time :     0.001 s
  Finished transformation to standard eigenproblem
  | Time :     0.001 s
  Finished solving standard eigenproblem
  | Time :     0.004 s
  Finished back-transformation of eigenvectors
  | Time :     0.000 s

  Obtaining occupation numbers and chemical potential using ELSI.
  | Chemical potential (Fermi level):    -7.75675950 eV
  Writing Kohn-Sham eigenvalues.

  State    Occupation    Eigenvalue [Ha]    Eigenvalue [eV]
      1       2.00000         -55.483522        -1509.78346
      2       2.00000         -55.483507        -1509.78304
      3       2.00000         -55.483437        -1509.78115
      4       2.00000         -24.377760         -663.35261
      5       2.00000         -24.377701         -663.35100
      6       2.00000         -24.375664         -663.29555
      7       2.00000         -24.340759         -662.34574
      8       2.00000         -24.340333         -662.33417
      9       2.00000         -24.340292         -662.33303
     10       2.00000         -24.340252         -662.33196
     11       2.00000         -24.340131         -662.32866
     12       2.00000         -24.339999         -662.32508
     13       2.00000          -3.948816         -107.45274
     14       2.00000          -3.948800         -107.45232
     15       2.00000          -3.948683         -107.44914
     16       2.00000          -2.541179          -69.14901
     17       2.00000          -2.541064          -69.14588
     18       2.00000          -2.541028          -69.14490
     19       2.00000          -2.540771          -69.13789
     20       2.00000          -2.540699          -69.13594
     21       2.00000          -2.540551          -69.13190
     22       2.00000          -2.540344          -69.12629
     23       2.00000          -2.540338          -69.12612
     24       2.00000          -2.540229          -69.12315
     25       2.00000          -1.206266          -32.82417
     26       2.00000          -1.199948          -32.65225
     27       2.00000          -1.198169          -32.60385
     28       2.00000          -1.150061          -31.29476
     29       2.00000          -1.149629          -31.28299
     30       2.00000          -1.149240          -31.27242
     31       2.00000          -1.147816          -31.23366
     32       2.00000          -1.147315          -31.22003
     33       2.00000          -1.147281          -31.21910
     34       2.00000          -0.579797          -15.77708
     35       2.00000          -0.577174          -15.70570
     36       2.00000          -0.554452          -15.08741
     37       2.00000          -0.538537          -14.65434
     38       2.00000          -0.514460          -13.99917
     39       2.00000          -0.504786          -13.73593
     40       2.00000          -0.504092          -13.71705
     41       2.00000          -0.499186          -13.58354
     42       2.00000          -0.495030          -13.47044
     43       2.00000          -0.494750          -13.46282
     44       2.00000          -0.493362          -13.42506
     45       2.00000          -0.493216          -13.42108
     46       2.00000          -0.482158          -13.12020
     47       2.00000          -0.480755          -13.08200
     48       2.00000          -0.477623          -12.99678
     49       2.00000          -0.455870          -12.40485
     50       2.00000          -0.455125          -12.38459
     51       2.00000          -0.455005          -12.38131
     52       2.00000          -0.452522          -12.31375
     53       2.00000          -0.452193          -12.30479
     54       2.00000          -0.450528          -12.25949
     55       2.00000          -0.450119          -12.24837
     56       2.00000          -0.448805          -12.21260
     57       2.00000          -0.448687          -12.20940
     58       2.00000          -0.447510          -12.17736
     59       2.00000          -0.447038          -12.16452
     60       2.00000          -0.446826          -12.15875
     61       0.00000          -0.137744           -3.74820
     62       0.00000          -0.082425           -2.24290
     63       0.00000          -0.080507           -2.19072
     64       0.00000          -0.025427           -0.69190
     65       0.00000          -0.012496           -0.34003
     66       0.00000          -0.000340           -0.00925
     67       0.00000           0.002223            0.06050
     68       0.00000           0.040970            1.11486
     69       0.00000           0.052571            1.43053
     70       0.00000           0.053249            1.44899
     71       0.00000           0.081580            2.21991
     72       0.00000           0.082765            2.25215
     73       0.00000           0.138292            3.76311
     74       0.00000           0.161855            4.40429
     75       0.00000           0.163688            4.45418
     76       0.00000           0.181566            4.94067
     77       0.00000           0.186997            5.08846
     78       0.00000           0.191300            5.20554
     79       0.00000           0.194734            5.29899
     80       0.00000           0.200863            5.46576
     81       0.00000           0.204998            5.57827
     82       0.00000           0.213738            5.81611
     83       0.00000           0.215706            5.86966
     84       0.00000           0.226692            6.16860
     85       0.00000           0.239028            6.50429
     86       0.00000           0.253164            6.88896
     87       0.00000           0.272825            7.42393
     88       0.00000           0.295951            8.05324
     89       0.00000           0.299094            8.13876
     90       0.00000           0.302516            8.23187
     91       0.00000           0.304424            8.28380
     92       0.00000           0.317877            8.64988
     93       0.00000           0.348876            9.49339
     94       0.00000           0.350882            9.54800
     95       0.00000           0.356720            9.70684
     96       0.00000           0.369472           10.05383

  Highest occupied state (VBM) at    -12.15875147 eV
  | Occupation number:      2.00000000

  Lowest unoccupied state (CBM) at    -3.74820048 eV
  | Occupation number:      0.00000000

  Overall HOMO-LUMO gap:      8.41055099 eV.
  Calculating total energy contributions from superposition of free atom densities.

  Total energy components:
  | Sum of eigenvalues            :        -887.86238107 Ha      -24159.96463441 eV
  | XC energy correction          :        -144.33081068 Ha       -3927.44118464 eV
  | XC potential correction       :         187.92723208 Ha        5113.76017028 eV
  | Free-atom electrostatic energy:        -781.12074608 Ha      -21255.37696243 eV
  | Hartree energy correction     :           0.00000000 Ha           0.00000000 eV
  | Entropy correction            :           0.00000000 Ha           0.00000000 eV
  | ---------------------------
  | Total energy                  :       -1625.38670574 Ha      -44229.02261120 eV
  | Total energy, T -> 0          :       -1625.38670574 Ha      -44229.02261120 eV  <-- do not rely on this value for anything but (periodic) metals
  | Electronic free energy        :       -1625.38670574 Ha      -44229.02261120 eV

  Derived energy quantities:
  | Kinetic energy                :        1627.58542858 Ha       44288.85290376 eV
  | Electrostatic energy          :       -3108.64132365 Ha      -84590.43433032 eV
  | Energy correction for multipole
  | error in Hartree potential    :           0.00000000 Ha           0.00000000 eV
  | Sum of eigenvalues per atom                           :       -2013.33038620 eV
  | Total energy (T->0) per atom                          :       -3685.75188427 eV  <-- do not rely on this value for anything but (periodic) metals
  | Electronic free energy per atom                       :       -3685.75188427 eV
  Initialize hartree_potential_storage
  Max. number of atoms included in rho_multipole:           12

  End scf initialization - timings             :  max(cpu_time)    wall_clock(cpu1)
  | Time for scf. initialization                :        0.115 s           0.116 s
  | Boundary condition initialization           :        0.000 s           0.000 s
  | Integration                                 :        0.046 s           0.046 s
  | Solution of K.-S. eqns.                     :        0.011 s           0.011 s
  | Grid partitioning                           :        0.035 s           0.035 s
  | Preloading free-atom quantities on grid     :        0.016 s           0.016 s
  | Free-atom superposition energy              :        0.005 s           0.005 s
  | Total energy evaluation                     :        0.000 s           0.000 s

  Partial memory accounting:
  | Current value for overall tracked memory usage:
  |   Minimum:        0.273 MB (on task 23)
  |   Maximum:        0.292 MB (on task  0)
  |   Average:        0.287 MB
  | Peak value for overall tracked memory usage:
  |   Minimum:        1.339 MB (on task 19 after allocating wave)
  |   Maximum:        1.426 MB (on task  4 after allocating wave)
  |   Average:        1.390 MB
  | Largest tracked array allocation so far:
  |   Minimum:        0.243 MB (H_times_psi on task  1)
  |   Maximum:        0.479 MB (all_coords on task 10)
  |   Average:        0.279 MB
  Note:  These values currently only include a subset of arrays which are explicitly tracked.
  The "true" memory usage will be greater.
------------------------------------------------------------
  Evaluating new KS density.
  Integration grid: deviation in total charge (<rho> - N_e) =   0.000000E+00

  Time for density update prior                :  max(cpu_time)    wall_clock(cpu1)
  | self-consistency iterative process          :        0.029 s           0.029 s

------------------------------------------------------------
          Begin self-consistency iteration #    1

  Date     :  20220517, Time     :  113621.821
------------------------------------------------------------
  Pulay mixing of updated and previous charge densities.
  Renormalizing the density to the exact electron count on the 3D integration grid.
  | Formal number of electrons (from input files) :     120.0000000000
  | Integrated number of electrons on 3D grid     :     120.0000000000
  | Charge integration error                      :       0.0000000000
  | Normalization factor for density and gradient :       1.0000000000

  Evaluating partitioned Hartree potential by multipole expansion.
  | Original multipole sum: apparent total charge =  -0.403910E-13
  | Sum of charges compensated after spline to logarithmic grids =   0.112299E-03
  | Analytical far-field extrapolation by fixed multipoles:
  | Hartree multipole sum: apparent total charge =  -0.408918E-13
  Summing up the Hartree potential.
  Time summed over all CPUs for potential: real work        0.382 s, elapsed        0.392 s
  | RMS charge density error from multipole expansion :   0.105477E-01

  Integrating Hamiltonian matrix: batch-based integration.
  Time summed over all CPUs for integration: real work        0.675 s, elapsed        0.718 s

  Updating Kohn-Sham eigenvalues and eigenvectors using ELSI and the ELPA eigensolver.
  Starting ELPA eigensolver
  Finished transformation to standard eigenproblem
  | Time :     0.001 s
  Finished solving standard eigenproblem
  | Time :     0.003 s
  Finished back-transformation of eigenvectors
  | Time :     0.000 s

  Obtaining occupation numbers and chemical potential using ELSI.
  | Chemical potential (Fermi level):    -7.74432860 eV
  Writing Kohn-Sham eigenvalues.

  State    Occupation    Eigenvalue [Ha]    Eigenvalue [eV]
      1       2.00000         -55.648178        -1514.26397
      2       2.00000         -55.647885        -1514.25601
      3       2.00000         -55.644657        -1514.16815
      4       2.00000         -24.279904         -660.68982
      5       2.00000         -24.277040         -660.61187
      6       2.00000         -24.272751         -660.49516
      7       2.00000         -24.082777         -655.32571
      8       2.00000         -24.074037         -655.08787
      9       2.00000         -24.072719         -655.05202
     10       2.00000         -24.071903         -655.02980
     11       2.00000         -24.069901         -654.97534
     12       2.00000         -24.068221         -654.92961
     13       2.00000          -4.088589         -111.25616
     14       2.00000          -4.088407         -111.25121
     15       2.00000          -4.085285         -111.16627
     16       2.00000          -2.682306          -72.98927
     17       2.00000          -2.681990          -72.98067
     18       2.00000          -2.681814          -72.97587
     19       2.00000          -2.681741          -72.97388
     20       2.00000          -2.679512          -72.91324
     21       2.00000          -2.679390          -72.90990
     22       2.00000          -2.678930          -72.89739
     23       2.00000          -2.678569          -72.88758
     24       2.00000          -2.676219          -72.82364
     25       2.00000          -1.203885          -32.75939
     26       2.00000          -1.195518          -32.53169
     27       2.00000          -1.192437          -32.44786
     28       2.00000          -1.029311          -28.00897
     29       2.00000          -1.022665          -27.82812
     30       2.00000          -1.020794          -27.77722
     31       2.00000          -1.018208          -27.70685
     32       2.00000          -1.017673          -27.69229
     33       2.00000          -1.015152          -27.62369
     34       2.00000          -0.589018          -16.02798
     35       2.00000          -0.585581          -15.93448
     36       2.00000          -0.558680          -15.20245
     37       2.00000          -0.546591          -14.87351
     38       2.00000          -0.506033          -13.76986
     39       2.00000          -0.495915          -13.49455
     40       2.00000          -0.493386          -13.42573
     41       2.00000          -0.487481          -13.26502
     42       2.00000          -0.482292          -13.12383
     43       2.00000          -0.408156          -11.10650
     44       2.00000          -0.398358          -10.83988
     45       2.00000          -0.395438          -10.76042
     46       2.00000          -0.372370          -10.13270
     47       2.00000          -0.369945          -10.06672
     48       2.00000          -0.366612           -9.97603
     49       2.00000          -0.343180           -9.33839
     50       2.00000          -0.340551           -9.26686
     51       2.00000          -0.338565           -9.21282
     52       2.00000          -0.334906           -9.11326
     53       2.00000          -0.332842           -9.05708
     54       2.00000          -0.330618           -8.99657
     55       2.00000          -0.326130           -8.87445
     56       2.00000          -0.325814           -8.86586
     57       2.00000          -0.324207           -8.82213
     58       2.00000          -0.322792           -8.78362
     59       2.00000          -0.322700           -8.78110
     60       2.00000          -0.319805           -8.70233
     61       0.00000          -0.155976           -4.24432
     62       0.00000          -0.087102           -2.37018
     63       0.00000          -0.083835           -2.28126
     64       0.00000          -0.046902           -1.27626
     65       0.00000          -0.032645           -0.88831
     66       0.00000          -0.013957           -0.37980
     67       0.00000          -0.008878           -0.24157
     68       0.00000           0.025367            0.69028
     69       0.00000           0.035771            0.97337
     70       0.00000           0.037155            1.01103
     71       0.00000           0.055628            1.51371
     72       0.00000           0.056065            1.52560
     73       0.00000           0.133512            3.63304
     74       0.00000           0.151442            4.12095
     75       0.00000           0.162044            4.40944
     76       0.00000           0.176311            4.79766
     77       0.00000           0.181656            4.94310
     78       0.00000           0.185524            5.04836
     79       0.00000           0.192598            5.24085
     80       0.00000           0.193593            5.26793
     81       0.00000           0.199827            5.43758
     82       0.00000           0.202513            5.51067
     83       0.00000           0.212663            5.78687
     84       0.00000           0.216954            5.90361
     85       0.00000           0.228113            6.20726
     86       0.00000           0.246207            6.69964
     87       0.00000           0.262713            7.14879
     88       0.00000           0.280068            7.62105
     89       0.00000           0.286166            7.78697
     90       0.00000           0.289566            7.87948
     91       0.00000           0.295631            8.04454
     92       0.00000           0.300399            8.17427
     93       0.00000           0.324732            8.83640
     94       0.00000           0.337034            9.17115
     95       0.00000           0.365629            9.94927
     96       0.00000           0.371886           10.11954

  Highest occupied state (VBM) at     -8.70233114 eV
  | Occupation number:      2.00000000

  Lowest unoccupied state (CBM) at    -4.24432333 eV
  | Occupation number:      0.00000000

  Overall HOMO-LUMO gap:      4.45800782 eV.

  Total energy components:
  | Sum of eigenvalues            :        -882.65267397 Ha      -24018.20129128 eV
  | XC energy correction          :        -145.71116156 Ha       -3965.00244321 eV
  | XC potential correction       :         189.74155468 Ha        5163.13040002 eV
  | Free-atom electrostatic energy:        -781.12074608 Ha      -21255.37696243 eV
  | Hartree energy correction     :          -5.41616343 Ha        -147.38130561 eV
  | Entropy correction            :           0.00000000 Ha           0.00000000 eV
  | ---------------------------
  | Total energy                  :       -1625.15919036 Ha      -44222.83160252 eV
  | Total energy, T -> 0          :       -1625.15919036 Ha      -44222.83160252 eV  <-- do not rely on this value for anything but (periodic) metals
  | Electronic free energy        :       -1625.15919036 Ha      -44222.83160252 eV

  Derived energy quantities:
  | Kinetic energy                :        1634.28673704 Ha       44471.20478495 eV
  | Electrostatic energy          :       -3113.73476584 Ha      -84729.03394425 eV
  | Energy correction for multipole
  | error in Hartree potential    :           0.04513542 Ha           1.22819732 eV
  | Sum of eigenvalues per atom                           :       -2001.51677427 eV
  | Total energy (T->0) per atom                          :       -3685.23596688 eV  <-- do not rely on this value for anything but (periodic) metals
  | Electronic free energy per atom                       :       -3685.23596688 eV
  Evaluating new KS density.
  Integration grid: deviation in total charge (<rho> - N_e) =   5.684342E-14

  Self-consistency convergence accuracy:
  | Change of charge density      :  0.6134E+00
  | Change of sum of eigenvalues  :  0.1418E+03 eV
  | Change of total energy        :  0.6191E+01 eV


------------------------------------------------------------
  End self-consistency iteration #     1       :  max(cpu_time)    wall_clock(cpu1)
  | Time for this iteration                     :        0.082 s           0.081 s
  | Charge density update                       :        0.027 s           0.027 s
  | Density mixing                              :        0.001 s           0.000 s
  | Hartree multipole update                    :        0.001 s           0.002 s
  | Hartree multipole summation                 :        0.017 s           0.017 s
  | Integration                                 :        0.030 s           0.030 s
  | Solution of K.-S. eqns.                     :        0.004 s           0.004 s
  | Total energy evaluation                     :        0.000 s           0.000 s

  Partial memory accounting:
  | Current value for overall tracked memory usage:
  |   Minimum:        0.273 MB (on task 23)
  |   Maximum:        0.292 MB (on task  0)
  |   Average:        0.287 MB
  | Peak value for overall tracked memory usage:
  |   Minimum:        1.339 MB (on task 19 after allocating wave)
  |   Maximum:        1.426 MB (on task  4 after allocating wave)
  |   Average:        1.390 MB
  | Largest tracked array allocation so far:
  |   Minimum:        0.728 MB (gradient_basis_wave on task  1)
  |   Maximum:        0.783 MB (gradient_basis_wave on task  4)
  |   Average:        0.762 MB
  Note:  These values currently only include a subset of arrays which are explicitly tracked.
  The "true" memory usage will be greater.
------------------------------------------------------------

------------------------------------------------------------
          Begin self-consistency iteration #    2

  Date     :  20220517, Time     :  113621.908
------------------------------------------------------------
  Pulay mixing of updated and previous charge densities.
  Renormalizing the density to the exact electron count on the 3D integration grid.
  | Formal number of electrons (from input files) :     120.0000000000
  | Integrated number of electrons on 3D grid     :     120.0000000000
  | Charge integration error                      :       0.0000000000
  | Normalization factor for density and gradient :       1.0000000000

  Evaluating partitioned Hartree potential by multipole expansion.
  | Original multipole sum: apparent total charge =  -0.725326E-14
  | Sum of charges compensated after spline to logarithmic grids =   0.733682E-04
  | Analytical far-field extrapolation by fixed multipoles:
  | Hartree multipole sum: apparent total charge =  -0.697038E-14
  Summing up the Hartree potential.
  Time summed over all CPUs for potential: real work        0.380 s, elapsed        0.391 s
  | RMS charge density error from multipole expansion :   0.125177E-01

  Integrating Hamiltonian matrix: batch-based integration.
  Time summed over all CPUs for integration: real work        0.675 s, elapsed        0.718 s

  Updating Kohn-Sham eigenvalues and eigenvectors using ELSI and the ELPA eigensolver.
  Starting ELPA eigensolver
  Finished transformation to standard eigenproblem
  | Time :     0.000 s
  Finished solving standard eigenproblem
  | Time :     0.003 s
  Finished back-transformation of eigenvectors
  | Time :     0.001 s

  Obtaining occupation numbers and chemical potential using ELSI.
  | Chemical potential (Fermi level):    -7.91803539 eV
  Highest occupied state (VBM) at     -9.88233545 eV
  | Occupation number:      2.00000000

  Lowest unoccupied state (CBM) at    -4.43212961 eV
  | Occupation number:      0.00000000

  Overall HOMO-LUMO gap:      5.45020585 eV.

  Checking to see if s.c.f. parameters should be adjusted.

  Total energy components:
  | Sum of eigenvalues            :        -885.86046723 Ha      -24105.48978718 eV
  | XC energy correction          :        -145.20596473 Ha       -3951.25533806 eV
  | XC potential correction       :         189.07682199 Ha        5145.04210318 eV
  | Free-atom electrostatic energy:        -781.12074608 Ha      -21255.37696243 eV
  | Hartree energy correction     :          -1.97931828 Ha         -53.85999082 eV
  | Entropy correction            :           0.00000000 Ha           0.00000000 eV
  | ---------------------------
  | Total energy                  :       -1625.08967434 Ha      -44220.93997531 eV
  | Total energy, T -> 0          :       -1625.08967434 Ha      -44220.93997531 eV  <-- do not rely on this value for anything but (periodic) metals
  | Electronic free energy        :       -1625.08967434 Ha      -44220.93997531 eV

  Derived energy quantities:
  | Kinetic energy                :        1630.34723237 Ha       44364.00540866 eV
  | Electrostatic energy          :       -3110.23094198 Ha      -84633.69004591 eV
  | Energy correction for multipole
  | error in Hartree potential    :           0.04919893 Ha           1.33877106 eV
  | Sum of eigenvalues per atom                           :       -2008.79081560 eV
  | Total energy (T->0) per atom                          :       -3685.07833128 eV  <-- do not rely on this value for anything but (periodic) metals
  | Electronic free energy per atom                       :       -3685.07833128 eV
  Evaluating new KS density.
  Integration grid: deviation in total charge (<rho> - N_e) =   0.000000E+00

  Self-consistency convergence accuracy:
  | Change of charge density      :  0.4964E+00
  | Change of sum of eigenvalues  : -0.8729E+02 eV
  | Change of total energy        :  0.1892E+01 eV


------------------------------------------------------------
  End self-consistency iteration #     2       :  max(cpu_time)    wall_clock(cpu1)
  | Time for this iteration                     :        0.084 s           0.082 s
  | Charge density update                       :        0.027 s           0.028 s
  | Density mixing                              :        0.004 s           0.002 s
  | Hartree multipole update                    :        0.001 s           0.001 s
  | Hartree multipole summation                 :        0.017 s           0.016 s
  | Integration                                 :        0.030 s           0.031 s
  | Solution of K.-S. eqns.                     :        0.004 s           0.004 s
  | Total energy evaluation                     :        0.000 s           0.000 s

  Partial memory accounting:
  | Current value for overall tracked memory usage:
  |   Minimum:        0.274 MB (on task 23)
  |   Maximum:        0.293 MB (on task  0)
  |   Average:        0.288 MB
  | Peak value for overall tracked memory usage:
  |   Minimum:        1.339 MB (on task 19 after allocating wave)
  |   Maximum:        1.426 MB (on task  4 after allocating wave)
  |   Average:        1.390 MB
  | Largest tracked array allocation so far:
  |   Minimum:        0.728 MB (gradient_basis_wave on task  1)
  |   Maximum:        0.783 MB (gradient_basis_wave on task  4)
  |   Average:        0.762 MB
  Note:  These values currently only include a subset of arrays which are explicitly tracked.
  The "true" memory usage will be greater.
------------------------------------------------------------

------------------------------------------------------------
          Begin self-consistency iteration #    3

  Date     :  20220517, Time     :  113621.996
------------------------------------------------------------
  Pulay mixing of updated and previous charge densities.
  Renormalizing the density to the exact electron count on the 3D integration grid.
  | Formal number of electrons (from input files) :     120.0000000000
  | Integrated number of electrons on 3D grid     :     120.0000000000
  | Charge integration error                      :      -0.0000000000
  | Normalization factor for density and gradient :       1.0000000000

  Evaluating partitioned Hartree potential by multipole expansion.
  | Original multipole sum: apparent total charge =  -0.106951E-12
  | Sum of charges compensated after spline to logarithmic grids =   0.942768E-04
  | Analytical far-field extrapolation by fixed multipoles:
  | Hartree multipole sum: apparent total charge =  -0.109663E-12
  Summing up the Hartree potential.
  Time summed over all CPUs for potential: real work        0.380 s, elapsed        0.391 s
  | RMS charge density error from multipole expansion :   0.171958E-01

  Integrating Hamiltonian matrix: batch-based integration.
  Time summed over all CPUs for integration: real work        0.675 s, elapsed        0.718 s

  Updating Kohn-Sham eigenvalues and eigenvectors using ELSI and the ELPA eigensolver.
  Starting ELPA eigensolver
  Finished transformation to standard eigenproblem
  | Time :     0.001 s
  Finished solving standard eigenproblem
  | Time :     0.003 s
  Finished back-transformation of eigenvectors
  | Time :     0.000 s

  Obtaining occupation numbers and chemical potential using ELSI.
  | Chemical potential (Fermi level):    -7.98477122 eV
  Highest occupied state (VBM) at     -9.67685874 eV
  | Occupation number:      2.00000000

  Lowest unoccupied state (CBM) at    -4.68687837 eV
  | Occupation number:      0.00000000

  Overall HOMO-LUMO gap:      4.98998037 eV.

  Total energy components:
  | Sum of eigenvalues            :        -886.97516168 Ha      -24135.82216638 eV
  | XC energy correction          :        -145.17522590 Ha       -3950.41889172 eV
  | XC potential correction       :         189.03502744 Ha        5143.90481560 eV
  | Free-atom electrostatic energy:        -781.12074608 Ha      -21255.37696243 eV
  | Hartree energy correction     :          -0.85248320 Ha         -23.19724814 eV
  | Entropy correction            :           0.00000000 Ha           0.00000000 eV
  | ---------------------------
  | Total energy                  :       -1625.08858941 Ha      -44220.91045307 eV
  | Total energy, T -> 0          :       -1625.08858941 Ha      -44220.91045307 eV  <-- do not rely on this value for anything but (periodic) metals
  | Electronic free energy        :       -1625.08858941 Ha      -44220.91045307 eV

  Derived energy quantities:
  | Kinetic energy                :        1628.68188849 Ha       44318.68909587 eV
  | Electrostatic energy          :       -3108.59525201 Ha      -84589.18065721 eV
  | Energy correction for multipole
  | error in Hartree potential    :           0.06471763 Ha           1.76105641 eV
  | Sum of eigenvalues per atom                           :       -2011.31851386 eV
  | Total energy (T->0) per atom                          :       -3685.07587109 eV  <-- do not rely on this value for anything but (periodic) metals
  | Electronic free energy per atom                       :       -3685.07587109 eV
  Evaluating new KS density.
  Integration grid: deviation in total charge (<rho> - N_e) =   2.842171E-14

  Self-consistency convergence accuracy:
  | Change of charge density      :  0.1264E+00
  | Change of sum of eigenvalues  : -0.3033E+02 eV
  | Change of total energy        :  0.2952E-01 eV


------------------------------------------------------------
  End self-consistency iteration #     3       :  max(cpu_time)    wall_clock(cpu1)
  | Time for this iteration                     :        0.084 s           0.081 s
  | Charge density update                       :        0.027 s           0.027 s
  | Density mixing                              :        0.004 s           0.001 s
  | Hartree multipole update                    :        0.001 s           0.001 s
  | Hartree multipole summation                 :        0.017 s           0.017 s
  | Integration                                 :        0.030 s           0.030 s
  | Solution of K.-S. eqns.                     :        0.004 s           0.004 s
  | Total energy evaluation                     :        0.000 s           0.001 s

  Partial memory accounting:
  | Current value for overall tracked memory usage:
  |   Minimum:        0.274 MB (on task 23)
  |   Maximum:        0.293 MB (on task  0)
  |   Average:        0.288 MB
  | Peak value for overall tracked memory usage:
  |   Minimum:        1.339 MB (on task 19 after allocating wave)
  |   Maximum:        1.426 MB (on task  4 after allocating wave)
  |   Average:        1.390 MB
  | Largest tracked array allocation so far:
  |   Minimum:        0.728 MB (gradient_basis_wave on task  1)
  |   Maximum:        0.783 MB (gradient_basis_wave on task  4)
  |   Average:        0.762 MB
  Note:  These values currently only include a subset of arrays which are explicitly tracked.
  The "true" memory usage will be greater.
------------------------------------------------------------

------------------------------------------------------------
          Begin self-consistency iteration #    4

  Date     :  20220517, Time     :  113622.083
------------------------------------------------------------
  Pulay mixing of updated and previous charge densities.
  Renormalizing the density to the exact electron count on the 3D integration grid.
  | Formal number of electrons (from input files) :     120.0000000000
  | Integrated number of electrons on 3D grid     :     120.0000000000
  | Charge integration error                      :       0.0000000000
  | Normalization factor for density and gradient :       1.0000000000

  Evaluating partitioned Hartree potential by multipole expansion.
  | Original multipole sum: apparent total charge =  -0.750846E-13
  | Sum of charges compensated after spline to logarithmic grids =   0.104176E-03
  | Analytical far-field extrapolation by fixed multipoles:
  | Hartree multipole sum: apparent total charge =  -0.756749E-13
  Summing up the Hartree potential.
  Time summed over all CPUs for potential: real work        0.380 s, elapsed        0.391 s
  | RMS charge density error from multipole expansion :   0.195069E-01

  Integrating Hamiltonian matrix: batch-based integration.
  Time summed over all CPUs for integration: real work        0.675 s, elapsed        0.719 s

  Updating Kohn-Sham eigenvalues and eigenvectors using ELSI and the ELPA eigensolver.
  Starting ELPA eigensolver
  Finished transformation to standard eigenproblem
  | Time :     0.001 s
  Finished solving standard eigenproblem
  | Time :     0.003 s
  Finished back-transformation of eigenvectors
  | Time :     0.000 s

  Obtaining occupation numbers and chemical potential using ELSI.
  | Chemical potential (Fermi level):    -7.98429415 eV
  Highest occupied state (VBM) at     -9.76291449 eV
  | Occupation number:      2.00000000

  Lowest unoccupied state (CBM) at    -4.64389797 eV
  | Occupation number:      0.00000000

  Overall HOMO-LUMO gap:      5.11901652 eV.

  Total energy components:
  | Sum of eigenvalues            :        -887.15707175 Ha      -24140.77219122 eV
  | XC energy correction          :        -145.15618237 Ha       -3949.90069099 eV
  | XC potential correction       :         189.00916225 Ha        5143.20098788 eV
  | Free-atom electrostatic energy:        -781.12074608 Ha      -21255.37696243 eV
  | Hartree energy correction     :          -0.66159347 Ha         -18.00287417 eV
  | Entropy correction            :           0.00000000 Ha           0.00000000 eV
  | ---------------------------
  | Total energy                  :       -1625.08643141 Ha      -44220.85173094 eV
  | Total energy, T -> 0          :       -1625.08643141 Ha      -44220.85173094 eV  <-- do not rely on this value for anything but (periodic) metals
  | Electronic free energy        :       -1625.08643141 Ha      -44220.85173094 eV

  Derived energy quantities:
  | Kinetic energy                :        1627.93051583 Ha       44298.24320549 eV
  | Electrostatic energy          :       -3107.86076487 Ha      -84569.19424543 eV
  | Energy correction for multipole
  | error in Hartree potential    :           0.07202985 Ha           1.96003199 eV
  | Sum of eigenvalues per atom                           :       -2011.73101593 eV
  | Total energy (T->0) per atom                          :       -3685.07097758 eV  <-- do not rely on this value for anything but (periodic) metals
  | Electronic free energy per atom                       :       -3685.07097758 eV
  Evaluating new KS density.
  Integration grid: deviation in total charge (<rho> - N_e) =   8.526513E-14

  Self-consistency convergence accuracy:
  | Change of charge density      :  0.8521E-01
  | Change of sum of eigenvalues  : -0.4950E+01 eV
  | Change of total energy        :  0.5872E-01 eV


------------------------------------------------------------
  End self-consistency iteration #     4       :  max(cpu_time)    wall_clock(cpu1)
  | Time for this iteration                     :        0.084 s           0.082 s
  | Charge density update                       :        0.027 s           0.027 s
  | Density mixing                              :        0.004 s           0.002 s
  | Hartree multipole update                    :        0.001 s           0.001 s
  | Hartree multipole summation                 :        0.017 s           0.017 s
  | Integration                                 :        0.030 s           0.030 s
  | Solution of K.-S. eqns.                     :        0.004 s           0.004 s
  | Total energy evaluation                     :        0.000 s           0.001 s

  Partial memory accounting:
  | Current value for overall tracked memory usage:
  |   Minimum:        0.274 MB (on task 23)
  |   Maximum:        0.293 MB (on task  0)
  |   Average:        0.288 MB
  | Peak value for overall tracked memory usage:
  |   Minimum:        1.339 MB (on task 19 after allocating wave)
  |   Maximum:        1.426 MB (on task  4 after allocating wave)
  |   Average:        1.390 MB
  | Largest tracked array allocation so far:
  |   Minimum:        0.728 MB (gradient_basis_wave on task  1)
  |   Maximum:        0.783 MB (gradient_basis_wave on task  4)
  |   Average:        0.762 MB
  Note:  These values currently only include a subset of arrays which are explicitly tracked.
  The "true" memory usage will be greater.
------------------------------------------------------------

------------------------------------------------------------
          Begin self-consistency iteration #    5

  Date     :  20220517, Time     :  113622.171
------------------------------------------------------------
  Pulay mixing of updated and previous charge densities.
  Renormalizing the density to the exact electron count on the 3D integration grid.
  | Formal number of electrons (from input files) :     120.0000000000
  | Integrated number of electrons on 3D grid     :     120.0000000000
  | Charge integration error                      :       0.0000000000
  | Normalization factor for density and gradient :       1.0000000000

  Evaluating partitioned Hartree potential by multipole expansion.
  | Original multipole sum: apparent total charge =  -0.146449E-13
  | Sum of charges compensated after spline to logarithmic grids =   0.104528E-03
  | Analytical far-field extrapolation by fixed multipoles:
  | Hartree multipole sum: apparent total charge =  -0.132736E-13
  Summing up the Hartree potential.
  Time summed over all CPUs for potential: real work        0.380 s, elapsed        0.391 s
  | RMS charge density error from multipole expansion :   0.192520E-01

  Integrating Hamiltonian matrix: batch-based integration.
  Time summed over all CPUs for integration: real work        0.675 s, elapsed        0.718 s

  Updating Kohn-Sham eigenvalues and eigenvectors using ELSI and the ELPA eigensolver.
  Starting ELPA eigensolver
  Finished transformation to standard eigenproblem
  | Time :     0.001 s
  Finished solving standard eigenproblem
  | Time :     0.003 s
  Finished back-transformation of eigenvectors
  | Time :     0.000 s

  Obtaining occupation numbers and chemical potential using ELSI.
  | Chemical potential (Fermi level):    -7.95408250 eV
  Highest occupied state (VBM) at     -9.80248907 eV
  | Occupation number:      2.00000000

  Lowest unoccupied state (CBM) at    -4.57378137 eV
  | Occupation number:      0.00000000

  Overall HOMO-LUMO gap:      5.22870769 eV.

  Total energy components:
  | Sum of eigenvalues            :        -886.92662765 Ha      -24134.50148829 eV
  | XC energy correction          :        -145.15073030 Ha       -3949.75233270 eV
  | XC potential correction       :         189.00222959 Ha        5143.01234064 eV
  | Free-atom electrostatic energy:        -781.12074608 Ha      -21255.37696243 eV
  | Hartree energy correction     :          -0.89041623 Ha         -24.22945851 eV
  | Entropy correction            :           0.00000000 Ha           0.00000000 eV
[...]
   Total forces(   7)            :  0.996387E+00  0.316775E+01 -0.644981E-01
  atom #    8
   Hellmann-Feynman              :  0.105423E+00 -0.756574E+00  0.282777E+00
   Ionic forces                  :  0.000000E+00  0.000000E+00  0.000000E+00
   Multipole                     :  0.118476E+00 -0.133896E-01  0.326490E+00
   Hartree pot. SCF incomplete   : -0.568928E-06 -0.409198E-06 -0.206973E-06
   Pulay + GGA                   : -0.818587E+00  0.100240E+01 -0.152218E+01
   ----------------------------------------------------------------
   Total forces(   8)            : -0.594689E+00  0.232437E+00 -0.912913E+00
  atom #    9
   Hellmann-Feynman              : -0.865795E-01  0.816143E+00 -0.319419E+00
   Ionic forces                  :  0.000000E+00  0.000000E+00  0.000000E+00
   Multipole                     :  0.213225E+00  0.112497E+00 -0.254077E+00
   Hartree pot. SCF incomplete   :  0.100428E-05  0.222660E-05  0.278086E-05
   Pulay + GGA                   : -0.463643E+00 -0.109314E+01  0.147562E+01
   ----------------------------------------------------------------
   Total forces(   9)            : -0.336996E+00 -0.164494E+00  0.902124E+00
  atom #   10
   Hellmann-Feynman              : -0.245838E+00 -0.103765E+01  0.299831E+01
   Ionic forces                  :  0.000000E+00  0.000000E+00  0.000000E+00
   Multipole                     : -0.413537E-01 -0.282589E+00  0.649911E+00
   Hartree pot. SCF incomplete   : -0.778166E-06 -0.138911E-05  0.216848E-05
   Pulay + GGA                   :  0.477819E+00  0.236574E+01 -0.672070E+01
   ----------------------------------------------------------------
   Total forces(  10)            :  0.190626E+00  0.104549E+01 -0.307248E+01
  atom #   11
   Hellmann-Feynman              :  0.213096E+00  0.278761E+01 -0.110982E+01
   Ionic forces                  :  0.000000E+00  0.000000E+00  0.000000E+00
   Multipole                     :  0.754626E-01  0.707198E+00 -0.278744E+00
   Hartree pot. SCF incomplete   :  0.127372E-05 -0.272337E-05 -0.681454E-05
   Pulay + GGA                   : -0.402187E+00 -0.673453E+01  0.213978E+01
   ----------------------------------------------------------------
   Total forces(  11)            : -0.113628E+00 -0.323973E+01  0.751203E+00
  atom #   12
   Hellmann-Feynman              : -0.297676E-01 -0.567687E+00  0.333574E+00
   Ionic forces                  :  0.000000E+00  0.000000E+00  0.000000E+00
   Multipole                     : -0.329323E+00 -0.151873E+00  0.428220E-01
   Hartree pot. SCF incomplete   : -0.111863E-06 -0.219054E-06 -0.179994E-05
   Pulay + GGA                   :  0.132095E+01  0.861032E+00 -0.567799E+00
   ----------------------------------------------------------------
   Total forces(  12)            :  0.961863E+00  0.141472E+00 -0.191405E+00


  Self-consistency convergence accuracy:
  | Change of charge density      :  0.1555E-05
  | Change of sum of eigenvalues  : -0.9299E-04 eV
  | Change of total energy        :  0.9671E-07 eV
  | Change of forces              :  0.1253E-05 eV/A

  Writing Kohn-Sham eigenvalues.

  State    Occupation    Eigenvalue [Ha]    Eigenvalue [eV]
      1       2.00000         -55.631573        -1513.81213
      2       2.00000         -55.631428        -1513.80818
      3       2.00000         -55.627611        -1513.70431
      4       2.00000         -24.339977         -662.32448
      5       2.00000         -24.339913         -662.32272
      6       2.00000         -24.334756         -662.18239
      7       2.00000         -24.224135         -659.17226
      8       2.00000         -24.215991         -658.95065
      9       2.00000         -24.215137         -658.92739
     10       2.00000         -24.214645         -658.91401
     11       2.00000         -24.213103         -658.87206
     12       2.00000         -24.209725         -658.78014
     13       2.00000          -4.086106         -111.18859
     14       2.00000          -4.085812         -111.18060
     15       2.00000          -4.082177         -111.08169
     16       2.00000          -2.679813          -72.92142
     17       2.00000          -2.679652          -72.91705
     18       2.00000          -2.678600          -72.88841
     19       2.00000          -2.678231          -72.87837
     20       2.00000          -2.675992          -72.81746
     21       2.00000          -2.674570          -72.77875
     22       2.00000          -2.674391          -72.77388
     23       2.00000          -2.673997          -72.76317
     24       2.00000          -2.670401          -72.66530
     25       2.00000          -1.223926          -33.30471
     26       2.00000          -1.216315          -33.09762
     27       2.00000          -1.212972          -33.00665
     28       2.00000          -1.071999          -29.17057
     29       2.00000          -1.064812          -28.97501
     30       2.00000          -1.062665          -28.91659
     31       2.00000          -1.061314          -28.87982
     32       2.00000          -1.061009          -28.87153
     33       2.00000          -1.056836          -28.75797
     34       2.00000          -0.607539          -16.53197
     35       2.00000          -0.604783          -16.45698
     36       2.00000          -0.579088          -15.75778
     37       2.00000          -0.565431          -15.38617
     38       2.00000          -0.523988          -14.25845
     39       2.00000          -0.517012          -14.06862
     40       2.00000          -0.513565          -13.97480
     41       2.00000          -0.507522          -13.81036
     42       2.00000          -0.502467          -13.67283
     43       2.00000          -0.442483          -12.04058
     44       2.00000          -0.434654          -11.82752
     45       2.00000          -0.431043          -11.72927
     46       2.00000          -0.413852          -11.26149
     47       2.00000          -0.411169          -11.18848
     48       2.00000          -0.407152          -11.07918
     49       2.00000          -0.381323          -10.37633
     50       2.00000          -0.378548          -10.30081
     51       2.00000          -0.375673          -10.22258
     52       2.00000          -0.373020          -10.15038
     53       2.00000          -0.370795          -10.08984
     54       2.00000          -0.368899          -10.03826
     55       2.00000          -0.366459           -9.97186
     56       2.00000          -0.366125           -9.96276
     57       2.00000          -0.364821           -9.92729
     58       2.00000          -0.363272           -9.88513
     59       2.00000          -0.361975           -9.84985
     60       2.00000          -0.359385           -9.77938
     61       0.00000          -0.168332           -4.58056
     62       0.00000          -0.098576           -2.68238
     63       0.00000          -0.095903           -2.60965
     64       0.00000          -0.053855           -1.46547
     65       0.00000          -0.038432           -1.04578
     66       0.00000          -0.019292           -0.52497
     67       0.00000          -0.014342           -0.39026
     68       0.00000           0.021327            0.58034
     69       0.00000           0.029397            0.79993
     70       0.00000           0.032249            0.87753
     71       0.00000           0.049029            1.33414
     72       0.00000           0.049617            1.35016
     73       0.00000           0.124872            3.39794
     74       0.00000           0.146327            3.98176
     75       0.00000           0.156073            4.24696
     76       0.00000           0.170412            4.63714
     77       0.00000           0.176850            4.81232
     78       0.00000           0.178532            4.85811
     79       0.00000           0.183636            4.99699
     80       0.00000           0.187567            5.10396
     81       0.00000           0.191572            5.21295
     82       0.00000           0.196581            5.34925
     83       0.00000           0.205222            5.58437
     84       0.00000           0.208380            5.67032
     85       0.00000           0.220858            6.00985
     86       0.00000           0.238434            6.48811
     87       0.00000           0.255848            6.96198
     88       0.00000           0.274855            7.47918
     89       0.00000           0.281435            7.65824
     90       0.00000           0.283587            7.71681
     91       0.00000           0.290467            7.90402
     92       0.00000           0.295740            8.04749
     93       0.00000           0.319735            8.70043
     94       0.00000           0.330478            8.99277
     95       0.00000           0.357469            9.72723
     96       0.00000           0.363881            9.90170

  Highest occupied state (VBM) at     -9.77937578 eV
  | Occupation number:      2.00000000

  Lowest unoccupied state (CBM) at    -4.58055602 eV
  | Occupation number:      0.00000000

  Overall HOMO-LUMO gap:      5.19881976 eV.
  | Chemical Potential                          :    -7.95431999 eV

  Self-consistency cycle converged.


------------------------------------------------------------
  End self-consistency iteration #    13       :  max(cpu_time)    wall_clock(cpu1)
  | Time for this iteration                     :        0.268 s           0.265 s
  | Charge density & force component update     :        0.146 s           0.146 s
  | Density mixing                              :        0.005 s           0.002 s
  | Hartree multipole update                    :        0.001 s           0.001 s
  | Hartree multipole summation                 :        0.049 s           0.049 s
  | Hartree pot. SCF incomplete forces          :        0.032 s           0.031 s
  | Integration                                 :        0.030 s           0.030 s
  | Solution of K.-S. eqns.                     :        0.004 s           0.004 s
  | Total energy evaluation                     :        0.000 s           0.000 s

  Partial memory accounting:
  | Current value for overall tracked memory usage:
  |   Minimum:        0.274 MB (on task 23)
  |   Maximum:        0.293 MB (on task  0)
  |   Average:        0.289 MB
  | Peak value for overall tracked memory usage:
  |   Minimum:        2.994 MB (on task  1 after allocating hessian_basis_wave)
  |   Maximum:        3.177 MB (on task  4 after allocating hessian_basis_wave)
  |   Average:        3.104 MB
  | Largest tracked array allocation so far:
  |   Minimum:        1.456 MB (hessian_basis_wave on task  1)
  |   Maximum:        1.566 MB (hessian_basis_wave on task  4)
  |   Average:        1.525 MB
  Note:  These values currently only include a subset of arrays which are explicitly tracked.
  The "true" memory usage will be greater.
------------------------------------------------------------
  Removing unitary transformations (pure translations, rotations) from forces on atoms.
  Atomic forces before filtering:
  | Net force on center of mass :   0.118764E-02  0.380439E-02  0.259735E-02 eV/A
  | Net torque on center of mass:   0.209371E-02  0.142262E-01 -0.697970E-02 eV
  Atomic forces after filtering:
  | Net force on center of mass :  -0.892031E-15  0.423715E-15 -0.446015E-15 eV/A
  | Net torque on center of mass:   0.311548E-14 -0.141613E-14 -0.350786E-14 eV

  Energy and forces in a compact form:
  | Total energy uncorrected      :         -0.442208475141361E+05 eV
  | Total energy corrected        :         -0.442208475141361E+05 eV  <-- do not rely on this value for anything but (periodic) metals
  | Electronic free energy        :         -0.442208475141361E+05 eV
  Total atomic forces (unitary forces cleaned) [eV/Ang]:
  |    1         -0.190919058653028E+00          0.194960276821826E+01          0.284937360484439E+01
  |    2          0.302370418508921E+01         -0.102402600026101E+01         -0.174939858714202E+01
  |    3         -0.330135999120666E+01         -0.806742941499035E+00         -0.160520958963107E+01
  |    4         -0.192465321129292E+01         -0.224128365939512E+01          0.152048278592490E+01
  |    5          0.195162404388045E+01         -0.230177911275208E+01          0.132618544627655E+01
  |    6         -0.660487563063507E+00          0.324332653511005E+01          0.248427111372381E+00
  |    7          0.996774358368525E+00          0.316718279120970E+01         -0.650449790708989E-01
  |    8         -0.595053462596365E+00          0.232305085547729E+00         -0.912842299280187E+00
  |    9         -0.336736344499896E+00         -0.164843026089720E+00          0.901975151114910E+00
  |   10          0.189743632736320E+00          0.104526409567252E+01         -0.307281397179792E+01
  |   11         -0.114253504269140E+00         -0.324001979062011E+01          0.750837696920870E+00
  |   12          0.961616915507012E+00          0.141013254858810E+00         -0.191972369531906E+00

  ------------------------------------ 
  Start decomposition of the XC Energy 
  ------------------------------------ 
  X and C from original XC functional choice 
  Hartree-Fock Energy :          0.000000000 Ha              0.000000000 eV
  X Energy            :       -140.218833121 Ha          -3815.548582185 eV
  C Energy            :         -4.936821480 Ha           -134.337747493 eV
  Total XC Energy     :       -145.155654600 Ha          -3949.886329678 eV
  ------------------------------------ 
  LDA X and C from self-consistent density 
  X Energy LDA        :       -132.787430978 Ha          -3613.329841120 eV
  C Energy LDA        :         -8.823982504 Ha           -240.112780738 eV
  ------------------------------------ 
  End decomposition of the XC Energy 
  ------------------------------------ 

------------------------------------------------------------

------------------------------------------------------------------------------
  Final output of selected total energy values:

  The following output summarizes some interesting total energy values
  at the end of a run (AFTER all relaxation, molecular dynamics, etc.).

  | Total energy of the DFT / Hartree-Fock s.c.f. calculation      :         -44220.847514136 eV
  | Final zero-broadening corrected energy (caution - metals only) :         -44220.847514136 eV
  | For reference only, the value of 1 Hartree used in FHI-aims is :             27.211384500 eV

  Before relying on these values, please be sure to understand exactly which
  total energy value is referred to by a given number. Different objects may
  all carry the same name 'total energy'. Definitions:

  Total energy of the DFT / Hartree-Fock s.c.f. calculation:
  | Note that this energy does not include ANY quantities calculated after the
  | s.c.f. cycle, in particular not ANY RPA, MP2, etc. many-body perturbation terms.

  Final zero-broadening corrected energy:
  | For metallic systems only, a broadening of the occupation numbers at the Fermi
  | level can be extrapolated back to zero broadening by an electron-gas inspired
  | formula. For all systems that are not real metals, this value can be
  | meaningless and should be avoided.

------------------------------------------------------------------------------
  Methods described in the following list of references were used in this FHI-aims run.
  If you publish the results, please make sure to cite these reference if they apply.
  FHI-aims is an academic code, and for our developers (often, Ph.D. students
  and postdocs), scientific credit in the community is essential.
  Thank you for helping us!

  For any use of FHI-aims, please cite:

    Volker Blum, Ralf Gehrke, Felix Hanke, Paula Havu, Ville Havu,
    Xinguo Ren, Karsten Reuter, and Matthias Scheffler
    'Ab initio molecular simulations with numeric atom-centered orbitals'
    Computer Physics Communications 180, 2175-2196 (2009)
    http://dx.doi.org/10.1016/j.cpc.2009.06.022


  The ELSI infrastructure was used in your run to solve the Kohn-Sham electronic structure.
  Please check out http://elsi-interchange.org to learn more.
  If scalability is important for your project, please acknowledge ELSI by citing:

    V. W-z. Yu, F. Corsetti, A. Garcia, W. P. Huhn, M. Jacquelin, W. Jia,
    B. Lange, L. Lin, J. Lu, W. Mi, A. Seifitokaldani, A. Vazquez-Mayagoitia,
    C. Yang, H. Yang, and V. Blum
    'ELSI: A unified software interface for Kohn-Sham electronic structure solvers'
    Computer Physics Communications 222, 267-285 (2018).
    http://dx.doi.org/10.1016/j.cpc.2017.09.007


  For the real-space grid partitioning and parallelization used in this calculation, please cite:

    Ville Havu, Volker Blum, Paula Havu, and Matthias Scheffler,
    'Efficient O(N) integration for all-electron electronic structure calculation'
    'using numerically tabulated basis functions'
    Journal of Computational Physics 228, 8367-8379 (2009).
    http://dx.doi.org/10.1016/j.jcp.2009.08.008

  Of course, there are many other important community references, e.g., those cited in the
  above references. Our list is limited to references that describe implementations in the
  FHI-aims code. The reason is purely practical (length of this list) - please credit others as well.

------------------------------------------------------------
          Leaving FHI-aims.
          Date     :  20220517, Time     :  113623.346

          Computational steps:
          | Number of self-consistency cycles          :           13
          | Number of SCF (re)initializations          :            1

          Detailed time accounting                     :  max(cpu_time)    wall_clock(cpu1)
          | Total time                                  :        1.838 s           1.898 s
          | Preparation time                            :        0.184 s           0.184 s
          | Boundary condition initalization            :        0.000 s           0.000 s
          | Grid partitioning                           :        0.035 s           0.035 s
          | Preloading free-atom quantities on grid     :        0.016 s           0.016 s
          | Free-atom superposition energy              :        0.005 s           0.005 s
          | Total time for integrations                 :        0.441 s           0.438 s
          | Total time for solution of K.-S. equations  :        0.063 s           0.063 s
          | Total time for density & force components   :        0.623 s           0.624 s
          | Total time for mixing                       :        0.057 s           0.032 s
          | Total time for Hartree multipole update     :        0.017 s           0.015 s
          | Total time for Hartree multipole sum        :        0.280 s           0.283 s
          | Total time for total energy evaluation      :        0.002 s           0.003 s
          | Total time NSC force correction             :        0.064 s           0.063 s
          | Total time for scaled ZORA corrections      :        0.000 s           0.000 s

          Partial memory accounting:
          | Residual value for overall tracked memory usage across tasks:     0.000000 MB (should be 0.000000 MB)
          | Peak values for overall tracked memory usage:
          |   Minimum:        2.994 MB (on task  1 after allocating hessian_basis_wave)
          |   Maximum:        3.177 MB (on task  4 after allocating hessian_basis_wave)
          |   Average:        3.104 MB
          | Largest tracked array allocation:
          |   Minimum:        1.456 MB (hessian_basis_wave on task  1)
          |   Maximum:        1.566 MB (hessian_basis_wave on task  4)
          |   Average:        1.525 MB
          Note:  These values currently only include a subset of arrays which are explicitly tracked.
          The "true" memory usage will be greater.

          Have a nice day.
------------------------------------------------------------
