********************************************************************************
*                       GENERAL UTILITY LATTICE PROGRAM                        *
*                                 Julian Gale                                  *
*                       Curtin Institute for Computation                       *
*                           Department of Chemistry                            *
*                    Curtin University, Western Australia                      *
********************************************************************************
* Version = 5.1.1 * Last modified =  11th January 2019                         *
********************************************************************************
*  single       - perform a single point run                                   *
*  phonon       - calculate phonons for final geometry                         *
*  eigenvectors - output phonon eigenvectors                                   *
********************************************************************************

  Job Started  at 10:30.51 17th May        2022                               

  Number of CPUs =     1

  Host name      = login04                                 


  Total number of configurations input =      1

********************************************************************************
*  Input for Configuration =   1                                               *
********************************************************************************

  Formula = Al3F9                                                       

  Number of irreducible atoms/shells =      21


  Total number atoms/shells =      21

  Dimensionality = 0               :  Cluster


  Charge on cluster =  -0.000000


  Initial cluster dipoles : x =      0.168845 e.Angs
                            y =     -0.004229 e.Angs
                            z =      0.115931 e.Angs

  Temperature of configuration =  0.000     K 

  Symmetry number =      1

  Cartesian coordinates of cluster :

--------------------------------------------------------------------------------
   No.  Atomic       x           y          z         Charge      Occupancy
        Label      (Angs)      (Angs)     (Angs)        (e)         (Frac)  
--------------------------------------------------------------------------------
      1 Al    c      0.3032     -0.5999      1.7337     3.00000    1.000000    
      2 Al    c      2.3865     -1.7686     -0.4533     3.00000    1.000000    
      3 Al    c     -0.8391     -1.8494     -1.0450     3.00000    1.000000    
      4 F     c      3.4672     -0.4976     -1.1760     0.59000    1.000000    
      5 F     c     -1.8613     -0.5637     -1.8284     0.59000    1.000000    
      6 F     c      2.7062     -3.5595     -0.5332     0.59000    1.000000    
      7 F     c     -1.2674     -3.6170     -1.0383     0.59000    1.000000    
      8 F     c      1.8770     -1.4376      1.2661     0.59000    1.000000    
      9 F     c      0.8870     -1.5078     -1.4812     0.59000    1.000000    
     10 F     c      0.1412     -1.1719      3.4480     0.59000    1.000000    
     11 F     c      0.3980      1.1350      1.1974     0.59000    1.000000    
     12 F     c     -0.9648     -1.4293      0.7358     0.59000    1.000000    
     13 F     s      3.4672     -0.4976     -1.1760    -1.59000    1.000000    
     14 F     s     -1.8613     -0.5637     -1.8284    -1.59000    1.000000    
     15 F     s      2.7062     -3.5595     -0.5332    -1.59000    1.000000    
     16 F     s     -1.2674     -3.6170     -1.0383    -1.59000    1.000000    
     17 F     s      1.8770     -1.4376      1.2661    -1.59000    1.000000    
     18 F     s      0.8870     -1.5078     -1.4812    -1.59000    1.000000    
     19 F     s      0.1412     -1.1719      3.4480    -1.59000    1.000000    
     20 F     s      0.3980      1.1350      1.1974    -1.59000    1.000000    
     21 F     s     -0.9648     -1.4293      0.7358    -1.59000    1.000000    
--------------------------------------------------------------------------------


  Brillouin zone sampling points :

--------------------------------------------------------------------------------
  Point number          x          y          z            Weight
--------------------------------------------------------------------------------
        1           0.000000   0.000000   0.000000     1.00000000
--------------------------------------------------------------------------------


********************************************************************************
*  General input information                                                   *
********************************************************************************

  Species output for all configurations : 

--------------------------------------------------------------------------------
  Species    Type    Atomic    Atomic    Charge       Radii (Angs)     Library
                     Number     Mass       (e)     Cova   Ionic  VDW   Symbol
--------------------------------------------------------------------------------
    Al       Core       13      26.98   3.000000   1.350  0.000  2.050          
    F        Core        9      19.00   0.590000   0.710  0.000  1.300          
    F        Shell       9       0.00  -1.590000   0.710  0.000  1.300          
--------------------------------------------------------------------------------


  Accuracy factor for short range sums = 12.000

  Time limit = Infinity

  Maximum range for interatomic potentials =    100000.000000 Angstroms

  General interatomic potentials :

--------------------------------------------------------------------------------
Atom  Types   Potential      Parameter       Value         Units   Cutoffs(Ang)
  1     2                                                            Min /  Max 
--------------------------------------------------------------------------------
Al   c F    s Buckingham    Buckingham A     3760.0008    eV        0.000 10.000
                            Buckingham rho  0.22200000    Ang       
                            Buckingham C     0.0000000    eV*Ang^6  
--------------------------------------------------------------------------------
F    s F    s Buck 4 range  Buck4 A          1127.7000    eV        0.000 12.000
                            Buck4 rho       0.27530000    Ang       
                            Buck4 C          15.830000    eV*Ang^6  
                            Buck4 minimum    2.7900000    Ang       
--------------------------------------------------------------------------------
F    c F    s Spring (c-s)  Spring k 2       20.770000    eV*Ang^-2 0.000  0.800
                            Spring k 4       0.0000000    eV*Ang^-4 
--------------------------------------------------------------------------------

********************************************************************************
*  Output for configuration   1                                                *
********************************************************************************


  Components of energy : 

--------------------------------------------------------------------------------
  Interatomic potentials     =          11.82169136 eV    
  Monopole - monopole (real) =        -182.37914951 eV    
--------------------------------------------------------------------------------
  Total lattice energy       =        -170.55745815 eV    
--------------------------------------------------------------------------------
  Total lattice energy       =          -16456.1875 kJ/mol
--------------------------------------------------------------------------------

  Born effective charge tensors : 

-------------------------------------------------------------------------------
  Atom             x           y             z
-------------------------------------------------------------------------------
    1 Al    x       1.9275     -0.0446     -0.0077
            y      -0.0158      2.0778     -0.1284
            z      -0.0168      0.0220      2.1067
-------------------------------------------------------------------------------
    2 Al    x       2.0345      0.0045     -0.0927
            y       0.0689      2.1831      0.0297
            z      -0.0861     -0.0620      1.9625
-------------------------------------------------------------------------------
    3 Al    x       2.0120      0.0182      0.0731
            y      -0.0743      2.1851      0.0169
            z       0.0887     -0.0325      1.9248
-------------------------------------------------------------------------------
    4 F     x      -0.8551     -0.3092      0.2180
            y      -0.2385     -0.7641      0.1581
            z       0.1801      0.1657     -0.6337
-------------------------------------------------------------------------------
    5 F     x      -0.7968      0.2812     -0.2169
            y       0.2303     -0.7665      0.1542
            z      -0.2284      0.2134     -0.6903
-------------------------------------------------------------------------------
    6 F     x      -0.6310      0.2462      0.0245
            y       0.1686     -1.0904     -0.0506
            z       0.0204     -0.0636     -0.5135
-------------------------------------------------------------------------------
    7 F     x      -0.6209     -0.2413     -0.0316
            y      -0.2026     -1.0822     -0.0287
            z      -0.0450     -0.0890     -0.5279
-------------------------------------------------------------------------------
    8 F     x      -0.6533      0.1691      0.1581
            y       0.1716     -0.3841     -0.1347
            z       0.1802     -0.1401     -0.6587
-------------------------------------------------------------------------------
    9 F     x      -0.8675     -0.0128     -0.1081
            y      -0.0076     -0.2968      0.0015
            z      -0.0778      0.0047     -0.4831
-------------------------------------------------------------------------------
   10 F     x      -0.5305     -0.0197      0.0832
            y      -0.0059     -0.5585      0.1091
            z       0.0630      0.1728     -1.1765
-------------------------------------------------------------------------------
   11 F     x      -0.5110      0.0042      0.0100
            y      -0.0069     -1.1201      0.0622
            z       0.0104      0.0003     -0.5533
-------------------------------------------------------------------------------
   12 F     x      -0.5080     -0.0959     -0.1099
            y      -0.0875     -0.3832     -0.1893
            z      -0.0889     -0.1918     -0.7571
-------------------------------------------------------------------------------




  Moment of inertia tensor (10^-46 x kgm^2): 

-------------------------------------------------------------------------------
                x           y           z           Principal axis system
-------------------------------------------------------------------------------
       x        153.87        2.78       -1.30          153.702183
       y          2.78      201.95      -24.15          155.310482
       z         -1.30      -24.15      167.80          214.606562
-------------------------------------------------------------------------------
  Centre of mass (Ang) =     0.604138    -1.405648     0.069698
-------------------------------------------------------------------------------


  Vibrational Frequency Calculation : 

--------------------------------------------------------------------------------

  Frequencies (cm-1) and Eigenvectors : 

  Frequency    -101.9865  -63.2941  -50.2934   -0.0000   -0.0000   -0.0000
  IR Intensity    0.0000    0.0001    0.0000    0.0000    0.0000    0.0000
     in X         0.0000    0.0000    0.0000    0.0000    0.0000    0.0000
     in Y         0.0000    0.0000    0.0000    0.0000    0.0000    0.0000
     in Z         0.0000    0.0001    0.0000    0.0000    0.0000    0.0000
  Raman Intsty    0.0180    0.0005    0.0008    0.0000    0.0000    0.0000

     1 x       0.358004  0.132534 -0.197991  0.050115  0.322647 -0.021822
     1 y      -0.088526  0.469331  0.094061 -0.002729 -0.021660 -0.326516
     1 z       0.110062 -0.226891 -0.087748  0.323373 -0.050185  0.000627
     2 x      -0.113944 -0.038077  0.091019  0.050115  0.322647 -0.021822
     2 y       0.184747 -0.313453  0.376536 -0.002729 -0.021660 -0.326516
     2 z      -0.446984  0.019717  0.044184  0.323373 -0.050185  0.000627
     3 x      -0.230846 -0.089224  0.128881  0.050115  0.322647 -0.021822
     3 y      -0.095119 -0.175726 -0.479022 -0.002729 -0.021660 -0.326516
     3 z       0.345475  0.169315  0.036338  0.323373 -0.050185  0.000627
     4 x      -0.013229 -0.050205  0.077424  0.042055  0.270760 -0.018313
     4 y       0.128099 -0.212567  0.285672 -0.002290 -0.018177 -0.274006
     4 z      -0.249459  0.021502  0.008563  0.271369 -0.042114  0.000526
     5 x      -0.101009 -0.039220  0.116692  0.042055  0.270760 -0.018313
     5 y      -0.069048 -0.111215 -0.359423 -0.002290 -0.018177 -0.274006
     5 z       0.173648  0.100304  0.039747  0.271369 -0.042114  0.000526
     6 x      -0.071632 -0.003170  0.014819  0.042055  0.270760 -0.018313
     6 y       0.131068 -0.244795  0.268106 -0.002290 -0.018177 -0.274006
     6 z      -0.201601  0.015872  0.028219  0.271369 -0.042114  0.000526
     7 x      -0.130392 -0.068703  0.043993  0.042055  0.270760 -0.018313
     7 y      -0.081677 -0.142376 -0.354784 -0.002290 -0.018177 -0.274006
     7 z       0.157502  0.112944  0.023319  0.271369 -0.042114  0.000526
     8 x       0.102432  0.009244 -0.057346  0.042055  0.270760 -0.018313
     8 y      -0.027247  0.055030  0.165159 -0.002290 -0.018177 -0.274006
     8 z      -0.162152 -0.063623  0.006064  0.271369 -0.042114  0.000526
     9 x      -0.195307 -0.063660  0.049923  0.042055  0.270760 -0.018313
     9 y       0.032432 -0.130529  0.018772 -0.002290 -0.018177 -0.274006
     9 z      -0.033568  0.097647  0.037455  0.271369 -0.042114  0.000526
    10 x       0.171985  0.094120 -0.136469  0.042055  0.270760 -0.018313
    10 y      -0.055292  0.348178  0.072140 -0.002290 -0.018177 -0.274006
    10 z       0.083112 -0.197850 -0.070603  0.271369 -0.042114  0.000526
    11 x       0.162548  0.046386 -0.111125  0.042055  0.270760 -0.018313
    11 y      -0.069719  0.380214  0.077834 -0.002290 -0.018177 -0.274006
    11 z       0.037158 -0.079920 -0.039847  0.271369 -0.042114  0.000526
    12 x       0.058857  0.068973 -0.024019  0.042055  0.270760 -0.018313
    12 y       0.010071  0.081711 -0.163439 -0.002290 -0.018177 -0.274006
    12 z       0.185168  0.038238 -0.024306  0.271369 -0.042114  0.000526


  Frequency     122.3183  123.9718  129.1693  130.0187  134.0146  145.7800
  IR Intensity    0.0034    0.0020    0.0025    0.0019    0.0003    0.0002
     in X         0.0002    0.0018    0.0000    0.0016    0.0001    0.0001
     in Y         0.0023    0.0001    0.0021    0.0002    0.0001    0.0001
     in Z         0.0009    0.0000    0.0005    0.0001    0.0000    0.0001
  Raman Intsty    0.0573    0.1547    0.0142    0.1039    0.0271    0.0694

     1 x       0.000775 -0.127853  0.024390 -0.127481  0.047275 -0.015383
     1 y      -0.046630 -0.005231 -0.014970  0.029385  0.049385 -0.036298
     1 z      -0.189632 -0.001148 -0.037227 -0.010299 -0.002365 -0.008609
     2 x       0.123033  0.088994  0.074679  0.040896 -0.064361 -0.088642
     2 y       0.020935 -0.024164  0.084415 -0.032102  0.051867  0.019360
     2 z       0.083251 -0.099907  0.052348 -0.087726  0.021062  0.007479
     3 x      -0.116638  0.058394 -0.102785  0.039794  0.039314  0.083928
     3 y       0.048244  0.001963  0.032569  0.098046 -0.005591  0.030376
     3 z       0.077072  0.119587  0.011073  0.082866 -0.025652  0.052740
     4 x       0.225374  0.135867 -0.102987  0.050125 -0.169625 -0.065765
     4 y      -0.060626 -0.069701  0.235059 -0.073014  0.245904 -0.027298
     4 z       0.074802 -0.128884  0.116906 -0.182115  0.254090 -0.051533
     5 x      -0.181487  0.098943 -0.058051  0.166208  0.049484  0.109508
     5 y       0.012600 -0.005660  0.058435  0.340197  0.037325  0.077449
     5 z       0.098283  0.047380  0.009239  0.380286  0.022538  0.093356
     6 x       0.208700  0.316800  0.397928  0.217577 -0.035581 -0.456688
     6 y       0.022399  0.002462  0.101897 -0.007876  0.049876 -0.037178
     6 z       0.023464 -0.204140  0.158442 -0.118896 -0.118710  0.192614
     7 x      -0.166042  0.284289 -0.340915  0.035818  0.022933  0.369556
     7 y       0.042497 -0.020415  0.062562  0.086072 -0.006032 -0.019920
     7 z       0.016556  0.351228  0.055772 -0.009241 -0.109399  0.312085
     8 x       0.076343 -0.286027  0.067811 -0.087663 -0.309389  0.077155
     8 y      -0.072566 -0.300598  0.051792  0.085218 -0.643435  0.164581
     8 z       0.052140 -0.129469  0.035730 -0.126843  0.078403  0.028996
     9 x      -0.066393  0.039987  0.025969  0.042040  0.007898  0.033639
     9 y       0.398637 -0.004373 -0.666785 -0.153882  0.028965 -0.139464
     9 z       0.409641  0.017655 -0.105078 -0.099136 -0.088258 -0.178045
    10 x      -0.019310 -0.151162  0.013781 -0.141179  0.051653 -0.061696
    10 y      -0.056228 -0.029518 -0.039231  0.129625  0.367171  0.109250
    10 z      -0.190889 -0.014660 -0.053117  0.021248  0.114658  0.040180
    11 x       0.062146 -0.101703  0.093193 -0.322957  0.223777  0.109821
    11 y      -0.201775  0.025507 -0.090165  0.012400 -0.042572 -0.229246
    11 z      -0.520949  0.059629 -0.208689 -0.069965 -0.170746 -0.527991
    12 x      -0.147877 -0.360273 -0.092302  0.095790  0.132361 -0.091582
    12 y      -0.111806  0.434984  0.164872 -0.532340 -0.151195  0.085814
    12 z       0.071880 -0.020823 -0.040420  0.222726  0.025713  0.028837


  Frequency     153.5215  156.8063  158.5529  165.1734  165.6071  182.9504
  IR Intensity    0.0004    0.0004    0.0007    0.0003    0.0000    0.0106
     in X         0.0004    0.0002    0.0000    0.0001    0.0000    0.0008
     in Y         0.0000    0.0000    0.0000    0.0001    0.0000    0.0048
     in Z         0.0000    0.0002    0.0007    0.0001    0.0000    0.0050
  Raman Intsty    0.0051    0.0094    0.0577    0.0337    0.0265    0.0025

     1 x       0.027410 -0.006877 -0.024668 -0.007060  0.032576  0.017331
     1 y      -0.008221 -0.004698 -0.060532  0.031097  0.023406  0.094054
     1 z       0.004147  0.057610  0.124286 -0.088623 -0.048049 -0.089748
     2 x      -0.054640 -0.001815  0.027602 -0.009214 -0.053304  0.017665
     2 y      -0.079019  0.031457  0.046252  0.036629 -0.088875  0.107445
     2 z       0.015531 -0.001682 -0.016221  0.020451  0.028741 -0.058034
     3 x      -0.041335 -0.023101 -0.007976  0.027868  0.001013  0.020531
     3 y       0.092215  0.003270  0.029504 -0.093617  0.039209  0.113353
     3 z      -0.034514 -0.024874 -0.028571  0.037901  0.000861 -0.062633
     4 x      -0.359745 -0.057852  0.165799 -0.238663 -0.459309  0.279926
     4 y       0.189598 -0.154937 -0.201838  0.075096  0.158391 -0.040529
     4 z       0.032984 -0.455274 -0.277684 -0.315106 -0.164911  0.056135
     5 x      -0.455933 -0.240585  0.042816  0.301937  0.299128 -0.315801
     5 y      -0.204045 -0.071423 -0.199831  0.197068  0.031449 -0.084302
     5 z       0.001525  0.112179 -0.429484  0.163079 -0.385641  0.008191
     6 x       0.312396  0.200688  0.080848 -0.046343  0.180736 -0.087598
     6 y      -0.004502  0.056742  0.047041  0.004544 -0.048280  0.092971
     6 z       0.010826  0.375148  0.190021  0.470216  0.016339  0.388065
     7 x       0.515450  0.152291 -0.224642 -0.041717 -0.061379 -0.030188
     7 y      -0.023424 -0.028867  0.066903 -0.074639  0.033362  0.131282
     7 z      -0.005397 -0.264953  0.157595 -0.210266  0.451984  0.380818
     8 x       0.067265 -0.033124 -0.050288 -0.127384  0.072409 -0.205255
     8 y       0.083137 -0.029787 -0.028897 -0.200356  0.005295 -0.211022
     8 z       0.004534  0.038271  0.007721 -0.019967  0.047614 -0.107064
     9 x      -0.047977 -0.021697  0.011553 -0.013351 -0.040646  0.055818
     9 y       0.044348  0.009044  0.004763  0.092600  0.171182  0.017979
     9 z      -0.008994  0.013163  0.008828  0.096963  0.110203 -0.288671
    10 x       0.289596 -0.415072  0.255360  0.438027 -0.244211  0.023722
    10 y       0.000658  0.190274  0.441952 -0.220659 -0.126795 -0.267564
    10 z       0.037352  0.075838  0.321755 -0.119592 -0.130368 -0.218182
    11 x      -0.287755  0.422446 -0.291927 -0.150534  0.147206 -0.015545
    11 y      -0.017570 -0.013287 -0.108863  0.052654  0.030853  0.178068
    11 z      -0.076531  0.086300 -0.106972 -0.017275  0.029535  0.060061
    12 x       0.048408  0.030791  0.016489 -0.135787  0.129559  0.228754
    12 y      -0.074126  0.006457 -0.039372  0.104543 -0.224166 -0.192072
    12 z       0.021380 -0.017677  0.033492 -0.011981  0.047228 -0.028616


  Frequency     198.6744  203.0853  210.8879  230.8312  235.4807  267.1245
  IR Intensity    0.0044    0.0327    0.0287    0.0529    0.0350    0.0010
     in X         0.0041    0.0322    0.0003    0.0051    0.0310    0.0000
     in Y         0.0000    0.0003    0.0093    0.0166    0.0004    0.0001
     in Z         0.0004    0.0002    0.0191    0.0312    0.0036    0.0009
  Raman Intsty    0.0023    0.0086    0.0279    0.0026    0.1614    0.1204

     1 x       0.175428 -0.284398 -0.059012  0.038725 -0.012987  0.050974
     1 y       0.008154  0.009387 -0.125729 -0.262112  0.045060  0.007452
     1 z       0.019804 -0.057361  0.024487 -0.261039  0.059420 -0.097871
     2 x      -0.111981 -0.047139 -0.092026  0.219534  0.234472 -0.087302
     2 y      -0.033996  0.032710 -0.155848 -0.019362 -0.124148  0.018354
     2 z      -0.259542  0.073561 -0.128768 -0.115363 -0.059853  0.039191
     3 x      -0.206602 -0.064314  0.083139 -0.060850  0.275437  0.033579
     3 y       0.035671  0.031920 -0.143169  0.022657  0.113665  0.011442
     3 z       0.201960 -0.056748 -0.110865 -0.121900  0.178904  0.092518
     4 x       0.186525  0.054209 -0.109579  0.047979 -0.118733 -0.039844
     4 y       0.050048 -0.081160 -0.003888  0.291701  0.274683 -0.151757
     4 z       0.380189  0.035559  0.269384  0.017433 -0.061120  0.019715
     5 x       0.234031 -0.006053  0.065183 -0.113771 -0.052835  0.059066
     5 y       0.042016  0.037969  0.024112  0.145537 -0.394180 -0.136236
     5 z      -0.351054 -0.133609  0.270863  0.058302  0.011574 -0.002288
     6 x       0.106038  0.040063  0.270265 -0.183583 -0.153276  0.073994
     6 y      -0.030368  0.043752 -0.134017 -0.140987 -0.277053  0.127146
     6 z       0.349229 -0.079801  0.190459  0.158993  0.022584 -0.013728
     7 x       0.252794  0.108202 -0.232143  0.040606 -0.172103 -0.039647
     7 y      -0.055233  0.018915 -0.107686 -0.009543  0.314367  0.074524
     7 z      -0.267324  0.056044  0.129885  0.169202 -0.164054 -0.064767
     8 x      -0.058184 -0.242962 -0.045896  0.252497 -0.118900  0.359865
     8 y       0.045094  0.236503  0.223580 -0.100283  0.055714 -0.150189
     8 z      -0.209069 -0.159917 -0.237520 -0.111646 -0.263213  0.375684
     9 x      -0.158871 -0.067681  0.009827  0.029716  0.270603  0.036637
     9 y      -0.019108 -0.076671  0.405976 -0.064301  0.035340  0.139590
     9 z       0.005742  0.024514 -0.360446  0.196136 -0.007859 -0.505074
    10 x      -0.204638  0.416658  0.032881 -0.019752 -0.093141  0.008282
    10 y      -0.010830  0.001170  0.138884  0.397635 -0.065639  0.082184
    10 z      -0.023121  0.012585  0.153695 -0.161464  0.035847 -0.212788
    11 x      -0.093920  0.518261  0.087103 -0.059107  0.019276 -0.036853
    11 y       0.015887  0.020960 -0.145311 -0.103824  0.016132  0.051328
    11 z      -0.015865  0.131248  0.017208  0.375971 -0.070822  0.092869
    12 x      -0.093187 -0.348985  0.003270 -0.229825 -0.173043 -0.418226
    12 y      -0.049220 -0.289639  0.104493 -0.107520 -0.000569 -0.080975
    12 z       0.176291  0.161695 -0.177153 -0.109132  0.284389  0.270055


  Frequency     329.1037  359.6531  362.9917  449.5014  455.2197  473.9358
  IR Intensity    0.0011    0.2037    0.1977    0.0197    0.0424    0.0531
     in X         0.0002    0.1111    0.0989    0.0176    0.0005    0.0113
     in Y         0.0004    0.0137    0.0257    0.0002    0.0301    0.0370
     in Z         0.0005    0.0789    0.0730    0.0019    0.0119    0.0048
  Raman Intsty    5.7507    0.0128    0.0166    0.0005    0.0031    0.0687

     1 x       0.067107 -0.190677 -0.198846  0.029386 -0.016351  0.386032
     1 y      -0.133568 -0.076785  0.122258  0.015868  0.434326 -0.077659
     1 z      -0.130607 -0.067748  0.059876 -0.013081 -0.253799 -0.077904
     2 x      -0.165655 -0.199809 -0.128650 -0.090355  0.035667 -0.186182
     2 y       0.049105  0.023879  0.060066 -0.487856 -0.320452 -0.106511
     2 z       0.019355 -0.226975  0.125945  0.087398  0.037280 -0.160032
     3 x       0.121304 -0.100930 -0.152053 -0.118278  0.014742 -0.007973
     3 y       0.049041 -0.070498  0.004864  0.450238 -0.348613 -0.089834
     3 z       0.094406 -0.162426  0.222072 -0.144828  0.062406  0.119899
     4 x      -0.205129  0.145370  0.246136  0.210006  0.077806  0.048138
     4 y      -0.312636  0.117625  0.257202  0.279780  0.119447  0.063913
     4 z       0.144300  0.002175 -0.160144 -0.123602 -0.045855 -0.034230
     5 x       0.175816  0.239863  0.070283  0.199878 -0.084461 -0.057984
     5 y      -0.289055 -0.284437 -0.052972 -0.280571  0.139571  0.060122
     5 z       0.147108  0.212760 -0.026503  0.161519 -0.075360 -0.020359
     6 x      -0.013226  0.070354  0.076996 -0.048917 -0.039779  0.020188
     6 y       0.367934 -0.180232 -0.398357  0.341816  0.284611  0.004570
     6 z       0.002972  0.050961 -0.041551  0.002658  0.016318 -0.013044
     7 x       0.036628  0.095970  0.054677 -0.049438  0.046063 -0.001361
     7 y       0.359012  0.446927  0.086531 -0.309440  0.291900  0.085787
     7 z      -0.023647  0.035848 -0.052054  0.009825  0.000044  0.010105
     8 x      -0.111204  0.183549 -0.120978 -0.045292  0.111657 -0.404031
     8 y       0.058193 -0.069957  0.079824  0.032228 -0.060885  0.234561
     8 z      -0.173016  0.182653  0.206869  0.023290 -0.061491  0.412216
     9 x      -0.041219 -0.225424 -0.103435 -0.050446 -0.063986  0.404855
     9 y      -0.088270 -0.055786  0.038557 -0.000947  0.019852  0.010367
     9 z       0.182840  0.120539 -0.164041 -0.007147 -0.046168  0.069729
    10 x       0.022042  0.027026  0.090117 -0.002633 -0.034607 -0.009210
    10 y       0.154434 -0.063573  0.089521 -0.004210 -0.133517  0.003103
    10 z      -0.323142  0.232608 -0.343758  0.005361  0.318489  0.015838
    11 x      -0.037213  0.063261  0.016061  0.010563 -0.016400 -0.023798
    11 y      -0.264103  0.306298 -0.411565 -0.025040 -0.355050  0.026972
    11 z       0.145643 -0.093419  0.135800  0.009523  0.117452  0.007376
    12 x       0.146389 -0.014379  0.241591 -0.010124 -0.036879 -0.205445
    12 y       0.056701 -0.069812  0.088201 -0.007697 -0.026205 -0.162881
    12 z      -0.082984 -0.199370 -0.040680  0.002596 -0.039783 -0.306974


  Frequency     482.8086  483.6092  487.9243  528.7861  539.3104  557.5405
  IR Intensity    0.2638    0.1182    0.4208    0.3387    0.3471    0.0120
     in X         0.0000    0.0220    0.0037    0.1159    0.2150    0.0101
     in Y         0.1767    0.0833    0.3905    0.0095    0.0170    0.0003
     in Z         0.0871    0.0129    0.0266    0.2132    0.1151    0.0017
  Raman Intsty    0.0135    0.3283    0.0852    0.1092    0.0544    0.2153

     1 x      -0.243989 -0.381675 -0.262202 -0.057885 -0.202859  0.032828
     1 y      -0.382153 -0.006668  0.309702 -0.065707 -0.162514 -0.204228
     1 z      -0.084837  0.340409 -0.187639 -0.219334 -0.361470 -0.478135
     2 x       0.338463 -0.270233  0.106601  0.401366 -0.209729 -0.393485
     2 y      -0.222954 -0.270205  0.195433 -0.091029  0.014701  0.075270
     2 z       0.125192 -0.394697 -0.321137 -0.379629 -0.041876  0.164849
     3 x      -0.192591  0.343900 -0.029816  0.159387 -0.360153  0.515472
     3 y      -0.047272 -0.095883  0.402592 -0.002066 -0.080859  0.144603
     3 z       0.534221  0.094276  0.275280 -0.163050 -0.103369  0.249003
     4 x      -0.045960  0.066674 -0.151087 -0.076883  0.000279  0.120837
     4 y       0.025193  0.079352 -0.186051 -0.049967 -0.006500  0.082870
     4 z      -0.015247  0.028543  0.115571  0.069748  0.003597 -0.057815
     5 x      -0.005951 -0.160857  0.046404 -0.016595  0.020168 -0.110647
     5 y       0.057829  0.164659 -0.117559  0.011700  0.008366  0.073916
     5 z      -0.095481 -0.103515  0.017336  0.002516 -0.000810 -0.081297
     6 x      -0.062533  0.011873 -0.011409 -0.034274  0.013002  0.058099
     6 y       0.189496  0.182010 -0.074054  0.028655  0.023334 -0.102158
     6 z      -0.016789  0.056615  0.033085  0.033959  0.003201 -0.014520
     7 x       0.040015 -0.053503 -0.033338 -0.018132  0.027278 -0.071204
     7 y       0.089745 -0.033567 -0.237782 -0.026610 -0.004254 -0.132868
     7 z      -0.065687 -0.010587 -0.019974  0.009182 -0.000794 -0.028615
     8 x      -0.007645  0.176516  0.131067 -0.278530  0.030162  0.010932
     8 y       0.026240 -0.065112 -0.071213  0.159199 -0.004690  0.009035
     8 z       0.006483  0.078796  0.095820  0.434810 -0.000483 -0.035872
     9 x      -0.036564  0.149012  0.192325 -0.341420  0.547997 -0.214181
     9 y       0.065282 -0.035311 -0.020501 -0.016225  0.030612 -0.049174
     9 z      -0.189431  0.178286  0.052735 -0.003544  0.045395  0.014499
    10 x       0.036649  0.071887  0.025523  0.012782  0.005315 -0.024512
    10 y       0.045242  0.069480 -0.088044 -0.001881 -0.013873 -0.030351
    10 z       0.019043 -0.254641  0.194569  0.005527  0.109468  0.197104
    11 x       0.050349  0.051442  0.029697  0.000741  0.019016 -0.006009
    11 y       0.273390  0.050220 -0.183311 -0.063404  0.018668  0.078961
    11 z      -0.080187 -0.051524  0.083683  0.038015  0.027295  0.031897
    12 x       0.148559  0.053989 -0.008233  0.153073  0.257610  0.052203
    12 y       0.004980  0.032460 -0.103166  0.147767  0.220833  0.051125
    12 z      -0.247389  0.030378 -0.294583  0.317829  0.416952  0.051222




--------------------------------------------------------------------------------
  Vibrational properties (for cluster):  Temperature  =       0.000 K
--------------------------------------------------------------------------------
  Zero point energy            =        0.534645 eV
--------------------------------------------------------------------------------

  Phonon density of states : 

--------------------------------------------------------------------------------
 Frequency (cm-1) Density of States                                             
--------------------------------------------------------------------------------
    0.00000 |                                                              0.000
    8.71157 |                                                              0.000
   17.42314 |                                                              0.000
   26.13472 |                                                              0.000
   34.84629 |                                                              0.000
   43.55786 |                                                              0.000
   52.26943 |                                                              0.000
   60.98100 |                                                              0.000
   69.69257 |                                                              0.000
   78.40415 |                                                              0.000
   87.11572 |                                                              0.000
   95.82729 |                                                              0.000
  104.53886 |                                                              0.000
  113.25043 |                                                              0.000
  121.96200 |************************************************************  0.133
  130.67358 |***************                                               0.033
  139.38515 |***************                                               0.033
  148.09672 |******************************                                0.067
  156.80829 |******************************                                0.067
  165.51986 |***************                                               0.033
  174.23144 |                                                              0.000
  182.94301 |***************                                               0.033
  191.65458 |***************                                               0.033
  200.36615 |***************                                               0.033
  209.07772 |***************                                               0.033
  217.78929 |                                                              0.000
  226.50087 |***************                                               0.033
  235.21244 |***************                                               0.033
  243.92401 |                                                              0.000
  252.63558 |                                                              0.000
  261.34715 |***************                                               0.033
  270.05872 |                                                              0.000
  278.77030 |                                                              0.000
  287.48187 |                                                              0.000
  296.19344 |                                                              0.000
  304.90501 |                                                              0.000
  313.61658 |                                                              0.000
  322.32815 |***************                                               0.033
  331.03973 |                                                              0.000
  339.75130 |                                                              0.000
  348.46287 |                                                              0.000
  357.17444 |******************************                                0.067
  365.88601 |                                                              0.000
  374.59759 |                                                              0.000
  383.30916 |                                                              0.000
  392.02073 |                                                              0.000
  400.73230 |                                                              0.000
  409.44387 |                                                              0.000
  418.15544 |                                                              0.000
  426.86702 |                                                              0.000
  435.57859 |                                                              0.000
  444.29016 |***************                                               0.033
  453.00173 |***************                                               0.033
  461.71330 |                                                              0.000
  470.42487 |***************                                               0.033
  479.13645 |******************************                                0.067
  487.84802 |***************                                               0.033
  496.55959 |                                                              0.000
  505.27116 |                                                              0.000
  513.98273 |                                                              0.000
  522.69431 |***************                                               0.033
  531.40588 |***************                                               0.033
  540.11745 |                                                              0.000
  548.82902 |***************                                               0.033
--------------------------------------------------------------------------------



  XYZ File written as 002/3/sp_mod_20/sp_mod_20_eig.xyz


  Time to end of properties =       0.0145 seconds


  Peak dynamic memory used =       0.64 MB 


  Timing analysis for GULP :

--------------------------------------------------------------------------------
  Task / Subroutine                                          Time (Seconds)
--------------------------------------------------------------------------------
  Calculation of phonons                                          0.0040
--------------------------------------------------------------------------------
  Total CPU time                                                  0.0146
--------------------------------------------------------------------------------


  Job Finished at 10:30.51 17th May        2022                               

