********************************************************************************
*                       GENERAL UTILITY LATTICE PROGRAM                        *
*                                 Julian Gale                                  *
*                       Curtin Institute for Computation                       *
*                           Department of Chemistry                            *
*                    Curtin University, Western Australia                      *
********************************************************************************
* Version = 5.1.1 * Last modified =  11th January 2019                         *
********************************************************************************
*  single       - perform a single point run                                   *
*  phonon       - calculate phonons for final geometry                         *
*  eigenvectors - output phonon eigenvectors                                   *
********************************************************************************

  Job Started  at 10:31.38 17th May        2022                               

  Number of CPUs =     1

  Host name      = login04                                 


  Total number of configurations input =      1

********************************************************************************
*  Input for Configuration =   1                                               *
********************************************************************************

  Formula = Al3F9                                                       

  Number of irreducible atoms/shells =      21


  Total number atoms/shells =      21

  Dimensionality = 0               :  Cluster


  Charge on cluster =  -0.000000


  Initial cluster dipoles : x =      0.252514 e.Angs
                            y =      0.092244 e.Angs
                            z =     -0.243157 e.Angs

  Temperature of configuration =  0.000     K 

  Symmetry number =      1

  Cartesian coordinates of cluster :

--------------------------------------------------------------------------------
   No.  Atomic       x           y          z         Charge      Occupancy
        Label      (Angs)      (Angs)     (Angs)        (e)         (Frac)  
--------------------------------------------------------------------------------
      1 Al    c     -0.3686      1.0545     -1.8199     3.00000    1.000000    
      2 Al    c     -0.4492      1.0804      1.2815     3.00000    1.000000    
      3 Al    c     -3.0161      0.4410     -1.8585     3.00000    1.000000    
      4 F     c     -3.5149      0.2371     -3.5982     0.59000    1.000000    
      5 F     c     -1.3621     -0.5574     -1.8011     0.59000    1.000000    
      6 F     c     -1.9607      2.0628     -1.9336     0.59000    1.000000    
      7 F     c     -2.0526      0.8008      0.4541     0.59000    1.000000    
      8 F     c      0.5864      1.3162     -0.2957     0.59000    1.000000    
      9 F     c     -0.2431      2.7082      2.0619     0.59000    1.000000    
     10 F     c      0.3267     -0.4096      1.9805     0.59000    1.000000    
     11 F     c     -4.2800      0.2265     -0.5811     0.59000    1.000000    
     12 F     c      0.7461      1.2505     -3.2340     0.59000    1.000000    
     13 F     s     -3.5149      0.2371     -3.5982    -1.59000    1.000000    
     14 F     s     -1.3621     -0.5574     -1.8011    -1.59000    1.000000    
     15 F     s     -1.9607      2.0628     -1.9336    -1.59000    1.000000    
     16 F     s     -2.0526      0.8008      0.4541    -1.59000    1.000000    
     17 F     s      0.5864      1.3162     -0.2957    -1.59000    1.000000    
     18 F     s     -0.2431      2.7082      2.0619    -1.59000    1.000000    
     19 F     s      0.3267     -0.4096      1.9805    -1.59000    1.000000    
     20 F     s     -4.2800      0.2265     -0.5811    -1.59000    1.000000    
     21 F     s      0.7461      1.2505     -3.2340    -1.59000    1.000000    
--------------------------------------------------------------------------------


  Brillouin zone sampling points :

--------------------------------------------------------------------------------
  Point number          x          y          z            Weight
--------------------------------------------------------------------------------
        1           0.000000   0.000000   0.000000     1.00000000
--------------------------------------------------------------------------------


********************************************************************************
*  General input information                                                   *
********************************************************************************

  Species output for all configurations : 

--------------------------------------------------------------------------------
  Species    Type    Atomic    Atomic    Charge       Radii (Angs)     Library
                     Number     Mass       (e)     Cova   Ionic  VDW   Symbol
--------------------------------------------------------------------------------
    Al       Core       13      26.98   3.000000   1.350  0.000  2.050          
    F        Core        9      19.00   0.590000   0.710  0.000  1.300          
    F        Shell       9       0.00  -1.590000   0.710  0.000  1.300          
--------------------------------------------------------------------------------


  Accuracy factor for short range sums = 12.000

  Time limit = Infinity

  Maximum range for interatomic potentials =    100000.000000 Angstroms

  General interatomic potentials :

--------------------------------------------------------------------------------
Atom  Types   Potential      Parameter       Value         Units   Cutoffs(Ang)
  1     2                                                            Min /  Max 
--------------------------------------------------------------------------------
Al   c F    s Buckingham    Buckingham A     3760.0008    eV        0.000 10.000
                            Buckingham rho  0.22200000    Ang       
                            Buckingham C     0.0000000    eV*Ang^6  
--------------------------------------------------------------------------------
F    s F    s Buck 4 range  Buck4 A          1127.7000    eV        0.000 12.000
                            Buck4 rho       0.27530000    Ang       
                            Buck4 C          15.830000    eV*Ang^6  
                            Buck4 minimum    2.7900000    Ang       
--------------------------------------------------------------------------------
F    c F    s Spring (c-s)  Spring k 2       20.770000    eV*Ang^-2 0.000  0.800
                            Spring k 4       0.0000000    eV*Ang^-4 
--------------------------------------------------------------------------------

********************************************************************************
*  Output for configuration   1                                                *
********************************************************************************


  Components of energy : 

--------------------------------------------------------------------------------
  Interatomic potentials     =          10.46052617 eV    
  Monopole - monopole (real) =        -179.15035170 eV    
--------------------------------------------------------------------------------
  Total lattice energy       =        -168.68982553 eV    
--------------------------------------------------------------------------------
  Total lattice energy       =          -16275.9895 kJ/mol
--------------------------------------------------------------------------------

  Born effective charge tensors : 

-------------------------------------------------------------------------------
  Atom             x           y             z
-------------------------------------------------------------------------------
    1 Al    x       2.2916      0.1213     -0.1987
            y       0.1218      1.7554     -0.0366
            z      -0.0289      0.0141      2.2858
-------------------------------------------------------------------------------
    2 Al    x       2.0110     -0.0287      0.1690
            y      -0.0134      2.1340      0.0453
            z       0.1761      0.0193      2.1640
-------------------------------------------------------------------------------
    3 Al    x       2.3580      0.1666      0.2859
            y       0.1546      1.7545      0.1029
            z       0.1328      0.0796      2.6230
-------------------------------------------------------------------------------
    4 F     x      -0.6638     -0.0568     -0.2904
            y      -0.0537     -0.4981     -0.0970
            z      -0.2323     -0.0841     -1.0917
-------------------------------------------------------------------------------
    5 F     x      -0.8142     -0.0268     -0.0612
            y      -0.0175     -0.8003     -0.0119
            z      -0.0483     -0.0537     -0.3923
-------------------------------------------------------------------------------
    6 F     x      -0.8207      0.0042     -0.0724
            y      -0.0067     -0.7890      0.0211
            z      -0.0685      0.0728     -0.3981
-------------------------------------------------------------------------------
    7 F     x      -0.8575     -0.1018     -0.3340
            y      -0.1002     -0.3875     -0.0938
            z      -0.2255     -0.0745     -1.0638
-------------------------------------------------------------------------------
    8 F     x      -0.5519     -0.0629      0.0290
            y      -0.0637     -0.3100     -0.0032
            z       0.0274     -0.0005     -0.9542
-------------------------------------------------------------------------------
    9 F     x      -0.5231     -0.0895     -0.0646
            y      -0.0786     -0.9778     -0.2522
            z      -0.0647     -0.3388     -0.7419
-------------------------------------------------------------------------------
   10 F     x      -0.6375      0.2273     -0.1427
            y       0.2139     -0.8784      0.2002
            z      -0.1738      0.2852     -0.7230
-------------------------------------------------------------------------------
   11 F     x      -0.9739     -0.0906      0.3190
            y      -0.0922     -0.5081      0.0580
            z       0.1668      0.0214     -0.7770
-------------------------------------------------------------------------------
   12 F     x      -0.8179     -0.0622      0.3612
            y      -0.0643     -0.4948      0.0673
            z       0.3388      0.0593     -0.9308
-------------------------------------------------------------------------------




  Moment of inertia tensor (10^-46 x kgm^2): 

-------------------------------------------------------------------------------
                x           y           z           Principal axis system
-------------------------------------------------------------------------------
       x        167.41      -17.98      -39.99          105.111239
       y        -17.98      239.14      -11.44          192.889776
       z        -39.99      -11.44      134.88          243.440917
-------------------------------------------------------------------------------
  Centre of mass (Ang) =    -1.297012     0.851644    -0.780598
-------------------------------------------------------------------------------


  Vibrational Frequency Calculation : 

--------------------------------------------------------------------------------

  Frequencies (cm-1) and Eigenvectors : 

  Frequency    -295.2863 -217.8260  -94.4446    0.0000    0.0000    0.0000
  IR Intensity    0.0000    0.0474    0.0015    0.0000    0.0000    0.0000
     in X         0.0000    0.0175    0.0014    0.0000    0.0000    0.0000
     in Y         0.0000    0.0013    0.0000    0.0000    0.0000    0.0000
     in Z         0.0000    0.0287    0.0001    0.0000    0.0000    0.0000
  Raman Intsty    0.0013    0.0275    0.6550    0.0000    0.0000    0.0000

     1 x      -0.153067 -0.095073  0.355653 -0.321428  0.037635 -0.048545
     1 y       0.679976 -0.013521  0.067185 -0.026689 -0.318507 -0.070213
     1 z      -0.021038 -0.206602 -0.209349 -0.055324 -0.065006  0.315915
     2 x       0.001724  0.223589 -0.473402 -0.321428  0.037635 -0.048545
     2 y      -0.014232  0.022741 -0.099434 -0.026689 -0.318507 -0.070213
     2 z       0.000257 -0.223841 -0.001826 -0.055324 -0.065006  0.315915
     3 x       0.151004 -0.028319  0.192936 -0.321428  0.037635 -0.048545
     3 y      -0.672502  0.025287  0.041517 -0.026689 -0.318507 -0.070213
     3 z       0.023553  0.618121  0.155345 -0.055324 -0.065006  0.315915
     4 x       0.011876  0.060107  0.174412 -0.269736  0.031582 -0.040738
     4 y      -0.061232  0.031245  0.040706 -0.022397 -0.267285 -0.058921
     4 z      -0.001451  0.325557  0.106959 -0.046427 -0.054552  0.265110
     5 x      -0.080058  0.041772  0.183230 -0.269736  0.031582 -0.040738
     5 y       0.014635 -0.038287  0.082225 -0.022397 -0.267285 -0.058921
     5 z      -0.023390 -0.029878  0.111832 -0.046427 -0.054552  0.265110
     6 x       0.060876  0.020092  0.206178 -0.269736  0.031582 -0.040738
     6 y       0.056461  0.066944  0.007072 -0.022397 -0.267285 -0.058921
     6 z       0.021569 -0.047156  0.118503 -0.046427 -0.054552  0.265110
     7 x       0.001680  0.012889 -0.317805 -0.269736  0.031582 -0.040738
     7 y       0.003001 -0.034445 -0.046145 -0.022397 -0.267285 -0.058921
     7 z       0.000907 -0.424299  0.155424 -0.046427 -0.054552  0.265110
     8 x      -0.004041 -0.006056 -0.075614 -0.269736  0.031582 -0.040738
     8 y       0.019148 -0.005442 -0.014307 -0.022397 -0.267285 -0.058921
     8 z      -0.002408 -0.100346 -0.051545 -0.046427 -0.054552  0.265110
     9 x      -0.001288  0.006982 -0.233648 -0.269736  0.031582 -0.040738
     9 y      -0.002532 -0.034350 -0.083597 -0.022397 -0.267285 -0.058921
     9 z      -0.001816 -0.067814 -0.063072 -0.046427 -0.054552  0.265110
    10 x       0.002255  0.005071 -0.246585 -0.269736  0.031582 -0.040738
    10 y      -0.001543  0.018698 -0.019867 -0.022397 -0.267285 -0.058921
    10 z       0.002295 -0.058924 -0.058000 -0.046427 -0.054552  0.265110
    11 x       0.028420 -0.286070 -0.020694 -0.269736  0.031582 -0.040738
    11 y      -0.104024 -0.052669 -0.018503 -0.022397 -0.267285 -0.058921
    11 z       0.002691  0.230314 -0.036046 -0.046427 -0.054552  0.265110
    12 x      -0.019314  0.025814  0.240930 -0.269736  0.031582 -0.040738
    12 y       0.084139  0.007186  0.041371 -0.022397 -0.267285 -0.058921
    12 z      -0.001700 -0.051098 -0.217526 -0.046427 -0.054552  0.265110


  Frequency      39.0665  104.0198  137.9698  142.4009  151.4542  152.0335
  IR Intensity    0.0003    0.0310    0.0001    0.0008    0.0007    0.0012
     in X         0.0000    0.0029    0.0000    0.0001    0.0003    0.0005
     in Y         0.0001    0.0003    0.0001    0.0007    0.0000    0.0000
     in Z         0.0002    0.0278    0.0000    0.0000    0.0004    0.0006
  Raman Intsty    0.0000    0.0324    0.0011    0.0002    0.0020    0.0004

     1 x       0.039188  0.068531 -0.002961 -0.000204  0.057746  0.073170
     1 y      -0.243804  0.011642  0.011297  0.012773  0.023571  0.009185
     1 z      -0.023230  0.259611 -0.011374  0.001637  0.054562  0.063177
     2 x      -0.076470 -0.146084 -0.007030 -0.001545 -0.019979 -0.011233
     2 y       0.481279 -0.000792  0.031162 -0.026795  0.010297 -0.012681
     2 z      -0.021578  0.086496  0.005043 -0.003909 -0.041258 -0.044247
     3 x       0.037310  0.106848  0.000388 -0.017975 -0.012866 -0.029390
     3 y      -0.235585  0.009659 -0.001145  0.085576 -0.025798  0.001260
     3 z       0.028819 -0.084001 -0.000887 -0.001079  0.007904  0.003972
     4 x       0.037563  0.037646  0.000506 -0.095108 -0.288943 -0.547655
     4 y      -0.205285 -0.014622  0.031732  0.215855 -0.537327  0.284228
     4 z       0.022955 -0.065561 -0.004108  0.004295  0.131605  0.100149
     5 x       0.008897  0.095921 -0.017362  0.002657  0.016741 -0.023804
     5 y      -0.169574 -0.040776 -0.002259  0.080737  0.020125  0.028522
     5 z       0.070301 -0.204966 -0.041362  0.175336  0.221950 -0.229581
     6 x       0.045445  0.080606  0.016703 -0.035238  0.004141  0.032998
     6 y      -0.174109  0.038306  0.010911  0.047832 -0.059908 -0.000262
     6 z      -0.047664 -0.253644  0.034421 -0.203955 -0.218839  0.225322
     7 x      -0.034567  0.147431  0.007726 -0.075827 -0.033488  0.021648
     7 y       0.110448  0.008950 -0.037977  0.508605  0.207369 -0.201825
     7 z       0.027115 -0.529490  0.000006 -0.022856  0.040288  0.073747
     8 x      -0.046138  0.056250  0.153784  0.060380  0.086023  0.072510
     8 y       0.184033  0.039775 -0.653329 -0.218063 -0.051552  0.023594
     8 z      -0.026183  0.209838  0.006270  0.000673  0.009561  0.014624
     9 x      -0.062373 -0.335477 -0.013109  0.230670  0.167190 -0.172529
     9 y       0.402494 -0.036493  0.231397 -0.071674  0.076730  0.115492
     9 z      -0.029032  0.134936 -0.438514  0.048776 -0.214110 -0.283575
    10 x      -0.056732 -0.303515 -0.084530 -0.212656 -0.177230  0.166879
    10 y       0.392099 -0.019538  0.195537 -0.155867 -0.163431 -0.029727
    10 z      -0.016346  0.146615  0.482647 -0.068826 -0.257603 -0.265115
    11 x       0.064239 -0.007983 -0.018277  0.177090 -0.003055  0.110397
    11 y      -0.295519 -0.031866  0.074138 -0.594406  0.388545 -0.223156
    11 z       0.032254 -0.076520 -0.007991  0.079693  0.098583  0.112729
    12 x       0.043634  0.194214 -0.033997 -0.028464  0.198947  0.300772
    12 y      -0.246840  0.031825  0.100619  0.101716  0.109830  0.005800
    12 z      -0.014348  0.326455 -0.022768 -0.009143  0.163293  0.224410


  Frequency     156.7304  159.0895  164.9913  167.3000  177.1358  190.9311
  IR Intensity    0.0056    0.0000    0.0010    0.0044    0.0003    0.0328
     in X         0.0025    0.0000    0.0001    0.0010    0.0001    0.0170
     in Y         0.0001    0.0000    0.0001    0.0000    0.0001    0.0002
     in Z         0.0030    0.0000    0.0007    0.0034    0.0001    0.0156
  Raman Intsty    0.4957    0.0000    0.0420    0.1318    0.0024    0.0003

     1 x      -0.137179 -0.018116 -0.013439  0.021408 -0.000390  0.117892
     1 y      -0.026556  0.045562  0.070260 -0.040573  0.066248  0.000282
     1 z       0.181094 -0.000108  0.056441  0.112497  0.026087  0.159482
     2 x       0.043265 -0.006983 -0.006137 -0.021212  0.039008  0.021276
     2 y       0.008147  0.047874 -0.025895  0.019065 -0.255260  0.073539
     2 z      -0.076068  0.001339 -0.001097  0.010006 -0.002657  0.015207
     3 x      -0.036352  0.011969  0.053684  0.091011  0.003512  0.104841
     3 y      -0.003859 -0.058427 -0.011896  0.025698  0.045038 -0.035094
     3 z       0.003158  0.004831  0.003543  0.003763 -0.013495 -0.025425
     4 x       0.544185 -0.031488  0.002610  0.064735 -0.065799 -0.347796
     4 y       0.109980  0.306217  0.150936 -0.058370  0.076720  0.089323
     4 z      -0.150740 -0.024003  0.009796  0.037246  0.003566  0.091333
     5 x      -0.061423 -0.111166 -0.069281  0.082481  0.063819  0.174247
     5 y      -0.039221 -0.002878  0.016190 -0.036899  0.021659 -0.055920
     5 z       0.251648 -0.118264  0.214504 -0.114476  0.373783  0.358955
     6 x      -0.086441  0.092894  0.079104 -0.008275 -0.037067  0.207039
     6 y       0.032183  0.064827  0.065940  0.010773 -0.029688  0.009979
     6 z       0.202531  0.111136 -0.123833  0.214652 -0.290306  0.129867
     7 x      -0.069843 -0.000627  0.054188  0.207880  0.022351  0.031213
     7 y      -0.014066  0.004063  0.259434 -0.142190 -0.050543 -0.122800
     7 z       0.003021 -0.008556 -0.050596 -0.076213 -0.014851 -0.178609
     8 x       0.023688 -0.020647  0.139592  0.097806 -0.098382  0.213891
     8 y      -0.030002  0.058668 -0.249822  0.162668  0.478109 -0.013813
     8 z       0.076449  0.001399  0.016590  0.029782 -0.000920  0.102544
     9 x      -0.046966  0.439256 -0.481053 -0.052454 -0.064992  0.086008
     9 y       0.148782  0.033062 -0.001771  0.130739 -0.027261  0.022582
     9 z      -0.339074 -0.046209  0.036368 -0.200617 -0.481258  0.059190
    10 x      -0.017516 -0.430586  0.241086 -0.370498  0.096827 -0.028097
    10 y      -0.154355 -0.121888 -0.017505 -0.211092 -0.048468  0.040734
    10 z      -0.356130  0.063748 -0.221863 -0.122895  0.400021 -0.107681
    11 x      -0.170261 -0.062019  0.148116  0.354137  0.048090 -0.308541
    11 y      -0.077823  0.221366  0.236301  0.009531 -0.098874 -0.041545
    11 z      -0.164021 -0.021333  0.168121  0.319603  0.011304 -0.478897
    12 x       0.039807  0.140030 -0.155008 -0.484498 -0.015050 -0.318734
    12 y       0.051058 -0.605156 -0.498395  0.129847 -0.150089  0.025313
    12 z       0.347400  0.034858 -0.119260 -0.237546 -0.013179 -0.154570


  Frequency     191.6262  221.6067  226.5434  229.1731  270.1387  280.1966
  IR Intensity    0.0083    0.0424    0.0142    0.0203    0.0012    0.0010
     in X         0.0005    0.0010    0.0013    0.0164    0.0001    0.0001
     in Y         0.0063    0.0001    0.0128    0.0008    0.0001    0.0009
     in Z         0.0015    0.0412    0.0001    0.0031    0.0011    0.0000
  Raman Intsty    0.0006    0.0412    0.0000    0.0617    0.0275    0.0067

     1 x       0.012220 -0.073626  0.034171  0.030979 -0.073364 -0.033689
     1 y       0.101779 -0.029313 -0.163248 -0.008238 -0.028020  0.115911
     1 z       0.056567 -0.228229  0.007594  0.098045 -0.141296 -0.006315
     2 x       0.029474  0.180318  0.048697 -0.413685  0.093487 -0.008385
     2 y      -0.095419  0.044211 -0.108862 -0.067837  0.022871  0.011985
     2 z      -0.001101 -0.197042 -0.001997 -0.045918  0.143530 -0.002740
     3 x      -0.010670 -0.084758  0.041776  0.024322  0.091576  0.026831
     3 y       0.181165 -0.023576 -0.180846 -0.012234  0.020542 -0.066715
     3 z      -0.022010 -0.126259  0.018168 -0.091327 -0.011991  0.005002
     4 x       0.000367 -0.101224 -0.042151 -0.018472 -0.068448 -0.028426
     4 y      -0.501379 -0.030775  0.161432 -0.001498 -0.015145  0.113226
     4 z       0.056571 -0.160971  0.005707 -0.097330  0.069197  0.007362
     5 x       0.061520 -0.090388  0.008229 -0.041503  0.093413  0.685357
     5 y       0.262722 -0.021765 -0.342647 -0.073009 -0.037217  0.050640
     5 z      -0.229476  0.422069 -0.214963  0.183613  0.094491 -0.029438
     6 x      -0.057655 -0.111517  0.139882 -0.030409  0.099842 -0.627140
     6 y       0.297333  0.025993 -0.273883  0.033875  0.118178 -0.249925
     6 z       0.399021  0.414093  0.281922  0.228938  0.074232  0.049030
     7 x      -0.043844  0.192154 -0.082311 -0.048902  0.207079 -0.003658
     7 y       0.260476  0.005032  0.603282 -0.006904  0.029054  0.051123
     7 z      -0.081101 -0.129415 -0.030686 -0.445815 -0.115872 -0.013173
     8 x       0.052957  0.123599 -0.027248 -0.191639 -0.733162 -0.016129
     8 y       0.064465  0.029962  0.171281 -0.058393 -0.175116 -0.069605
     8 z       0.034034 -0.274551 -0.000059  0.036241  0.143626  0.001398
     9 x      -0.048842 -0.221668 -0.085188  0.354655 -0.025066  0.010039
     9 y      -0.050225 -0.084713 -0.080063 -0.207101  0.295760  0.031232
     9 z      -0.126950  0.186104 -0.135269 -0.078861  0.019596  0.033463
    10 x       0.099338 -0.245306  0.080392  0.252687  0.073913 -0.016217
    10 y      -0.011253 -0.006805 -0.087682  0.334139 -0.273015  0.032659
    10 z       0.102348  0.177335  0.136827 -0.075960 -0.013846 -0.037632
    11 x      -0.066986  0.140002 -0.092373  0.178721  0.129911 -0.010504
    11 y      -0.237606  0.025081  0.205579  0.068877  0.017271  0.084941
    11 z      -0.168272  0.018169 -0.067354  0.240371 -0.167436 -0.017715
    12 x      -0.033824  0.288210 -0.047762 -0.028074  0.089412  0.024843
    12 y      -0.307993  0.068331  0.182458  0.015246  0.021887 -0.117197
    12 z      -0.026043  0.004390 -0.004445  0.055515 -0.092360  0.011534


  Frequency     299.9139  332.3150  367.0365  378.0843  401.7229  402.1995
  IR Intensity    0.0395    0.0183    0.0303    0.0481    0.1977    0.0069
     in X         0.0011    0.0010    0.0280    0.0048    0.0014    0.0065
     in Y         0.0002    0.0000    0.0010    0.0003    0.1949    0.0000
     in Z         0.0383    0.0173    0.0013    0.0430    0.0013    0.0004
  Raman Intsty    2.9298    0.4005    4.7064    0.0497    0.0034    0.0087

     1 x       0.219834 -0.020717  0.068315 -0.020688  0.052183 -0.039303
     1 y       0.058471 -0.013714  0.016172 -0.025560 -0.498632 -0.040430
     1 z       0.008836 -0.001434  0.053383 -0.126368  0.037205  0.046687
     2 x      -0.088410  0.176810  0.150297 -0.144467 -0.061627  0.250278
     2 y      -0.021166  0.037801  0.025559 -0.006467  0.114287  0.065897
     2 z       0.311068 -0.151292 -0.095676 -0.126062  0.010267 -0.234347
     3 x      -0.141545 -0.163853  0.058378  0.039175  0.020837 -0.021964
     3 y      -0.029599 -0.053324  0.012485 -0.010619 -0.505902 -0.036000
     3 z       0.001911 -0.076933  0.077194  0.002454 -0.062653  0.099538
     4 x       0.024441 -0.094880  0.007096  0.017035  0.015332 -0.021209
     4 y      -0.008044 -0.042331  0.000660  0.013194  0.126305  0.000440
     4 z      -0.258864 -0.492573 -0.029062  0.090774  0.108850 -0.060033
     5 x      -0.214065  0.404901 -0.135968 -0.078568  0.035983 -0.126702
     5 y       0.131186  0.109742  0.535657  0.360531  0.448219  0.003664
     5 z       0.029849  0.023684 -0.005429  0.009607  0.006696  0.007239
     6 x      -0.162687  0.401259  0.125519  0.081665 -0.125840 -0.139515
     6 y      -0.210230  0.076033 -0.527274 -0.332930  0.394456 -0.011695
     6 z       0.047593  0.029409  0.049075  0.049227 -0.048792  0.010977
     7 x       0.184137 -0.241519  0.255093 -0.304254  0.054472 -0.420907
     7 y       0.033792 -0.030105  0.044674 -0.059783  0.050108 -0.070397
     7 z      -0.168850  0.038589  0.051359 -0.238702  0.004018 -0.084225
     8 x       0.143143 -0.111723 -0.251971  0.139185  0.011255  0.055377
     8 y       0.038320 -0.024524 -0.059612  0.032096  0.039844  0.026584
     8 z       0.174612  0.102042  0.091913 -0.145743 -0.011017  0.627447
     9 x       0.048332 -0.027724 -0.062008  0.067609 -0.010038 -0.020261
     9 y       0.234712  0.030676 -0.278373  0.362456 -0.122110 -0.064981
     9 z       0.001834  0.046992 -0.109183  0.191176 -0.070572 -0.001429
    10 x       0.118438 -0.010697 -0.156696  0.201836  0.052017 -0.028219
    10 y      -0.188772 -0.048054  0.245197 -0.345863 -0.083140  0.022829
    10 z      -0.019372  0.049383 -0.092847  0.179872  0.048725  0.019921
    11 x      -0.356343 -0.219369 -0.021300  0.182432 -0.058582  0.313859
    11 y      -0.070528 -0.022613 -0.008421  0.043357  0.101738  0.073769
    11 z       0.214595  0.391522 -0.058452 -0.071343  0.016179 -0.134238
    12 x       0.226664 -0.091003 -0.089838 -0.156817  0.011824  0.162344
    12 y       0.030380 -0.013984 -0.017115 -0.022240  0.105431  0.032339
    12 z      -0.404882  0.084622  0.061037  0.233012 -0.035996 -0.280649


  Frequency     409.4428  461.9822  471.3088  490.9388  534.0470  582.3620
  IR Intensity    0.4002    0.6742    0.4124    0.3328    0.0549    0.0183
     in X         0.2953    0.2033    0.0533    0.1521    0.0422    0.0043
     in Y         0.0016    0.0395    0.3448    0.0107    0.0027    0.0004
     in Z         0.1032    0.4313    0.0143    0.1700    0.0100    0.0136
  Raman Intsty    0.1370    0.0584    0.0014    0.0945    0.6655    0.7721

     1 x      -0.280519  0.375628 -0.101773 -0.028496 -0.004268  0.618087
     1 y       0.051045  0.098612  0.111083 -0.010347 -0.011396  0.140479
     1 z       0.123732 -0.128498  0.021896 -0.464024 -0.539718  0.099133
     2 x      -0.032156  0.064473 -0.180646 -0.333426  0.222390  0.153395
     2 y      -0.026926  0.156682  0.696103 -0.102171  0.069684  0.038427
     2 z      -0.077365 -0.383988  0.054005 -0.210341  0.602307  0.019790
     3 x      -0.407568  0.267112 -0.078892 -0.289714  0.001720 -0.628637
     3 y      -0.004617  0.056725  0.100863 -0.046122 -0.003702 -0.139051
     3 z      -0.433433 -0.395755  0.092708  0.149629 -0.212405  0.075651
     4 x       0.184607  0.028113 -0.002986  0.007321  0.017805  0.069096
     4 y       0.045086  0.015844 -0.026039 -0.003425  0.008634  0.018726
     4 z       0.527665  0.251924 -0.060125 -0.059069  0.111020  0.053373
     5 x       0.175184 -0.157972  0.058687  0.083848  0.007821 -0.010515
     5 y       0.050117 -0.123144 -0.067673 -0.030324  0.022474 -0.065395
     5 z       0.010212  0.022747 -0.002484 -0.001973  0.037049 -0.008718
     6 x       0.257828 -0.197603  0.053680  0.068167  0.016470 -0.045440
     6 y      -0.136433  0.024019 -0.082954  0.051704 -0.021409  0.054414
     6 z       0.030602  0.013641 -0.000459 -0.009975  0.038097 -0.015673
     7 x       0.034916  0.016250  0.054872  0.408369 -0.212501 -0.057011
     7 y      -0.006721 -0.008447 -0.045139  0.072825 -0.041465 -0.012813
     7 z      -0.043460  0.054703  0.007134  0.141446 -0.161364 -0.082611
     8 x       0.048443 -0.112962  0.027059  0.175136  0.100376 -0.138386
     8 y       0.005238 -0.031392 -0.031443  0.050856  0.027301 -0.036666
     8 z       0.069205  0.212034 -0.025966  0.442296  0.138827 -0.145128
     9 x       0.009739 -0.020630 -0.011336  0.046699 -0.030238 -0.020209
     9 y       0.003550 -0.035970 -0.418242  0.050911 -0.152342 -0.008897
     9 z       0.006849  0.041797 -0.171856  0.027118 -0.133165 -0.001427
    10 x      -0.006641  0.031710  0.169126  0.042267 -0.068379 -0.019566
    10 y       0.030868 -0.126539 -0.379560  0.012122  0.102904 -0.005902
    10 z      -0.012028  0.099229  0.132334  0.008340 -0.112535 -0.000284
    11 x      -0.039190 -0.291977  0.049225  0.053660  0.019495  0.175895
    11 y      -0.028608 -0.056877 -0.013148  0.003324  0.007448  0.033194
    11 z       0.091121  0.243755 -0.050871 -0.109709  0.062319 -0.124875
    12 x       0.193380 -0.137670  0.032226 -0.108954 -0.112819 -0.124084
    12 y       0.013665 -0.029307 -0.017869 -0.018952 -0.018592 -0.024152
    12 z      -0.218921  0.142463 -0.028629  0.186821  0.198279  0.093483




--------------------------------------------------------------------------------
  Vibrational properties (for cluster):  Temperature  =       0.000 K
--------------------------------------------------------------------------------
  Zero point energy            =        0.514151 eV
--------------------------------------------------------------------------------

  Phonon density of states : 

--------------------------------------------------------------------------------
 Frequency (cm-1) Density of States                                             
--------------------------------------------------------------------------------
    0.00000 |************************************************************  0.091
    9.09941 |                                                              0.000
   18.19881 |                                                              0.000
   27.29822 |                                                              0.000
   36.39763 |********************                                          0.030
   45.49703 |                                                              0.000
   54.59644 |                                                              0.000
   63.69585 |                                                              0.000
   72.79525 |                                                              0.000
   81.89466 |                                                              0.000
   90.99407 |                                                              0.000
  100.09347 |********************                                          0.030
  109.19288 |                                                              0.000
  118.29229 |                                                              0.000
  127.39169 |                                                              0.000
  136.49110 |****************************************                      0.061
  145.59051 |****************************************                      0.061
  154.68991 |****************************************                      0.061
  163.78932 |****************************************                      0.061
  172.88873 |********************                                          0.030
  181.98813 |********************                                          0.030
  191.08754 |********************                                          0.030
  200.18695 |                                                              0.000
  209.28635 |                                                              0.000
  218.38576 |****************************************                      0.061
  227.48517 |********************                                          0.030
  236.58457 |                                                              0.000
  245.68398 |                                                              0.000
  254.78339 |                                                              0.000
  263.88279 |********************                                          0.030
  272.98220 |********************                                          0.030
  282.08161 |                                                              0.000
  291.18101 |********************                                          0.030
  300.28042 |                                                              0.000
  309.37983 |                                                              0.000
  318.47923 |                                                              0.000
  327.57864 |********************                                          0.030
  336.67805 |                                                              0.000
  345.77745 |                                                              0.000
  354.87686 |                                                              0.000
  363.97627 |********************                                          0.030
  373.07567 |********************                                          0.030
  382.17508 |                                                              0.000
  391.27448 |                                                              0.000
  400.37389 |************************************************************  0.091
  409.47330 |                                                              0.000
  418.57270 |                                                              0.000
  427.67211 |                                                              0.000
  436.77152 |                                                              0.000
  445.87092 |                                                              0.000
  454.97033 |********************                                          0.030
  464.06974 |********************                                          0.030
  473.16914 |                                                              0.000
  482.26855 |********************                                          0.030
  491.36796 |                                                              0.000
  500.46736 |                                                              0.000
  509.56677 |                                                              0.000
  518.66618 |                                                              0.000
  527.76558 |********************                                          0.030
  536.86499 |                                                              0.000
  545.96440 |                                                              0.000
  555.06380 |                                                              0.000
  564.16321 |                                                              0.000
  573.26262 |********************                                          0.030
--------------------------------------------------------------------------------



  XYZ File written as 003/1/sp_mod_20/sp_mod_20_eig.xyz


  Time to end of properties =       0.0137 seconds


  Peak dynamic memory used =       0.64 MB 


  Timing analysis for GULP :

--------------------------------------------------------------------------------
  Task / Subroutine                                          Time (Seconds)
--------------------------------------------------------------------------------
  Calculation of phonons                                          0.0039
--------------------------------------------------------------------------------
  Total CPU time                                                  0.0137
--------------------------------------------------------------------------------


  Job Finished at 10:31.38 17th May        2022                               

