12
Properties=species:S:1:pos:R:3:forces:R:3 energy=-186.39284678 pbc="F F F"
Al    -0.066759357    1.591719796    2.1796004210000004    0.014753    0.008779    -0.013007
Al    2.479576196    2.553297825    1.715212175    -0.024262    -0.023994    -0.010778
Al    1.348151558    2.707332981    -0.7029096530000001    -0.001612    0.00898    -0.023091
F    1.033749052    2.960869119    2.9462010320000003    -0.000717    0.003161    0.005905
F    -1.583631947    2.612184943    1.762078195    -0.011291    0.010946    -0.006116
F    -0.37858706000000003    0.220165082    3.55343006    -0.003759    -0.018757    0.017143
F    1.704312769    0.8249004849999999    1.657596434    0.00705    0.010135    -0.005101
F    3.030878142    2.002582972    -0.156150954    0.007812    0.000178    0.001254
F    1.206396514    3.2503536520000003    -2.422464204    0.002167    -0.001001    0.013041
F    1.591903168    3.9766175870000002    0.717232065    -0.001204    0.001688    0.003653
F    4.073938366    2.9677303110000004    2.495082868    0.016192    0.005202    0.008318
F    0.015306    1.709007068    0.07969790499999999    -0.00513    -0.005317    0.008778
