12
Properties=species:S:1:pos:R:3:forces:R:3 energy=-180.47587763 pbc="F F F"
Al    0.675884172    -2.404882411    -1.941828461    4.249055    4.358302    -6.399553
Al    2.0689793300000003    -0.18949305599999994    -1.041212224    0.053833    0.096509    -8.831291
Al    -0.441960006    0.11718010300000001    -2.1641296829999996    5.70545    -1.930677    -6.4594
F    3.6181402879999998    -0.18831641600000001    -0.013433623    0.105668    0.017294    0.754128
F    -0.180785974    -4.032287693    -2.213678236    -0.367605    -0.463475    0.479796
F    1.694210838    -2.090389676    -2.3461657889999996    -2.918473    1.285732    2.781613
F    1.8646890950000001    0.43333033899999995    -1.9738134200000002    -2.044622    -2.487685    2.745705
F    -1.487523422    1.654364731    -2.1548685109999997    -0.531901    0.245975    0.486547
F    -1.250241286    -1.342440452    -0.891373169    -2.611762    -0.632492    2.906631
F    -0.227977974    -0.5608571090000001    -3.055112781    0.472511    0.069411    4.204746
F    0.422928196    0.45473979800000003    0.089806398    -1.28617    0.714138    3.674996
F    1.081022134    -2.10630381    0.095432427    -0.825984    -1.273034    3.656084
