12
Properties=species:S:1:pos:R:3:forces:R:3 energy=-185.74699777 pbc="F F F"
Al    0.281542272    -2.304876111    -1.821670761    0.010686    0.041166    0.009722
Al    2.01308193    -0.545853056    -0.817996424    -0.038417    -0.008719    -0.018741
Al    -0.319575306    0.290851203    -1.796969383    0.027732    -0.032446    0.00902
F    3.6000884880000004    -0.185702416    -0.043802523    -0.007621    -0.001729    -0.003718
F    -0.159870274    -4.005338592999999    -2.2232356359999996    0.002119    0.008164    0.001928
F    1.916046438    -1.487857976    -2.5365298889999996    -0.096403    0.176171    -0.142439
F    1.504680595    0.28849193900000003    -2.51962502    -0.009751    -0.198009    -0.145999
F    -1.465169422    1.631164031    -2.169597411    0.005501    -0.006436    0.001789
F    -0.8572106859999999    -1.2120982519999999    -0.6558125690000001    0.150721    0.033078    0.191853
F    0.319725226    -0.9152708089999999    -3.206476481    0.239855    0.055558    -0.001318
F    0.327744696    -0.008335401999999992    0.031038798    -0.098885    -0.220489    0.047171
F    0.739111534    -1.7846854099999998    0.014134026999999993    -0.185537    0.153691    0.050732
