------------------------------------------------------------
          Invoking FHI-aims ...

          When using FHI-aims, please cite the following reference:

            Volker Blum, Ralf Gehrke, Felix Hanke, Paula Havu,
            Ville Havu, Xinguo Ren, Karsten Reuter, and Matthias Scheffler,
            'Ab Initio Molecular Simulations with Numeric Atom-Centered Orbitals',
            Computer Physics Communications 180, 2175-2196 (2009)

          In addition, many other developments in FHI-aims are likely important for
          your particular application. A partial list of references is given at the end of
          this file. Thank you for giving credit to the authors of these developments.

          For any questions about FHI-aims, please visit our slack channel at

            https://fhi-aims.slack.com

          and our main development and support site at

            https://aims-git.rz-berlin.mpg.de .

          The latter site, in particular, has a wiki to collect information, as well
          as an issue tracker to log discussions, suggest improvements, and report issues
          or bugs. https://aims-git.rz-berlin.mpg.de is also the main development site
          of the project and all new and updated code versions can be obtained there.
          Please send an email to aims-coordinators@fhi-berlin.mpg.de and we will add
          you to these sites. They are for you and everyone is welcome there.

------------------------------------------------------------



  Date     :  20220517, Time     :  112159.338
  Time zero on CPU 1             :   0.415450000000000E-01  s.
  Internal wall clock time zero  :           422018519.338  s.

  FHI-aims created a unique identifier for this run for later identification
  aims_uuid : 3EFAFD73-4374-4F48-A2D7-9013EF5B3052

  Build configuration of the current instance of FHI-aims
  -------------------------------------------------------
  FHI-aims version      : 210914
  Commit number         : GITDIR-NOTFOUND
  CMake host system     : Linux-3.10.0-693.17.1.el7.x86_64
  CMake version         : 3.21.1
  Fortran compiler      : /shared/ucl/apps/intel/2018.Update3/impi/2018.3.222/intel64/bin/mpiifort (Intel) version 18.0.3.20180410
  Fortran compiler flags: -O3 -ip -fp-model precise
  C compiler            : /shared/ucl/apps/intel/2018.Update3/compilers_and_libraries_2018.3.222/linux/bin/intel64/icc (Intel) version 18.0.3.20180410
  C compiler flags      : -O3 -ip -fp-model precise -std=gnu99
  ELPA2 kernel          : AVX2
  Using MPI
  Using ScaLAPACK
  Using LibXC
  Using i-PI
  Using RLSY
  Linking against: /shared/ucl/apps/intel/2019.Update5/compilers_and_libraries_2019.5.281/linux/mkl/lib/intel64/libmkl_intel_lp64.so
                   /shared/ucl/apps/intel/2019.Update5/compilers_and_libraries_2019.5.281/linux/mkl/lib/intel64/libmkl_sequential.so
                   /shared/ucl/apps/intel/2019.Update5/compilers_and_libraries_2019.5.281/linux/mkl/lib/intel64/libmkl_core.so
                   /shared/ucl/apps/intel/2019.Update5/compilers_and_libraries_2019.5.281/linux/mkl/lib/intel64/libmkl_blacs_intelmpi_lp64.so
                   /shared/ucl/apps/intel/2019.Update5/compilers_and_libraries_2019.5.281/linux/mkl/lib/intel64/libmkl_scalapack_lp64.so

  Using       24 parallel tasks.
  Task        0 on host node-k98e-006 reporting.
  Task        1 on host node-k98e-006 reporting.
  Task        2 on host node-k98e-006 reporting.
  Task        3 on host node-k98e-006 reporting.
  Task        4 on host node-k98e-006 reporting.
  Task        5 on host node-k98e-006 reporting.
  Task        6 on host node-k98e-006 reporting.
  Task        7 on host node-k98e-006 reporting.
  Task        8 on host node-k98e-006 reporting.
  Task        9 on host node-k98e-006 reporting.
  Task       10 on host node-k98e-006 reporting.
  Task       11 on host node-k98e-006 reporting.
  Task       12 on host node-k98e-006 reporting.
  Task       13 on host node-k98e-006 reporting.
  Task       14 on host node-k98e-006 reporting.
  Task       15 on host node-k98e-006 reporting.
  Task       16 on host node-k98e-006 reporting.
  Task       17 on host node-k98e-006 reporting.
  Task       18 on host node-k98e-006 reporting.
  Task       19 on host node-k98e-006 reporting.
  Task       20 on host node-k98e-006 reporting.
  Task       21 on host node-k98e-006 reporting.
  Task       22 on host node-k98e-006 reporting.
  Task       23 on host node-k98e-006 reporting.

  Performing system and environment tests:
  | Environment variable OMP_NUM_THREADS correctly set to 1.
  | Checking for ScaLAPACK...
  | Testing pdtran()...
  | All pdtran() tests passed.

  Obtaining array dimensions for all initial allocations:
  
  -----------------------------------------------------------------------
  Parsing control.in (first pass over file, find array dimensions only).
  The contents of control.in will be repeated verbatim below
  unless switched off by setting 'verbatim_writeout .false.' .
  in the first line of control.in .
  -----------------------------------------------------------------------
  
  #########################################################################################  Physical model
  #########################################################################################
  xc                 pbesol
  spin               none
  relativistic       atomic_zora scalar
  charge             0.0
  #  SCF convergence
  occupation_type    gaussian 0.01
  mixer              pulay
  n_max_pulay        10
  charge_mix_param   0.5
  sc_accuracy_rho    1E-5
  sc_accuracy_eev    1E-3
  sc_accuracy_etot   1E-6
  sc_accuracy_forces 1E-4
  sc_iter_limit      1500
  #  Relaxation
  #relax_geometry   bfgs 1.e-3
  
  ################################################################################
  #
  #  FHI-aims code project
  #  VB, Fritz-Haber Institut, 2009
  #
  #  Suggested "light" defaults for Al atom (to be pasted into control.in file)
  #  Be sure to double-check any results obtained with these settings for post-processing,
  #  e.g., with the "tight" defaults and larger basis sets.
  #
  ################################################################################
    species        Al
  #     global species definitions
      nucleus             13
      mass                26.9815386
  #
      l_hartree           4
  #
      cut_pot             3.5          1.5  1.0
      basis_dep_cutoff    1e-4
  #
      radial_base         41 5.0
      radial_multiplier   1
      angular_grids       specified
        division   0.6594  110
        division   0.8170  194
        division   0.9059  302
  #      division   1.0363  434
  #      division   1.1443  590
  #      division   1.2621  770
  #      division   2.8177  974
  #      outer_grid   974
        outer_grid   302
  ################################################################################
  #
  #  Definition of "minimal" basis
  #
  ################################################################################
  #     valence basis states
      valence      3  s   2.
      valence      3  p   1.
  #     ion occupancy
      ion_occ      3  s   1.
      ion_occ      2  p   6.
  ################################################################################
  #
  #  Suggested additional basis functions. For production calculations,
  #  uncomment them one after another (the most important basis functions are
  #  listed first).
  #
  #  Constructed for dimers: 2.0 A, 2.5 A, 3.0 A, 3.75 A, 4.5 A
  #
  ################################################################################
  #  "First tier" - improvements: -199.47 meV to -10.63 meV
       ionic 3 d auto
       ionic 3 p auto
  #     hydro 4 f 4.7
       ionic 3 s auto
  #  "Second tier" - improvements: -5.35 meV to -1.57 meV
  #     hydro 5 g 7
  #     hydro 3 d 6
  #     hydro 2 s 11.6
  #     hydro 2 p 0.9
  #  "Third tier" - improvements: -0.63 meV to -0.20 meV
  #     hydro 5 f 7.6
  #     hydro 4 p 7.2
  #     hydro 4 s 3.7
  #     hydro 4 d 7.6
  #  "Fourth tier" - improvements: -0.17 meV to -0.08 meV
  #     hydro 4 d 13.6
  #     hydro 5 g 11.2
  #     hydro 4 d 0.9
  #     hydro 1 s 0.4
  #     hydro 4 p 0.1
  #     hydro 5 f 9.8
  #  Further basis functions that fell out of the optimization - noise level...
  #     hydro 4 p 5
  
  ################################################################################
  #
  #  FHI-aims code project
  #  VB, Fritz-Haber Institut, 2009
  #
  #  Suggested "light" defaults for F atom (to be pasted into control.in file)
  #  Be sure to double-check any results obtained with these settings for post-processing,
  #  e.g., with the "tight" defaults and larger basis sets.
  #
  ################################################################################
    species        F
  #     global species definitions
      nucleus             9
      mass                18.9984032
  #
      l_hartree           4
  #
      cut_pot             3.5  1.5  1.0
      basis_dep_cutoff    1e-4
  #
      radial_base         37 5.0
      radial_multiplier   1
      angular_grids specified
        division   0.4014  110
        division   0.5291  194
        division   0.6019  302
  #      division   0.6814  434
  #      division   0.7989  590
  #      division   0.8965  770
  #      division   1.3427  974
  #      outer_grid   974
        outer_grid   302
  ################################################################################
  #
  #  Definition of "minimal" basis
  #
  ################################################################################
  #     valence basis states
      valence      2  s   2.
      valence      2  p   5.
  #     ion occupancy
      ion_occ      2  s   1.
      ion_occ      2  p   4.
  ################################################################################
  #
  #  Suggested additional basis functions. For production calculations,
  #  uncomment them one after another (the most important basis functions are
  #  listed first).
  #
  #  Constructed for dimers: 1.2 A, 1.418 A, 1.75 A, 2.25 A, 3.25 A
  #
  ################################################################################
  #  "First tier" - improvements: -149.44 meV to -45.88 meV
       hydro 2 p 1.7
       hydro 3 d 7.4
       hydro 3 s 6.8
  #  "Second tier" - improvements: -12.96 meV to -1.56 meV
  #     hydro 4 f 11.2
  #     ionic 2 p auto
  #     hydro 1 s 0.75
  #     hydro 4 d 8.8
  #     hydro 5 g 16.8
  #  "Third tier" - improvements: -0.58 meV to -0.05 meV
  #     hydro 3 p 6.2
  #     hydro 3 s 3.2
  #     hydro 4 f 9.6
  #     hydro 3 s 19.6
  #     hydro 4 d 8.6
  #     hydro 5 g 14.4
  # Further basis functions: -0.05 meV and below
  #     hydro 3 p 4.2
  
  -----------------------------------------------------------------------
  Completed first pass over input file control.in .
  -----------------------------------------------------------------------
  
  
  -----------------------------------------------------------------------
  Parsing geometry.in (first pass over file, find array dimensions only).
  The contents of geometry.in will be repeated verbatim below
  unless switched off by setting 'verbatim_writeout .false.' .
  in the first line of geometry.in .
  -----------------------------------------------------------------------
  
  atom 0.349627195 -0.599315078 1.740413717 Al
  atom 2.350503363 -1.788743854 -0.519453490 Al
  atom -0.892884982 -1.830397740 -0.991956136 Al
  atom 3.476158711 -0.496330793 -1.112779203 F
  atom -1.834644851 -0.564535889 -1.886466621 F
  atom 2.736837387 -3.562341677 -0.491864592 F
  atom -1.226307573 -3.613239185 -1.069222669 F
  atom 1.896719996 -1.414979332 1.210821400 F
  atom 0.831810164 -1.508492882 -1.489273665 F
  atom 0.108911751 -1.172361441 3.443268281 F
  atom 0.406285579 1.135156366 1.198591072 F
  atom -0.961087869 -1.451681321 0.794490812 F
  
  -----------------------------------------------------------------------
  Completed first pass over input file geometry.in .
  -----------------------------------------------------------------------
  

  Basic array size parameters:
  | Number of species                 :        2
  | Number of atoms                   :       12
  | Max. basis fn. angular momentum   :        2
  | Max. atomic/ionic basis occupied n:        3
  | Max. number of basis fn. types    :        3
  | Max. radial fns per species/type  :        5
  | Max. logarithmic grid size        :     1340
  | Max. radial integration grid size :       41
  | Max. angular integration grid size:      302
  | Max. angular grid division number :        8
  | Radial grid for Hartree potential :     1340
  | Number of spin channels           :        1

------------------------------------------------------------
          Reading file control.in.
------------------------------------------------------------
  XC: Using PBEsol gradient-corrected functionals.
  Spin treatment: No spin polarisation.
  Scalar relativistic treatment of kinetic energy: on-site free-atom approximation to ZORA.
  Charge =   0.000000E+00: Neutral system requested explicitly.
  Occupation type: Gaussian broadening, width =   0.100000E-01 eV.
  Using pulay charge density mixing.
  Pulay mixing - number of memorized iterations:   10
  Charge density mixing - mixing parameter:     0.5000
  Convergence accuracy of self-consistent charge density:  0.1000E-04
  Convergence accuracy of sum of eigenvalues:  0.1000E-02
  Convergence accuracy of total energy:  0.1000E-05
  Convergence accuracy of forces:  0.1000E-03
  Maximum number of s.-c. iterations  :  1500
 
  Reading configuration options for species Al                  .
  | Found nuclear charge :  13.0000
  | Found atomic mass :    26.9815386000000      amu
  | Found l_max for Hartree potential  :   4
  | Found cutoff potl. onset [A], width [A], scale factor :    3.50000    1.50000    1.00000
  | Threshold for basis-dependent cutoff potential is   0.100000E-03
  | Found data for basic radial integration grid :    41 points, outermost radius =    5.000 A
  | Found multiplier for basic radial grid :   1
  | Found angular grid specification: user-specified.
  | Specified grid contains     4 separate shells.
  | Check grid settings after all constraints further below.
  | Found free-atom valence shell :  3 s   2.000
  | Found free-atom valence shell :  3 p   1.000
  | Found free-ion valence shell :  3 s   1.000
  | Found free-ion valence shell :  2 p   6.000
  | Found ionic basis function :  3 d , default cutoff radius.
  | Found ionic basis function :  3 p , default cutoff radius.
  | Found ionic basis function :  3 s , default cutoff radius.
  Species Al                  : Missing cutoff potential type.
  Defaulting to exp(1/x)/(1-x)^2 type cutoff potential.
  Species Al: No 'logarithmic' tag. Using default grid for free atom:
  | Default logarithmic grid data [bohr] : 0.1000E-03 0.1000E+03 0.1012E+01
  | Will include ionic basis functions of  2.0-fold positive Al                   ion.
  Species Al: On-site basis accuracy parameter (for Gram-Schmidt orthonormalisation) not specified.
  Using default value basis_acc =  0.1000000E-03.
  Species Al                  : Using default innermost maximum threshold i_radial=  2 for radial functions.
  Species Al                  : Default cutoff onset for free atom density etc. : 0.35000000E+01 AA.
  Species Al                  : Basic radial grid will be enhanced according to radial_multiplier =   1, to contain    41 grid points.
 
  Reading configuration options for species F                   .
  | Found nuclear charge :   9.0000
  | Found atomic mass :    18.9984032000000      amu
  | Found l_max for Hartree potential  :   4
  | Found cutoff potl. onset [A], width [A], scale factor :    3.50000    1.50000    1.00000
  | Threshold for basis-dependent cutoff potential is   0.100000E-03
  | Found data for basic radial integration grid :    37 points, outermost radius =    5.000 A
  | Found multiplier for basic radial grid :   1
  | Found angular grid specification: user-specified.
  | Specified grid contains     4 separate shells.
  | Check grid settings after all constraints further below.
  | Found free-atom valence shell :  2 s   2.000
  | Found free-atom valence shell :  2 p   5.000
  | Found free-ion valence shell :  2 s   1.000
  | Found free-ion valence shell :  2 p   4.000
  | Found hydrogenic basis function :  2 p   1.700
  | Found hydrogenic basis function :  3 d   7.400
  | Found hydrogenic basis function :  3 s   6.800
  Species F                   : Missing cutoff potential type.
  Defaulting to exp(1/x)/(1-x)^2 type cutoff potential.
  Species F : No 'logarithmic' tag. Using default grid for free atom:
  | Default logarithmic grid data [bohr] : 0.1000E-03 0.1000E+03 0.1012E+01
  Species F : On-site basis accuracy parameter (for Gram-Schmidt orthonormalisation) not specified.
  Using default value basis_acc =  0.1000000E-03.
  Species F                   : Using default innermost maximum threshold i_radial=  2 for radial functions.
  Species F                   : Default cutoff onset for free atom density etc. : 0.35000000E+01 AA.
  Species F                   : Basic radial grid will be enhanced according to radial_multiplier =   1, to contain    37 grid points.
 
  Finished reading input file 'control.in'.
 
------------------------------------------------------------


------------------------------------------------------------
          Reading geometry description geometry.in.
------------------------------------------------------------
  | The smallest distance between any two atoms is         1.81274370 AA.
  | The first atom of this pair is atom number                      1 .
  | The second atom of this pair is atom number                    10 .
  Input structure read successfully.
  The structure contains       12 atoms,  and a total of        120.000 electrons.

  Input geometry:
  | No unit cell requested.
  | Atomic structure:
  |       Atom                x [A]            y [A]            z [A]
  |    1: Species Al            0.34962720       -0.59931508        1.74041372
  |    2: Species Al            2.35050336       -1.78874385       -0.51945349
  |    3: Species Al           -0.89288498       -1.83039774       -0.99195614
  |    4: Species F             3.47615871       -0.49633079       -1.11277920
  |    5: Species F            -1.83464485       -0.56453589       -1.88646662
  |    6: Species F             2.73683739       -3.56234168       -0.49186459
  |    7: Species F            -1.22630757       -3.61323918       -1.06922267
  |    8: Species F             1.89672000       -1.41497933        1.21082140
  |    9: Species F             0.83181016       -1.50849288       -1.48927367
  |   10: Species F             0.10891175       -1.17236144        3.44326828
  |   11: Species F             0.40628558        1.13515637        1.19859107
  |   12: Species F            -0.96108787       -1.45168132        0.79449081

 
  Finished reading input file 'control.in'.
 

------------------------------------------------------------
          Reading geometry description geometry.in.
------------------------------------------------------------
 
  Consistency checks for stacksize environment parameter are next.
 
  | Maximum stacksize for task 0: unlimited
  | Maximum stacksize for task 1: unlimited
  | Maximum stacksize for task 2: unlimited
  | Maximum stacksize for task 3: unlimited
  | Maximum stacksize for task 4: unlimited
  | Maximum stacksize for task 5: unlimited
  | Maximum stacksize for task 6: unlimited
  | Maximum stacksize for task 7: unlimited
  | Maximum stacksize for task 8: unlimited
  | Maximum stacksize for task 9: unlimited
  | Maximum stacksize for task 10: unlimited
  | Maximum stacksize for task 11: unlimited
  | Maximum stacksize for task 12: unlimited
  | Maximum stacksize for task 13: unlimited
  | Maximum stacksize for task 14: unlimited
  | Maximum stacksize for task 15: unlimited
  | Maximum stacksize for task 16: unlimited
  | Maximum stacksize for task 17: unlimited
  | Maximum stacksize for task 18: unlimited
  | Maximum stacksize for task 19: unlimited
  | Maximum stacksize for task 20: unlimited
  | Maximum stacksize for task 21: unlimited
  | Maximum stacksize for task 22: unlimited
  | Maximum stacksize for task 23: unlimited
  | Current stacksize for task 0: unlimited
  | Current stacksize for task 1: unlimited
  | Current stacksize for task 2: unlimited
  | Current stacksize for task 3: unlimited
  | Current stacksize for task 4: unlimited
  | Current stacksize for task 5: unlimited
  | Current stacksize for task 6: unlimited
  | Current stacksize for task 7: unlimited
  | Current stacksize for task 8: unlimited
  | Current stacksize for task 9: unlimited
  | Current stacksize for task 10: unlimited
  | Current stacksize for task 11: unlimited
  | Current stacksize for task 12: unlimited
  | Current stacksize for task 13: unlimited
  | Current stacksize for task 14: unlimited
  | Current stacksize for task 15: unlimited
  | Current stacksize for task 16: unlimited
  | Current stacksize for task 17: unlimited
  | Current stacksize for task 18: unlimited
  | Current stacksize for task 19: unlimited
  | Current stacksize for task 20: unlimited
  | Current stacksize for task 21: unlimited
  | Current stacksize for task 22: unlimited
  | Current stacksize for task 23: unlimited
 
  Consistency checks for the contents of control.in are next.
 
  MPI_IN_PLACE appears to work with this MPI implementation.
  | Keeping use_mpi_in_place .true. (see manual).
  Target number of points in a grid batch is not set. Defaulting to  100
  Method for grid partitioning is not set. Defaulting to parallel hash+maxmin partitioning.
  Batch size limit is not set. Defaulting to    200
  By default, will store active basis functions for each batch.
  If in need of memory, prune_basis_once .false. can be used to disable this option.
  communication_type for Hartree potential was not specified.
  Defaulting to calc_hartree .
  Pulay mixer: Number of initial linear mixing iterations not set.
  Defaulting to    0 iterations.
  Work space size for distributed Hartree potential not set.
  Defaulting to   0.200000E+03 MB.
  Algorithm-dependent basis array size parameters:
  | n_max_pulay                         :       10
  Presetting      1001 iterations before the initial mixing cycle
  is restarted anyway using the sc_init_iter criterion / keyword.
  Presetting a factor      1.000 between actual scf density residual
  and density convergence criterion sc_accuracy_rho below which sc_init_iter
  takes no effect.
  Geometry relaxation not requested: no relaxation will be performed.
  Forces evaluation will include force correction term due to incomplete self-consistency (default).
  Handling of forces: Unphysical translation and rotation will be removed from forces.
  No accuracy limit for integral partition fn. given. Defaulting to  0.1000E-14.
  No threshold value for u(r) in integrations given. Defaulting to  0.1000E-05.
  No accuracy for occupation numbers given. Defaulting to  0.1000E-12.
  No threshold value for occupation numbers given. Defaulting to  0.0000E+00.
  No accuracy for fermi level given. Defaulting to  0.1000E-19.
  Maximum # of iterations to find E_F not set. Defaulting to  200.
  Preferred method for the eigenvalue solver ('KS_method') not specified in 'control.in'.
  Calling BLACS routine to test compilation state
  Since ScaLAPACK support is enabled, defaulting to ELPA (via ELSI).
  Will not use alltoall communication since running on < 1024 CPUs.
  Threshold for basis singularities not set.
  Default threshold for basis singularities:  0.1000E-04
  partition_type (choice of integration weights) for integrals was not specified.
  | Using a version of the partition function of Stratmann and coworkers ('stratmann_sparse').
  | At each grid point, the set of atoms used to build the partition table is smoothly restricted to
  | only those atoms whose free-atom density would be non-zero at that grid point.
  Partitioning for Hartree potential was not defined. Using partition_type for integrals.
  | Adjusted default value of keyword multip_moments_threshold to:       0.10000000E-11
  | This value may affect high angular momentum components of the Hartree potential in periodic systems.
  No q(lm)/r^(l+1) cutoff set for long-range Hartree potential.
  | Using default value of  0.100000E-09 .
  | Verify using the multipole_threshold keyword.
  Defaulting to new monopole extrapolation.
  Density update method: automatic selection selected.
  Charge integration errors on the 3D integration grid will be compensated
  by explicit normalization and distribution of residual charges.
  Use the "compensate_multipole_errors" flag to change this behaviour.
  Set 'collect_eigenvectors' to be '.true.' for use_density_matrix .false.
 
  Consistency checks for the contents of geometry.in are next.
 
  Number of empty states per atom not set in control.in - providing a guess from actual geometry.
  | Total number of empty states used during s.c.f. cycle:       36
  If you use a very high smearing, use empty_states (per atom!) in control.in to increase this value.

  Structure-dependent array size parameters: 
  | Maximum number of distinct radial functions  :       14
  | Maximum number of basis functions            :      180
  | Number of Kohn-Sham states (occupied + empty):       96
------------------------------------------------------------

------------------------------------------------------------
          Preparing all fixed parts of the calculation.
------------------------------------------------------------
  Determining machine precision:
    2.225073858507201E-308
  Setting up grids for atomic and cluster calculations.

  Creating wave function, potential, and density for free atoms.

  Species: Al

  List of occupied orbitals and eigenvalues:
    n    l              occ      energy [Ha]    energy [eV]
    1    0           2.0000       -55.621123     -1513.5278
    2    0           2.0000        -3.957030      -107.6763
    3    0           2.0000        -0.272233        -7.4078
    2    1           6.0000        -2.540949       -69.1427
    3    1           1.0000        -0.083300        -2.2667


  Species: F

  List of occupied orbitals and eigenvalues:
    n    l              occ      energy [Ha]    energy [eV]
    1    0           2.0000       -24.399611      -663.9472
    2    0           2.0000        -1.098702       -29.8972
    2    1           5.0000        -0.408210       -11.1080


  Adding cutoff potential to free-atom effective potential.
  Creating fixed part of basis set: Ionic, confined, hydrogenic.
 
  Al                   ion:

  List of free ionic orbitals and eigenvalues:
    n    l      energy [Ha]    energy [eV]
    1    0       -56.418846     -1535.2349
    2    0        -4.732717      -128.7838
    3    0        -0.872690       -23.7471
    2    1        -3.317230       -90.2664


  List of ionic basis orbitals and eigenvalues:
    n    l      energy [Ha]    energy [eV]    outer radius [A]
    3    2        -0.346815        -9.4373       4.594041
    3    1        -0.631870       -17.1940       4.538221
    3    0        -0.872657       -23.7462       4.538221

 
  F                    hydrogenic:
 
  List of hydrogenic basis orbitals: 
    n    l      effective z      eigenvalue [eV]  inner max. [A]     outer max. [A]     outer radius [A]   
    2    1         1.700000        -9.7616           1.243167           1.243167           4.598524
    3    2         7.400000       -82.7828           0.642437           0.642437           3.305741
    3    0         6.800000       -69.9026           0.057798           1.022307           3.781556
 
  Creating atomic-like basis functions for current effective potential.

  Species Al                  :

  List of atomic basis orbitals and eigenvalues:
    n    l      energy [Ha]    energy [eV]    outer radius [A]
    1    0       -55.621123     -1513.5278       0.850197
    2    0        -3.957030      -107.6763       3.144911
    3    0        -0.272233        -7.4078       4.594041
    2    1        -2.540949       -69.1427       3.731966
    3    1        -0.083300        -2.2667       4.594041


  Species F                   :

  List of atomic basis orbitals and eigenvalues:
    n    l      energy [Ha]    energy [eV]    outer radius [A]
    1    0       -24.399611      -663.9472       1.258458
    2    0        -1.098702       -29.8972       4.325857
    2    1        -0.408210       -11.1080       4.487453

  Assembling full basis from fixed parts.
  | Species Al :   atomic orbital   1 s accepted.
  | Species Al :   atomic orbital   2 s accepted.
  | Species Al :    ionic orbital   3 s accepted.
  | Species Al :   atomic orbital   3 s accepted.
  | Species Al :   atomic orbital   2 p accepted.
  | Species Al :    ionic orbital   3 p accepted.
  | Species Al :   atomic orbital   3 p accepted.
  | Species Al :    ionic orbital   3 d accepted.
  | Species F :   atomic orbital   1 s accepted.
  | Species F :    hydro orbital   3 s accepted.
  | Species F :   atomic orbital   2 s accepted.
  | Species F :   atomic orbital   2 p accepted.
  | Species F :    hydro orbital   2 p accepted.
  | Species F :    hydro orbital   3 d accepted.
 
  Basis size parameters after reduction:
  | Total number of radial functions:       14
  | Total number of basis functions :      180
 
  Per-task memory consumption for arrays in subroutine allocate_ext:
  |           4.807768MB.
  Testing on-site integration grid accuracy.
  |  Species  Function  <phi|h_atom|phi> (log., in eV)  <phi|h_atom|phi> (rad., in eV)
           1        1              -1513.5277717935              -1513.5271881332
           1        2               -107.6762691836               -107.6762662489
           1        3                 -6.9467474784                 -6.9471269649
           1        4                  5.5771951849                  5.4862107220 ***
           1        5                -69.1427313144                -69.1427312731
           1        6                 -1.5197375330                 -1.5230432022
           1        7                  6.8210948310                  6.5529872240 ***
           1        8                  4.3216540965                  4.2851170187 ***
           2        9               -663.9471986398               -663.9470363334
           2       10                 16.8514011578                 16.8512525338
           2       11                -28.4490593856                -28.4490661472
           2       12                -11.1080115307                -11.1080620173
           2       13                  7.1940182175                  7.1685154137
           2       14                 44.8544281765                 44.8543763625
 * Note: Onsite integrals marked "***" above are less accurate than
 * onsite_accuracy_threshold =    0.03000 eV. Usually, this is harmless.
 * When in doubt, tighten the "radial" and/or "radial_multiplier" flags to check.

  Preparing densities etc. for the partition functions (integrals / Hartree potential).

  Preparations completed.
  max(cpu_time)          :      0.184 s.
  Wall clock time (cpu1) :      0.184 s.
------------------------------------------------------------

------------------------------------------------------------
          Begin self-consistency loop: Initialization.

          Date     :  20220517, Time     :  112159.566
------------------------------------------------------------

  Initializing index lists of integration centers etc. from given atomic structure:
  | Number of centers in hartree potential         :        12
  | Number of centers in hartree multipole         :        12
  | Number of centers in electron density summation:        12
  | Number of centers in basis integrals           :        12
  | Number of centers in integrals                 :        12
  | Number of centers in hamiltonian               :        12
  * Using 24 tasks for Scalapack Eigenvalue solver.
  Detailed listing of tasks and assigned k-points:
  (for non-periodic systems, the "k-point" denotes an internal label only)
   Task     0 k-point     1 on node-k98e-006
   Task     1 k-point     1 on node-k98e-006
   Task     2 k-point     1 on node-k98e-006
   Task     3 k-point     1 on node-k98e-006
   Task     4 k-point     1 on node-k98e-006
   Task     5 k-point     1 on node-k98e-006
   Task     6 k-point     1 on node-k98e-006
   Task     7 k-point     1 on node-k98e-006
   Task     8 k-point     1 on node-k98e-006
   Task     9 k-point     1 on node-k98e-006
   Task    10 k-point     1 on node-k98e-006
   Task    11 k-point     1 on node-k98e-006
   Task    12 k-point     1 on node-k98e-006
   Task    13 k-point     1 on node-k98e-006
   Task    14 k-point     1 on node-k98e-006
   Task    15 k-point     1 on node-k98e-006
   Task    16 k-point     1 on node-k98e-006
   Task    17 k-point     1 on node-k98e-006
   Task    18 k-point     1 on node-k98e-006
   Task    19 k-point     1 on node-k98e-006
   Task    20 k-point     1 on node-k98e-006
   Task    21 k-point     1 on node-k98e-006
   Task    22 k-point     1 on node-k98e-006
   Task    23 k-point     1 on node-k98e-006
  Tasks:    24 split into      6 X      4 BLACS grid
  Calculating block size based on n_basis =          180  max_nprow =            6  max_npcol =            4
  ScaLAPACK block size set to:           16
  Allocating        0.012 MB for ovlp
  Allocating        0.012 MB for ham
  Allocating        0.012 MB for eigenvec
  Required Scalapack workspace - INTEGER:            1  REAL:             1
  Partitioning the integration grid into batches with parallel hashing+maxmin method.
  | Number of batches:     1044
  | Maximal batch size:     199
  | Minimal batch size:      17
  | Average batch size:      88.046
  | Standard deviation of batch sizes:      23.073

  Integration load balanced across    24 MPI tasks.
  Work distribution over tasks is as follows:
  Task     0 has       3793 integration points.
  Task     1 has       3844 integration points.
  Task     2 has       3835 integration points.
  Task     3 has       3837 integration points.
  Task     4 has       3762 integration points.
  Task     5 has       3834 integration points.
  Task     6 has       3758 integration points.
  Task     7 has       3882 integration points.
  Task     8 has       3840 integration points.
  Task     9 has       3819 integration points.
  Task    10 has       3774 integration points.
  Task    11 has       3829 integration points.
  Task    12 has       3913 integration points.
  Task    13 has       3767 integration points.
  Task    14 has       3915 integration points.
  Task    15 has       3787 integration points.
  Task    16 has       3908 integration points.
  Task    17 has       3829 integration points.
  Task    18 has       3835 integration points.
  Task    19 has       3832 integration points.
  Task    20 has       3920 integration points.
  Task    21 has       3774 integration points.
  Task    22 has       3795 integration points.
  Task    23 has       3838 integration points.
  Initializing partition tables, free-atom densities, potentials, etc. across the integration grid (initialize_grid_storage).
  | initialize_grid_storage: Actual outermost partition radius vs. multipole_radius_free
  | (-- VB: in principle, multipole_radius_free should be larger, hence this output)
  | Species        1: Confinement radius =              4.999999999999999 AA, multipole_radius_free =              5.004487022111096 AA.
  | Species        1: outer_partition_radius set to              5.004487022111096 AA .
  | Species        2: Confinement radius =              4.999999999999999 AA, multipole_radius_free =              5.009370088163274 AA.
  | Species        2: outer_partition_radius set to              5.009370088163274 AA .
  | The sparse table of interatomic distances needs          1.64 kbyte instead of         1.15 kbyte of memory.
  | Using the partition_type stratmann_smoother will reduce your memory usage.
  | Net number of integration points:    91920
  | of which are non-zero points    :    85795
  Renormalizing the initial density to the exact electron count on the 3D integration grid.
  | Initial density: Formal number of electrons (from input files) :     120.0000000000
  | Integrated number of electrons on 3D grid     :     119.9998031603
  | Charge integration error                      :      -0.0001968397
  | Normalization factor for density and gradient :       1.0000016403
  Renormalizing the free-atom superposition density to the exact electron count on the 3D integration grid.
  | Formal number of electrons (from input files) :     120.0000000000
  | Integrated number of electrons on 3D grid     :     119.9998031603
  | Charge integration error                      :      -0.0001968397
  | Normalization factor for density and gradient :       1.0000016403
  Obtaining max. number of non-zero basis functions in each batch (get_n_compute_maxes).
  | Maximal number of non-zero basis functions:      171 in task     0
  | Maximal number of non-zero basis functions:      158 in task     1
  | Maximal number of non-zero basis functions:      164 in task     2
  | Maximal number of non-zero basis functions:      166 in task     3
  | Maximal number of non-zero basis functions:      165 in task     4
  | Maximal number of non-zero basis functions:      165 in task     5
  | Maximal number of non-zero basis functions:      164 in task     6
  | Maximal number of non-zero basis functions:      166 in task     7
  | Maximal number of non-zero basis functions:      164 in task     8
  | Maximal number of non-zero basis functions:      171 in task     9
  | Maximal number of non-zero basis functions:      165 in task    10
  | Maximal number of non-zero basis functions:      163 in task    11
  | Maximal number of non-zero basis functions:      171 in task    12
  | Maximal number of non-zero basis functions:      170 in task    13
  | Maximal number of non-zero basis functions:      171 in task    14
  | Maximal number of non-zero basis functions:      170 in task    15
  | Maximal number of non-zero basis functions:      171 in task    16
  | Maximal number of non-zero basis functions:      170 in task    17
  | Maximal number of non-zero basis functions:      165 in task    18
  | Maximal number of non-zero basis functions:      163 in task    19
  | Maximal number of non-zero basis functions:      171 in task    20
  | Maximal number of non-zero basis functions:      171 in task    21
  | Maximal number of non-zero basis functions:      166 in task    22
  | Maximal number of non-zero basis functions:      170 in task    23
  Selecting the method for density update.
  Loop over occupied states selected for charge density update.
  Allocating        0.132 MB for KS_eigenvector
  Integrating Hamiltonian matrix: batch-based integration.
  Time summed over all CPUs for integration: real work        0.722 s, elapsed        0.778 s
  Integrating overlap matrix.
  Time summed over all CPUs for integration: real work        0.278 s, elapsed        0.298 s
  Deallocating overlap matrix.

  Updating Kohn-Sham eigenvalues and eigenvectors using ELSI and the ELPA eigensolver.
  Overlap matrix is not singular
  | Lowest and highest eigenvalues :  0.4066E-02,  0.5156E+01
  Finished singularity check of overlap matrix
  | Time :     0.003 s
  Starting ELPA eigensolver
  Finished Cholesky decomposition
  | Time :     0.003 s
  Finished transformation to standard eigenproblem
  | Time :     0.001 s
  Finished solving standard eigenproblem
  | Time :     0.003 s
  Finished back-transformation of eigenvectors
  | Time :     0.001 s

  Obtaining occupation numbers and chemical potential using ELSI.
  | Chemical potential (Fermi level):    -7.68753626 eV
  Writing Kohn-Sham eigenvalues.

  State    Occupation    Eigenvalue [Ha]    Eigenvalue [eV]
      1       2.00000         -55.483550        -1509.78421
      2       2.00000         -55.483550        -1509.78421
      3       2.00000         -55.483550        -1509.78420
      4       2.00000         -24.377903         -663.35649
      5       2.00000         -24.376978         -663.33131
      6       2.00000         -24.376977         -663.33131
      7       2.00000         -24.340963         -662.35130
      8       2.00000         -24.340848         -662.34819
      9       2.00000         -24.340848         -662.34819
     10       2.00000         -24.340647         -662.34270
     11       2.00000         -24.340647         -662.34270
     12       2.00000         -24.340339         -662.33432
     13       2.00000          -3.948867         -107.45414
     14       2.00000          -3.948866         -107.45412
     15       2.00000          -3.948860         -107.45394
     16       2.00000          -2.541210          -69.14984
     17       2.00000          -2.541199          -69.14954
     18       2.00000          -2.541196          -69.14945
     19       2.00000          -2.540683          -69.13550
     20       2.00000          -2.540624          -69.13389
     21       2.00000          -2.540612          -69.13357
     22       2.00000          -2.540564          -69.13227
     23       2.00000          -2.540535          -69.13147
     24       2.00000          -2.540519          -69.13104
     25       2.00000          -1.206431          -32.82865
     26       2.00000          -1.199790          -32.64795
     27       2.00000          -1.199093          -32.62897
     28       2.00000          -1.150456          -31.30550
     29       2.00000          -1.150407          -31.30418
     30       2.00000          -1.149926          -31.29107
     31       2.00000          -1.148088          -31.24107
     32       2.00000          -1.148079          -31.24081
     33       2.00000          -1.147956          -31.23748
     34       2.00000          -0.579378          -15.76569
     35       2.00000          -0.578106          -15.73106
     36       2.00000          -0.554826          -15.09758
     37       2.00000          -0.538859          -14.66311
     38       2.00000          -0.514649          -14.00430
     39       2.00000          -0.504917          -13.73949
     40       2.00000          -0.504556          -13.72966
     41       2.00000          -0.499630          -13.59563
     42       2.00000          -0.495407          -13.48072
     43       2.00000          -0.495306          -13.47795
     44       2.00000          -0.493943          -13.44088
     45       2.00000          -0.493781          -13.43647
     46       2.00000          -0.482492          -13.12928
     47       2.00000          -0.481507          -13.10248
     48       2.00000          -0.478147          -13.01104
     49       2.00000          -0.456409          -12.41952
     50       2.00000          -0.455530          -12.39560
     51       2.00000          -0.455418          -12.39254
     52       2.00000          -0.453080          -12.32894
     53       2.00000          -0.452808          -12.32153
     54       2.00000          -0.451071          -12.27428
     55       2.00000          -0.450551          -12.26011
     56       2.00000          -0.449409          -12.22904
     57       2.00000          -0.449152          -12.22206
     58       2.00000          -0.447920          -12.18852
     59       2.00000          -0.447508          -12.17732
     60       2.00000          -0.447500          -12.17709
     61       0.00000          -0.136845           -3.72373
     62       0.00000          -0.079931           -2.17503
     63       0.00000          -0.078941           -2.14810
     64       0.00000          -0.024197           -0.65842
     65       0.00000          -0.010934           -0.29752
     66       0.00000          -0.001633           -0.04443
     67       0.00000           0.000020            0.00054
     68       0.00000           0.039540            1.07595
     69       0.00000           0.053382            1.45259
     70       0.00000           0.054022            1.47002
     71       0.00000           0.082621            2.24824
     72       0.00000           0.083258            2.26557
     73       0.00000           0.138495            3.76863
     74       0.00000           0.161798            4.40276
     75       0.00000           0.163488            4.44874
     76       0.00000           0.183200            4.98513
     77       0.00000           0.185327            5.04302
     78       0.00000           0.191537            5.21200
     79       0.00000           0.194787            5.30043
     80       0.00000           0.200714            5.46172
     81       0.00000           0.204786            5.57252
     82       0.00000           0.213689            5.81479
     83       0.00000           0.214211            5.82897
     84       0.00000           0.228447            6.21637
     85       0.00000           0.238670            6.49454
     86       0.00000           0.253364            6.89439
     87       0.00000           0.273881            7.45269
     88       0.00000           0.296007            8.05477
     89       0.00000           0.299732            8.15612
     90       0.00000           0.303210            8.25076
     91       0.00000           0.304743            8.29249
     92       0.00000           0.318130            8.65676
     93       0.00000           0.350452            9.53628
     94       0.00000           0.351963            9.57741
     95       0.00000           0.356801            9.70905
     96       0.00000           0.372046           10.12389

  Highest occupied state (VBM) at    -12.17708720 eV
  | Occupation number:      2.00000000

  Lowest unoccupied state (CBM) at    -3.72373144 eV
  | Occupation number:      0.00000000

  Overall HOMO-LUMO gap:      8.45335576 eV.
  Calculating total energy contributions from superposition of free atom densities.

  Total energy components:
  | Sum of eigenvalues            :        -887.90523875 Ha      -24161.13085107 eV
  | XC energy correction          :        -144.33523518 Ha       -3927.56158134 eV
  | XC potential correction       :         187.93322632 Ha        5113.92328180 eV
  | Free-atom electrostatic energy:        -781.08204859 Ha      -21254.32395017 eV
  | Hartree energy correction     :           0.00000000 Ha           0.00000000 eV
  | Entropy correction            :           0.00000000 Ha           0.00000000 eV
  | ---------------------------
  | Total energy                  :       -1625.38929619 Ha      -44229.09310078 eV
  | Total energy, T -> 0          :       -1625.38929619 Ha      -44229.09310078 eV  <-- do not rely on this value for anything but (periodic) metals
  | Electronic free energy        :       -1625.38929619 Ha      -44229.09310078 eV

  Derived energy quantities:
  | Kinetic energy                :        1627.59472070 Ha       44289.10575506 eV
  | Electrostatic energy          :       -3108.64878171 Ha      -84590.63727449 eV
  | Energy correction for multipole
  | error in Hartree potential    :           0.00000000 Ha           0.00000000 eV
  | Sum of eigenvalues per atom                           :       -2013.42757092 eV
  | Total energy (T->0) per atom                          :       -3685.75775840 eV  <-- do not rely on this value for anything but (periodic) metals
  | Electronic free energy per atom                       :       -3685.75775840 eV
  Initialize hartree_potential_storage
  Max. number of atoms included in rho_multipole:           12

  End scf initialization - timings             :  max(cpu_time)    wall_clock(cpu1)
  | Time for scf. initialization                :        0.117 s           0.118 s
  | Boundary condition initialization           :        0.000 s           0.000 s
  | Integration                                 :        0.046 s           0.047 s
  | Solution of K.-S. eqns.                     :        0.012 s           0.012 s
  | Grid partitioning                           :        0.035 s           0.035 s
  | Preloading free-atom quantities on grid     :        0.016 s           0.016 s
  | Free-atom superposition energy              :        0.005 s           0.004 s
  | Total energy evaluation                     :        0.000 s           0.001 s

  Partial memory accounting:
  | Current value for overall tracked memory usage:
  |   Minimum:        0.273 MB (on task 23)
  |   Maximum:        0.292 MB (on task  0)
  |   Average:        0.287 MB
  | Peak value for overall tracked memory usage:
  |   Minimum:        1.330 MB (on task  1 after allocating wave)
  |   Maximum:        1.422 MB (on task  0 after allocating wave)
  |   Average:        1.390 MB
  | Largest tracked array allocation so far:
  |   Minimum:        0.240 MB (H_times_psi on task  1)
  |   Maximum:        0.472 MB (all_coords on task  9)
  |   Average:        0.279 MB
  Note:  These values currently only include a subset of arrays which are explicitly tracked.
  The "true" memory usage will be greater.
------------------------------------------------------------
  Evaluating new KS density.
  Integration grid: deviation in total charge (<rho> - N_e) =   4.263256E-14

  Time for density update prior                :  max(cpu_time)    wall_clock(cpu1)
  | self-consistency iterative process          :        0.029 s           0.029 s

------------------------------------------------------------
          Begin self-consistency iteration #    1

  Date     :  20220517, Time     :  112159.714
------------------------------------------------------------
  Pulay mixing of updated and previous charge densities.
  Renormalizing the density to the exact electron count on the 3D integration grid.
  | Formal number of electrons (from input files) :     120.0000000000
  | Integrated number of electrons on 3D grid     :     120.0000000000
  | Charge integration error                      :       0.0000000000
  | Normalization factor for density and gradient :       1.0000000000

  Evaluating partitioned Hartree potential by multipole expansion.
  | Original multipole sum: apparent total charge =   0.140931E-12
  | Sum of charges compensated after spline to logarithmic grids =   0.106963E-03
  | Analytical far-field extrapolation by fixed multipoles:
  | Hartree multipole sum: apparent total charge =   0.140392E-12
  Summing up the Hartree potential.
  Time summed over all CPUs for potential: real work        0.385 s, elapsed        0.431 s
  | RMS charge density error from multipole expansion :   0.105399E-01

  Integrating Hamiltonian matrix: batch-based integration.
  Time summed over all CPUs for integration: real work        0.676 s, elapsed        0.723 s

  Updating Kohn-Sham eigenvalues and eigenvectors using ELSI and the ELPA eigensolver.
  Starting ELPA eigensolver
  Finished transformation to standard eigenproblem
  | Time :     0.000 s
  Finished solving standard eigenproblem
  | Time :     0.003 s
  Finished back-transformation of eigenvectors
  | Time :     0.000 s

  Obtaining occupation numbers and chemical potential using ELSI.
  | Chemical potential (Fermi level):    -7.65748468 eV
  Writing Kohn-Sham eigenvalues.

  State    Occupation    Eigenvalue [Ha]    Eigenvalue [eV]
      1       2.00000         -55.647592        -1514.24803
      2       2.00000         -55.645190        -1514.18265
      3       2.00000         -55.645186        -1514.18254
      4       2.00000         -24.280510         -660.70629
      5       2.00000         -24.275567         -660.57179
      6       2.00000         -24.275565         -660.57173
      7       2.00000         -24.082812         -655.32665
      8       2.00000         -24.074346         -655.09628
      9       2.00000         -24.074340         -655.09612
     10       2.00000         -24.071477         -655.01822
     11       2.00000         -24.071473         -655.01810
     12       2.00000         -24.070412         -654.98922
     13       2.00000          -4.088193         -111.24539
     14       2.00000          -4.085967         -111.18481
     15       2.00000          -4.085962         -111.18467
     16       2.00000          -2.681646          -72.97131
     17       2.00000          -2.681645          -72.97126
     18       2.00000          -2.679502          -72.91297
     19       2.00000          -2.679437          -72.91118
     20       2.00000          -2.679405          -72.91032
     21       2.00000          -2.679400          -72.91017
     22       2.00000          -2.679178          -72.90414
     23       2.00000          -2.676883          -72.84170
     24       2.00000          -2.676878          -72.84155
     25       2.00000          -1.204446          -32.77464
     26       2.00000          -1.195764          -32.53839
     27       2.00000          -1.193459          -32.47566
     28       2.00000          -1.029389          -28.01109
     29       2.00000          -1.023036          -27.83823
     30       2.00000          -1.022858          -27.83339
     31       2.00000          -1.018197          -27.70654
     32       2.00000          -1.018180          -27.70609
     33       2.00000          -1.018104          -27.70403
     34       2.00000          -0.589463          -16.04011
     35       2.00000          -0.586216          -15.95174
     36       2.00000          -0.559266          -15.21839
     37       2.00000          -0.547147          -14.88862
     38       2.00000          -0.506482          -13.78207
     39       2.00000          -0.496260          -13.50392
     40       2.00000          -0.493857          -13.43853
     41       2.00000          -0.488277          -13.28669
     42       2.00000          -0.482945          -13.14159
     43       2.00000          -0.408653          -11.12003
     44       2.00000          -0.398647          -10.84774
     45       2.00000          -0.396667          -10.79385
     46       2.00000          -0.372741          -10.14279
     47       2.00000          -0.370434          -10.08002
     48       2.00000          -0.368287          -10.02160
     49       2.00000          -0.343399           -9.34437
     50       2.00000          -0.340824           -9.27429
     51       2.00000          -0.339519           -9.23877
     52       2.00000          -0.334984           -9.11537
     53       2.00000          -0.334630           -9.10574
     54       2.00000          -0.331920           -9.03199
     55       2.00000          -0.326640           -8.88833
     56       2.00000          -0.325911           -8.86849
     57       2.00000          -0.325598           -8.85996
     58       2.00000          -0.324364           -8.82640
     59       2.00000          -0.322956           -8.78808
     60       2.00000          -0.322015           -8.76247
     61       0.00000          -0.154922           -4.21564
     62       0.00000          -0.083009           -2.25878
     63       0.00000          -0.080811           -2.19897
     64       0.00000          -0.043865           -1.19363
     65       0.00000          -0.030518           -0.83043
     66       0.00000          -0.014471           -0.39379
     67       0.00000          -0.012748           -0.34690
     68       0.00000           0.025088            0.68269
     69       0.00000           0.034781            0.94643
     70       0.00000           0.036728            0.99942
     71       0.00000           0.056071            1.52577
     72       0.00000           0.057271            1.55842
     73       0.00000           0.133893            3.64342
     74       0.00000           0.151852            4.13210
     75       0.00000           0.162886            4.43235
     76       0.00000           0.178869            4.86729
     77       0.00000           0.179808            4.89282
     78       0.00000           0.186831            5.08392
     79       0.00000           0.191555            5.21249
     80       0.00000           0.195591            5.32230
     81       0.00000           0.196671            5.35168
     82       0.00000           0.202827            5.51921
     83       0.00000           0.213300            5.80420
     84       0.00000           0.218624            5.94907
     85       0.00000           0.227074            6.17901
     86       0.00000           0.247125            6.72460
     87       0.00000           0.265301            7.21922
     88       0.00000           0.280681            7.63771
     89       0.00000           0.286775            7.80355
     90       0.00000           0.289303            7.87235
     91       0.00000           0.296277            8.06211
     92       0.00000           0.300470            8.17622
     93       0.00000           0.324324            8.82531
     94       0.00000           0.337131            9.17380
     95       0.00000           0.366378            9.96964
     96       0.00000           0.375109           10.20723

  Highest occupied state (VBM) at     -8.76247318 eV
  | Occupation number:      2.00000000

  Lowest unoccupied state (CBM) at    -4.21563926 eV
  | Occupation number:      0.00000000

  Overall HOMO-LUMO gap:      4.54683392 eV.

  Total energy components:
  | Sum of eigenvalues            :        -882.70018913 Ha      -24019.49424456 eV
  | XC energy correction          :        -145.71471598 Ha       -3965.09916383 eV
  | XC potential correction       :         189.74638290 Ha        5163.26178268 eV
  | Free-atom electrostatic energy:        -781.08204859 Ha      -21254.32395017 eV
  | Hartree energy correction     :          -5.41242195 Ha        -147.27949487 eV
  | Entropy correction            :           0.00000000 Ha           0.00000000 eV
  | ---------------------------
  | Total energy                  :       -1625.16299274 Ha      -44222.93507074 eV
  | Total energy, T -> 0          :       -1625.16299274 Ha      -44222.93507074 eV  <-- do not rely on this value for anything but (periodic) metals
  | Electronic free energy        :       -1625.16299274 Ha      -44222.93507074 eV

  Derived energy quantities:
  | Kinetic energy                :        1634.30006248 Ha       44471.56738853 eV
  | Electrostatic energy          :       -3113.74833925 Ha      -84729.40329544 eV
  | Energy correction for multipole
  | error in Hartree potential    :           0.04535979 Ha           1.23430269 eV
  | Sum of eigenvalues per atom                           :       -2001.62452038 eV
  | Total energy (T->0) per atom                          :       -3685.24458923 eV  <-- do not rely on this value for anything but (periodic) metals
  | Electronic free energy per atom                       :       -3685.24458923 eV
  Evaluating new KS density.
  Integration grid: deviation in total charge (<rho> - N_e) =   0.000000E+00

  Self-consistency convergence accuracy:
  | Change of charge density      :  0.6127E+00
  | Change of sum of eigenvalues  :  0.1416E+03 eV
  | Change of total energy        :  0.6158E+01 eV


------------------------------------------------------------
  End self-consistency iteration #     1       :  max(cpu_time)    wall_clock(cpu1)
  | Time for this iteration                     :        0.084 s           0.083 s
  | Charge density update                       :        0.028 s           0.028 s
  | Density mixing                              :        0.001 s           0.000 s
  | Hartree multipole update                    :        0.001 s           0.001 s
  | Hartree multipole summation                 :        0.018 s           0.019 s
  | Integration                                 :        0.031 s           0.030 s
  | Solution of K.-S. eqns.                     :        0.004 s           0.005 s
  | Total energy evaluation                     :        0.000 s           0.000 s

  Partial memory accounting:
  | Current value for overall tracked memory usage:
  |   Minimum:        0.273 MB (on task 23)
  |   Maximum:        0.292 MB (on task  0)
  |   Average:        0.287 MB
  | Peak value for overall tracked memory usage:
  |   Minimum:        1.330 MB (on task  1 after allocating wave)
  |   Maximum:        1.422 MB (on task  0 after allocating wave)
  |   Average:        1.390 MB
  | Largest tracked array allocation so far:
  |   Minimum:        0.720 MB (gradient_basis_wave on task  1)
  |   Maximum:        0.779 MB (gradient_basis_wave on task  0)
  |   Average:        0.761 MB
  Note:  These values currently only include a subset of arrays which are explicitly tracked.
  The "true" memory usage will be greater.
------------------------------------------------------------

------------------------------------------------------------
          Begin self-consistency iteration #    2

  Date     :  20220517, Time     :  112159.803
------------------------------------------------------------
  Pulay mixing of updated and previous charge densities.
  Renormalizing the density to the exact electron count on the 3D integration grid.
  | Formal number of electrons (from input files) :     120.0000000000
  | Integrated number of electrons on 3D grid     :     120.0000000000
  | Charge integration error                      :      -0.0000000000
  | Normalization factor for density and gradient :       1.0000000000

  Evaluating partitioned Hartree potential by multipole expansion.
  | Original multipole sum: apparent total charge =   0.887486E-13
  | Sum of charges compensated after spline to logarithmic grids =   0.672138E-04
  | Analytical far-field extrapolation by fixed multipoles:
  | Hartree multipole sum: apparent total charge =   0.873166E-13
  Summing up the Hartree potential.
  Time summed over all CPUs for potential: real work        0.384 s, elapsed        0.429 s
  | RMS charge density error from multipole expansion :   0.125300E-01

  Integrating Hamiltonian matrix: batch-based integration.
  Time summed over all CPUs for integration: real work        0.676 s, elapsed        0.748 s

  Updating Kohn-Sham eigenvalues and eigenvectors using ELSI and the ELPA eigensolver.
  Starting ELPA eigensolver
  Finished transformation to standard eigenproblem
  | Time :     0.000 s
  Finished solving standard eigenproblem
  | Time :     0.003 s
  Finished back-transformation of eigenvectors
  | Time :     0.000 s

  Obtaining occupation numbers and chemical potential using ELSI.
  | Chemical potential (Fermi level):    -7.82293365 eV
  Highest occupied state (VBM) at     -9.94636830 eV
  | Occupation number:      2.00000000

  Lowest unoccupied state (CBM) at    -4.40095735 eV
  | Occupation number:      0.00000000

  Overall HOMO-LUMO gap:      5.54541095 eV.

  Checking to see if s.c.f. parameters should be adjusted.

  Total energy components:
  | Sum of eigenvalues            :        -885.89752988 Ha      -24106.49831313 eV
  | XC energy correction          :        -145.21193119 Ha       -3951.41769357 eV
  | XC potential correction       :         189.08481813 Ha        5145.25968914 eV
  | Free-atom electrostatic energy:        -781.08204859 Ha      -21254.32395017 eV
  | Hartree energy correction     :          -1.98761678 Ha         -54.08580435 eV
  | Entropy correction            :           0.00000000 Ha           0.00000000 eV
  | ---------------------------
  | Total energy                  :       -1625.09430831 Ha      -44221.06607208 eV
  | Total energy, T -> 0          :       -1625.09430831 Ha      -44221.06607208 eV  <-- do not rely on this value for anything but (periodic) metals
  | Electronic free energy        :       -1625.09430831 Ha      -44221.06607208 eV

  Derived energy quantities:
  | Kinetic energy                :        1630.37056299 Ha       44364.64026714 eV
  | Electrostatic energy          :       -3110.25294011 Ha      -84634.28864565 eV
  | Energy correction for multipole
  | error in Hartree potential    :           0.04951762 Ha           1.34744287 eV
  | Sum of eigenvalues per atom                           :       -2008.87485943 eV
  | Total energy (T->0) per atom                          :       -3685.08883934 eV  <-- do not rely on this value for anything but (periodic) metals
  | Electronic free energy per atom                       :       -3685.08883934 eV
  Evaluating new KS density.
  Integration grid: deviation in total charge (<rho> - N_e) =   2.842171E-14

  Self-consistency convergence accuracy:
  | Change of charge density      :  0.4935E+00
  | Change of sum of eigenvalues  : -0.8700E+02 eV
  | Change of total energy        :  0.1869E+01 eV


------------------------------------------------------------
  End self-consistency iteration #     2       :  max(cpu_time)    wall_clock(cpu1)
  | Time for this iteration                     :        0.087 s           0.084 s
  | Charge density update                       :        0.028 s           0.027 s
  | Density mixing                              :        0.004 s           0.001 s
  | Hartree multipole update                    :        0.001 s           0.002 s
  | Hartree multipole summation                 :        0.018 s           0.018 s
  | Integration                                 :        0.032 s           0.031 s
  | Solution of K.-S. eqns.                     :        0.004 s           0.005 s
  | Total energy evaluation                     :        0.000 s           0.000 s

  Partial memory accounting:
  | Current value for overall tracked memory usage:
  |   Minimum:        0.274 MB (on task 23)
  |   Maximum:        0.293 MB (on task  0)
  |   Average:        0.288 MB
  | Peak value for overall tracked memory usage:
  |   Minimum:        1.330 MB (on task  1 after allocating wave)
  |   Maximum:        1.422 MB (on task  0 after allocating wave)
  |   Average:        1.390 MB
  | Largest tracked array allocation so far:
  |   Minimum:        0.720 MB (gradient_basis_wave on task  1)
  |   Maximum:        0.779 MB (gradient_basis_wave on task  0)
  |   Average:        0.761 MB
  Note:  These values currently only include a subset of arrays which are explicitly tracked.
  The "true" memory usage will be greater.
------------------------------------------------------------

------------------------------------------------------------
          Begin self-consistency iteration #    3

  Date     :  20220517, Time     :  112159.893
------------------------------------------------------------
  Pulay mixing of updated and previous charge densities.
  Renormalizing the density to the exact electron count on the 3D integration grid.
  | Formal number of electrons (from input files) :     120.0000000000
  | Integrated number of electrons on 3D grid     :     120.0000000000
  | Charge integration error                      :       0.0000000000
  | Normalization factor for density and gradient :       1.0000000000

  Evaluating partitioned Hartree potential by multipole expansion.
  | Original multipole sum: apparent total charge =   0.690336E-13
  | Sum of charges compensated after spline to logarithmic grids =   0.856976E-04
  | Analytical far-field extrapolation by fixed multipoles:
  | Hartree multipole sum: apparent total charge =   0.707554E-13
  Summing up the Hartree potential.
  Time summed over all CPUs for potential: real work        0.383 s, elapsed        0.430 s
  | RMS charge density error from multipole expansion :   0.172213E-01

  Integrating Hamiltonian matrix: batch-based integration.
  Time summed over all CPUs for integration: real work        0.674 s, elapsed        0.719 s

  Updating Kohn-Sham eigenvalues and eigenvectors using ELSI and the ELPA eigensolver.
  Starting ELPA eigensolver
  Finished transformation to standard eigenproblem
  | Time :     0.000 s
  Finished solving standard eigenproblem
  | Time :     0.004 s
  Finished back-transformation of eigenvectors
  | Time :     0.000 s

  Obtaining occupation numbers and chemical potential using ELSI.
  | Chemical potential (Fermi level):    -7.89079863 eV
  Highest occupied state (VBM) at     -9.74553249 eV
  | Occupation number:      2.00000000

  Lowest unoccupied state (CBM) at    -4.65600080 eV
  | Occupation number:      0.00000000

  Overall HOMO-LUMO gap:      5.08953169 eV.

  Total energy components:
  | Sum of eigenvalues            :        -887.00748672 Ha      -24136.70177565 eV
  | XC energy correction          :        -145.18165772 Ha       -3950.59391065 eV
  | XC potential correction       :         189.04362508 Ha        5144.13876935 eV
  | Free-atom electrostatic energy:        -781.08204859 Ha      -21254.32395017 eV
  | Hartree energy correction     :          -0.86568754 Ha         -23.55655648 eV
  | Entropy correction            :           0.00000000 Ha           0.00000000 eV
  | ---------------------------
  | Total energy                  :       -1625.09325549 Ha      -44221.03742359 eV
  | Total energy, T -> 0          :       -1625.09325549 Ha      -44221.03742359 eV  <-- do not rely on this value for anything but (periodic) metals
  | Electronic free energy        :       -1625.09325549 Ha      -44221.03742359 eV

  Derived energy quantities:
  | Kinetic energy                :        1628.70744673 Ha       44319.38457086 eV
  | Electrostatic energy          :       -3108.61904450 Ha      -84589.82808380 eV
  | Energy correction for multipole
  | error in Hartree potential    :           0.06516080 Ha           1.77311570 eV
  | Sum of eigenvalues per atom                           :       -2011.39181464 eV
  | Total energy (T->0) per atom                          :       -3685.08645197 eV  <-- do not rely on this value for anything but (periodic) metals
  | Electronic free energy per atom                       :       -3685.08645197 eV
  Evaluating new KS density.
  Integration grid: deviation in total charge (<rho> - N_e) =   2.842171E-14

  Self-consistency convergence accuracy:
  | Change of charge density      :  0.1257E+00
  | Change of sum of eigenvalues  : -0.3020E+02 eV
  | Change of total energy        :  0.2865E-01 eV


------------------------------------------------------------
  End self-consistency iteration #     3       :  max(cpu_time)    wall_clock(cpu1)
  | Time for this iteration                     :        0.086 s           0.084 s
  | Charge density update                       :        0.028 s           0.028 s
  | Density mixing                              :        0.004 s           0.002 s
  | Hartree multipole update                    :        0.001 s           0.001 s
  | Hartree multipole summation                 :        0.018 s           0.019 s
  | Integration                                 :        0.030 s           0.030 s
  | Solution of K.-S. eqns.                     :        0.004 s           0.004 s
  | Total energy evaluation                     :        0.000 s           0.000 s

  Partial memory accounting:
  | Current value for overall tracked memory usage:
  |   Minimum:        0.274 MB (on task 23)
  |   Maximum:        0.293 MB (on task  0)
  |   Average:        0.288 MB
  | Peak value for overall tracked memory usage:
  |   Minimum:        1.330 MB (on task  1 after allocating wave)
  |   Maximum:        1.422 MB (on task  0 after allocating wave)
  |   Average:        1.390 MB
  | Largest tracked array allocation so far:
  |   Minimum:        0.720 MB (gradient_basis_wave on task  1)
  |   Maximum:        0.779 MB (gradient_basis_wave on task  0)
  |   Average:        0.761 MB
  Note:  These values currently only include a subset of arrays which are explicitly tracked.
  The "true" memory usage will be greater.
------------------------------------------------------------

------------------------------------------------------------
          Begin self-consistency iteration #    4

  Date     :  20220517, Time     :  112159.983
------------------------------------------------------------
  Pulay mixing of updated and previous charge densities.
  Renormalizing the density to the exact electron count on the 3D integration grid.
  | Formal number of electrons (from input files) :     120.0000000000
  | Integrated number of electrons on 3D grid     :     120.0000000000
  | Charge integration error                      :       0.0000000000
  | Normalization factor for density and gradient :       1.0000000000

  Evaluating partitioned Hartree potential by multipole expansion.
  | Original multipole sum: apparent total charge =   0.531988E-13
  | Sum of charges compensated after spline to logarithmic grids =   0.943855E-04
  | Analytical far-field extrapolation by fixed multipoles:
  | Hartree multipole sum: apparent total charge =   0.530450E-13
  Summing up the Hartree potential.
  Time summed over all CPUs for potential: real work        0.384 s, elapsed        0.430 s
  | RMS charge density error from multipole expansion :   0.195226E-01

  Integrating Hamiltonian matrix: batch-based integration.
  Time summed over all CPUs for integration: real work        0.674 s, elapsed        0.724 s

  Updating Kohn-Sham eigenvalues and eigenvectors using ELSI and the ELPA eigensolver.
  Starting ELPA eigensolver
  Finished transformation to standard eigenproblem
  | Time :     0.000 s
  Finished solving standard eigenproblem
  | Time :     0.003 s
  Finished back-transformation of eigenvectors
  | Time :     0.000 s

  Obtaining occupation numbers and chemical potential using ELSI.
  | Chemical potential (Fermi level):    -7.88711834 eV
  Highest occupied state (VBM) at     -9.83946870 eV
  | Occupation number:      2.00000000

  Lowest unoccupied state (CBM) at    -4.61228448 eV
  | Occupation number:      0.00000000

  Overall HOMO-LUMO gap:      5.22718422 eV.

  Total energy components:
  | Sum of eigenvalues            :        -887.18595714 Ha      -24141.55820273 eV
  | XC energy correction          :        -145.16308342 Ha       -3950.08847821 eV
  | XC potential correction       :         189.01838039 Ha        5143.45182642 eV
  | Free-atom electrostatic energy:        -781.08204859 Ha      -21254.32395017 eV
  | Hartree energy correction     :          -0.67842957 Ha         -18.46100794 eV
  | Entropy correction            :           0.00000000 Ha           0.00000000 eV
  | ---------------------------
  | Total energy                  :       -1625.09113833 Ha      -44220.97981262 eV
  | Total energy, T -> 0          :       -1625.09113833 Ha      -44220.97981262 eV  <-- do not rely on this value for anything but (periodic) metals
  | Electronic free energy        :       -1625.09113833 Ha      -44220.97981262 eV

  Derived energy quantities:
  | Kinetic energy                :        1627.96341286 Ha       44299.13837919 eV
  | Electrostatic energy          :       -3107.89146776 Ha      -84570.02971360 eV
  | Energy correction for multipole
  | error in Hartree potential    :           0.07247524 Ha           1.97215166 eV
  | Sum of eigenvalues per atom                           :       -2011.79651689 eV
  | Total energy (T->0) per atom                          :       -3685.08165105 eV  <-- do not rely on this value for anything but (periodic) metals
  | Electronic free energy per atom                       :       -3685.08165105 eV
  Evaluating new KS density.
  Integration grid: deviation in total charge (<rho> - N_e) =   4.263256E-14

  Self-consistency convergence accuracy:
  | Change of charge density      :  0.8420E-01
  | Change of sum of eigenvalues  : -0.4856E+01 eV
  | Change of total energy        :  0.5761E-01 eV


------------------------------------------------------------
  End self-consistency iteration #     4       :  max(cpu_time)    wall_clock(cpu1)
  | Time for this iteration                     :        0.086 s           0.084 s
  | Charge density update                       :        0.028 s           0.028 s
  | Density mixing                              :        0.004 s           0.002 s
  | Hartree multipole update                    :        0.001 s           0.001 s
  | Hartree multipole summation                 :        0.018 s           0.018 s
  | Integration                                 :        0.031 s           0.031 s
  | Solution of K.-S. eqns.                     :        0.004 s           0.004 s
  | Total energy evaluation                     :        0.000 s           0.000 s

  Partial memory accounting:
  | Current value for overall tracked memory usage:
  |   Minimum:        0.274 MB (on task 23)
  |   Maximum:        0.293 MB (on task  0)
  |   Average:        0.288 MB
  | Peak value for overall tracked memory usage:
  |   Minimum:        1.330 MB (on task  1 after allocating wave)
  |   Maximum:        1.422 MB (on task  0 after allocating wave)
  |   Average:        1.390 MB
  | Largest tracked array allocation so far:
  |   Minimum:        0.720 MB (gradient_basis_wave on task  1)
  |   Maximum:        0.779 MB (gradient_basis_wave on task  0)
  |   Average:        0.761 MB
  Note:  These values currently only include a subset of arrays which are explicitly tracked.
  The "true" memory usage will be greater.
------------------------------------------------------------

------------------------------------------------------------
          Begin self-consistency iteration #    5

  Date     :  20220517, Time     :  112200.073
------------------------------------------------------------
  Pulay mixing of updated and previous charge densities.
  Renormalizing the density to the exact electron count on the 3D integration grid.
  | Formal number of electrons (from input files) :     120.0000000000
  | Integrated number of electrons on 3D grid     :     120.0000000000
  | Charge integration error                      :       0.0000000000
  | Normalization factor for density and gradient :       1.0000000000

  Evaluating partitioned Hartree potential by multipole expansion.
  | Original multipole sum: apparent total charge =   0.683202E-13
  | Sum of charges compensated after spline to logarithmic grids =   0.948530E-04
  | Analytical far-field extrapolation by fixed multipoles:
  | Hartree multipole sum: apparent total charge =   0.664877E-13
  Summing up the Hartree potential.
  Time summed over all CPUs for potential: real work        0.384 s, elapsed        0.428 s
  | RMS charge density error from multipole expansion :   0.192723E-01

  Integrating Hamiltonian matrix: batch-based integration.
  Time summed over all CPUs for integration: real work        0.673 s, elapsed        0.725 s

  Updating Kohn-Sham eigenvalues and eigenvectors using ELSI and the ELPA eigensolver.
  Starting ELPA eigensolver
  Finished transformation to standard eigenproblem
  | Time :     0.001 s
  Finished solving standard eigenproblem
  | Time :     0.003 s
  Finished back-transformation of eigenvectors
  | Time :     0.000 s

  Obtaining occupation numbers and chemical potential using ELSI.
  | Chemical potential (Fermi level):    -7.85753079 eV
  Highest occupied state (VBM) at     -9.87437715 eV
  | Occupation number:      2.00000000

  Lowest unoccupied state (CBM) at    -4.54251490 eV
  | Occupation number:      0.00000000

  Overall HOMO-LUMO gap:      5.33186225 eV.

  Total energy components:
  | Sum of eigenvalues            :        -886.95799325 Ha      -24135.35498966 eV
  | XC energy correction          :        -145.15772549 Ha       -3949.94268135 eV
  | XC potential correction       :         189.01156957 Ha        5143.26649460 eV
  | Free-atom electrostatic energy:        -781.08204859 Ha      -21254.32395017 eV
  | Hartree energy correction     :          -0.90480439 Ha         -24.62098010 eV
  | Entropy correction            :           0.00000000 Ha           0.00000000 eV
[...]
   Total forces(   7)            :  0.736069E+00  0.318829E+01  0.174402E+00
  atom #    8
   Hellmann-Feynman              :  0.361094E-02 -0.684198E+00  0.302468E+00
   Ionic forces                  :  0.000000E+00  0.000000E+00  0.000000E+00
   Multipole                     :  0.224212E+00 -0.676617E-01  0.233961E+00
   Hartree pot. SCF incomplete   : -0.300109E-06 -0.788906E-07 -0.964214E-06
   Pulay + GGA                   : -0.958873E+00  0.925980E+00 -0.121776E+01
   ----------------------------------------------------------------
   Total forces(   8)            : -0.731050E+00  0.174120E+00 -0.681331E+00
  atom #    9
   Hellmann-Feynman              :  0.305384E-01  0.842823E+00 -0.280045E+00
   Ionic forces                  :  0.000000E+00  0.000000E+00  0.000000E+00
   Multipole                     :  0.413244E-01  0.920717E-01 -0.295534E+00
   Hartree pot. SCF incomplete   : -0.420557E-06  0.247771E-05  0.264133E-05
   Pulay + GGA                   : -0.205509E+00 -0.109665E+01  0.151029E+01
   ----------------------------------------------------------------
   Total forces(   9)            : -0.133647E+00 -0.161750E+00  0.934715E+00
  atom #   10
   Hellmann-Feynman              : -0.425020E+00 -0.104748E+01  0.301088E+01
   Ionic forces                  :  0.000000E+00  0.000000E+00  0.000000E+00
   Multipole                     : -0.893591E-01 -0.282197E+00  0.639812E+00
   Hartree pot. SCF incomplete   : -0.232857E-06 -0.108291E-05  0.165467E-05
   Pulay + GGA                   :  0.943248E+00  0.237215E+01 -0.668516E+01
   ----------------------------------------------------------------
   Total forces(  10)            :  0.428868E+00  0.104247E+01 -0.303447E+01
  atom #   11
   Hellmann-Feynman              :  0.126285E+00  0.279199E+01 -0.112135E+01
   Ionic forces                  :  0.000000E+00  0.000000E+00  0.000000E+00
   Multipole                     :  0.325375E-01  0.709749E+00 -0.286932E+00
   Hartree pot. SCF incomplete   :  0.101262E-05 -0.315435E-05 -0.672915E-05
   Pulay + GGA                   : -0.227855E+00 -0.673934E+01  0.216276E+01
   ----------------------------------------------------------------
   Total forces(  11)            : -0.690315E-01 -0.323760E+01  0.754473E+00
  atom #   12
   Hellmann-Feynman              : -0.739780E-01 -0.687180E+00  0.291947E+00
   Ionic forces                  :  0.000000E+00  0.000000E+00  0.000000E+00
   Multipole                     : -0.280392E+00 -0.742966E-01  0.159844E+00
   Hartree pot. SCF incomplete   :  0.540230E-06 -0.411189E-07 -0.799706E-06
   Pulay + GGA                   :  0.124549E+01  0.956440E+00 -0.895751E+00
   ----------------------------------------------------------------
   Total forces(  12)            :  0.891124E+00  0.194964E+00 -0.443961E+00


  Self-consistency convergence accuracy:
  | Change of charge density      :  0.1327E-05
  | Change of sum of eigenvalues  : -0.8683E-04 eV
  | Change of total energy        :  0.8137E-07 eV
  | Change of forces              :  0.1091E-05 eV/A

  Writing Kohn-Sham eigenvalues.

  State    Occupation    Eigenvalue [Ha]    Eigenvalue [eV]
      1       2.00000         -55.631365        -1513.80648
      2       2.00000         -55.628334        -1513.72400
      3       2.00000         -55.628332        -1513.72393
      4       2.00000         -24.340242         -662.33167
      5       2.00000         -24.337731         -662.26337
      6       2.00000         -24.337726         -662.26322
      7       2.00000         -24.224168         -659.17314
      8       2.00000         -24.215688         -658.94239
      9       2.00000         -24.215686         -658.94235
     10       2.00000         -24.213260         -658.87634
     11       2.00000         -24.212970         -658.86844
     12       2.00000         -24.212963         -658.86824
     13       2.00000          -4.085965         -111.18476
     14       2.00000          -4.083054         -111.10556
     15       2.00000          -4.083050         -111.10544
     16       2.00000          -2.679575          -72.91494
     17       2.00000          -2.678550          -72.88706
     18       2.00000          -2.676745          -72.83793
     19       2.00000          -2.676716          -72.83714
     20       2.00000          -2.675656          -72.80830
     21       2.00000          -2.675616          -72.80721
     22       2.00000          -2.674250          -72.77005
     23       2.00000          -2.671230          -72.68786
     24       2.00000          -2.671225          -72.68772
     25       2.00000          -1.224397          -33.31754
     26       2.00000          -1.216207          -33.09467
     27       2.00000          -1.214359          -33.04439
     28       2.00000          -1.072090          -29.17306
     29       2.00000          -1.064649          -28.97058
     30       2.00000          -1.064501          -28.96654
     31       2.00000          -1.061364          -28.88118
     32       2.00000          -1.060351          -28.85363
     33       2.00000          -1.060252          -28.85093
     34       2.00000          -0.607976          -16.54388
     35       2.00000          -0.605391          -16.47353
     36       2.00000          -0.579661          -15.77337
     37       2.00000          -0.565983          -15.40119
     38       2.00000          -0.524276          -14.26628
     39       2.00000          -0.517382          -14.07869
     40       2.00000          -0.513983          -13.98619
     41       2.00000          -0.508257          -13.83039
     42       2.00000          -0.503240          -13.69385
     43       2.00000          -0.442812          -12.04952
     44       2.00000          -0.434718          -11.82928
     45       2.00000          -0.432257          -11.76231
     46       2.00000          -0.414119          -11.26875
     47       2.00000          -0.411001          -11.18389
     48       2.00000          -0.409036          -11.13043
     49       2.00000          -0.381431          -10.37928
     50       2.00000          -0.378705          -10.30509
     51       2.00000          -0.376201          -10.23696
     52       2.00000          -0.373031          -10.15068
     53       2.00000          -0.372184          -10.12765
     54       2.00000          -0.370122          -10.07154
     55       2.00000          -0.366845           -9.98236
     56       2.00000          -0.365642           -9.94963
     57       2.00000          -0.365196           -9.93749
     58       2.00000          -0.364708           -9.92420
     59       2.00000          -0.362638           -9.86788
     60       2.00000          -0.362089           -9.85293
     61       0.00000          -0.167182           -4.54924
     62       0.00000          -0.095015           -2.58550
     63       0.00000          -0.092565           -2.51882
     64       0.00000          -0.050996           -1.38768
     65       0.00000          -0.036425           -0.99118
     66       0.00000          -0.019608           -0.53356
     67       0.00000          -0.017854           -0.48583
     68       0.00000           0.021812            0.59354
     69       0.00000           0.029845            0.81212
     70       0.00000           0.030089            0.81876
     71       0.00000           0.049600            1.34968
     72       0.00000           0.050561            1.37584
     73       0.00000           0.125171            3.40609
     74       0.00000           0.146693            3.99173
     75       0.00000           0.156898            4.26942
     76       0.00000           0.173303            4.71580
     77       0.00000           0.174429            4.74645
     78       0.00000           0.179008            4.87105
     79       0.00000           0.184410            5.01805
     80       0.00000           0.188214            5.12157
     81       0.00000           0.189053            5.14438
     82       0.00000           0.196585            5.34934
     83       0.00000           0.206042            5.60669
     84       0.00000           0.210044            5.71558
     85       0.00000           0.219675            5.97765
     86       0.00000           0.239395            6.51427
     87       0.00000           0.258508            7.03435
     88       0.00000           0.275230            7.48938
     89       0.00000           0.281788            7.66783
     90       0.00000           0.283302            7.70904
     91       0.00000           0.290911            7.91609
     92       0.00000           0.296338            8.06376
     93       0.00000           0.319754            8.70095
     94       0.00000           0.330866            9.00333
     95       0.00000           0.358122            9.74499
     96       0.00000           0.367476            9.99952

  Highest occupied state (VBM) at     -9.85293255 eV
  | Occupation number:      2.00000000

  Lowest unoccupied state (CBM) at    -4.54924376 eV
  | Occupation number:      0.00000000

  Overall HOMO-LUMO gap:      5.30368880 eV.
  | Chemical Potential                          :    -7.85758404 eV

  Self-consistency cycle converged.


------------------------------------------------------------
  End self-consistency iteration #    13       :  max(cpu_time)    wall_clock(cpu1)
  | Time for this iteration                     :        0.272 s           0.271 s
  | Charge density & force component update     :        0.148 s           0.148 s
  | Density mixing                              :        0.005 s           0.003 s
  | Hartree multipole update                    :        0.001 s           0.001 s
  | Hartree multipole summation                 :        0.050 s           0.051 s
  | Hartree pot. SCF incomplete forces          :        0.033 s           0.033 s
  | Integration                                 :        0.030 s           0.030 s
  | Solution of K.-S. eqns.                     :        0.004 s           0.004 s
  | Total energy evaluation                     :        0.000 s           0.000 s

  Partial memory accounting:
  | Current value for overall tracked memory usage:
  |   Minimum:        0.274 MB (on task 23)
  |   Maximum:        0.293 MB (on task  0)
  |   Average:        0.289 MB
  | Peak value for overall tracked memory usage:
  |   Minimum:        2.965 MB (on task  1 after allocating hessian_basis_wave)
  |   Maximum:        3.162 MB (on task  0 after allocating hessian_basis_wave)
  |   Average:        3.099 MB
  | Largest tracked array allocation so far:
  |   Minimum:        1.439 MB (hessian_basis_wave on task  1)
  |   Maximum:        1.558 MB (hessian_basis_wave on task  0)
  |   Average:        1.522 MB
  Note:  These values currently only include a subset of arrays which are explicitly tracked.
  The "true" memory usage will be greater.
------------------------------------------------------------
  Removing unitary transformations (pure translations, rotations) from forces on atoms.
  Atomic forces before filtering:
  | Net force on center of mass :   0.683424E-02  0.445086E-02  0.469472E-02 eV/A
  | Net torque on center of mass:   0.510154E-02  0.754815E-02 -0.425552E-02 eV
  Atomic forces after filtering:
  | Net force on center of mass :  -0.713624E-15 -0.602121E-15  0.142725E-14 eV/A
  | Net torque on center of mass:  -0.228941E-14  0.566451E-15 -0.110340E-14 eV

  Energy and forces in a compact form:
  | Total energy uncorrected      :         -0.442209757450392E+05 eV
  | Total energy corrected        :         -0.442209757450392E+05 eV  <-- do not rely on this value for anything but (periodic) metals
  | Electronic free energy        :         -0.442209757450392E+05 eV
  Total atomic forces (unitary forces cleaned) [eV/Ang]:
  |    1         -0.434515554963699E+00          0.195735678700406E+01          0.281716449215543E+01
  |    2          0.332587533555205E+01         -0.869632112802921E+00         -0.117325144330627E+01
  |    3         -0.282845652011430E+01         -0.948362225035651E+00         -0.206800834182256E+01
  |    4         -0.204644969946685E+01         -0.227738721494469E+01          0.111610108145125E+01
  |    5          0.169982074540414E+01         -0.222788424255417E+01          0.166210271746612E+01
  |    6         -0.834732401049203E+00          0.316742651695925E+01         -0.552467589474751E-01
  |    7          0.735781195847239E+00          0.318766901679607E+01          0.174032422735069E+00
  |    8         -0.731752793903163E+00          0.173958247404965E+00         -0.681570422943635E+00
  |    9         -0.134027029794073E+00         -0.162272043207019E+00          0.934361913508545E+00
  |   10          0.427888798968416E+00          0.104243097491734E+01         -0.303494235339123E+01
  |   11         -0.699046593288888E-01         -0.323786854826183E+01          0.753787226221910E+00
  |   12          0.890472582848333E+00          0.194564843724593E+00         -0.444530533127145E+00

  ------------------------------------ 
  Start decomposition of the XC Energy 
  ------------------------------------ 
  X and C from original XC functional choice 
  Hartree-Fock Energy :          0.000000000 Ha              0.000000000 eV
  X Energy            :       -140.225320925 Ha          -3815.725124330 eV
  C Energy            :         -4.937219344 Ha           -134.348573922 eV
  Total XC Energy     :       -145.162540269 Ha          -3950.073698252 eV
  ------------------------------------ 
  LDA X and C from self-consistent density 
  X Energy LDA        :       -132.794154963 Ha          -3613.512810055 eV
  C Energy LDA        :         -8.824350709 Ha           -240.122800110 eV
  ------------------------------------ 
  End decomposition of the XC Energy 
  ------------------------------------ 

------------------------------------------------------------

------------------------------------------------------------------------------
  Final output of selected total energy values:

  The following output summarizes some interesting total energy values
  at the end of a run (AFTER all relaxation, molecular dynamics, etc.).

  | Total energy of the DFT / Hartree-Fock s.c.f. calculation      :         -44220.975745039 eV
  | Final zero-broadening corrected energy (caution - metals only) :         -44220.975745039 eV
  | For reference only, the value of 1 Hartree used in FHI-aims is :             27.211384500 eV

  Before relying on these values, please be sure to understand exactly which
  total energy value is referred to by a given number. Different objects may
  all carry the same name 'total energy'. Definitions:

  Total energy of the DFT / Hartree-Fock s.c.f. calculation:
  | Note that this energy does not include ANY quantities calculated after the
  | s.c.f. cycle, in particular not ANY RPA, MP2, etc. many-body perturbation terms.

  Final zero-broadening corrected energy:
  | For metallic systems only, a broadening of the occupation numbers at the Fermi
  | level can be extrapolated back to zero broadening by an electron-gas inspired
  | formula. For all systems that are not real metals, this value can be
  | meaningless and should be avoided.

------------------------------------------------------------------------------
  Methods described in the following list of references were used in this FHI-aims run.
  If you publish the results, please make sure to cite these reference if they apply.
  FHI-aims is an academic code, and for our developers (often, Ph.D. students
  and postdocs), scientific credit in the community is essential.
  Thank you for helping us!

  For any use of FHI-aims, please cite:

    Volker Blum, Ralf Gehrke, Felix Hanke, Paula Havu, Ville Havu,
    Xinguo Ren, Karsten Reuter, and Matthias Scheffler
    'Ab initio molecular simulations with numeric atom-centered orbitals'
    Computer Physics Communications 180, 2175-2196 (2009)
    http://dx.doi.org/10.1016/j.cpc.2009.06.022


  The ELSI infrastructure was used in your run to solve the Kohn-Sham electronic structure.
  Please check out http://elsi-interchange.org to learn more.
  If scalability is important for your project, please acknowledge ELSI by citing:

    V. W-z. Yu, F. Corsetti, A. Garcia, W. P. Huhn, M. Jacquelin, W. Jia,
    B. Lange, L. Lin, J. Lu, W. Mi, A. Seifitokaldani, A. Vazquez-Mayagoitia,
    C. Yang, H. Yang, and V. Blum
    'ELSI: A unified software interface for Kohn-Sham electronic structure solvers'
    Computer Physics Communications 222, 267-285 (2018).
    http://dx.doi.org/10.1016/j.cpc.2017.09.007


  For the real-space grid partitioning and parallelization used in this calculation, please cite:

    Ville Havu, Volker Blum, Paula Havu, and Matthias Scheffler,
    'Efficient O(N) integration for all-electron electronic structure calculation'
    'using numerically tabulated basis functions'
    Journal of Computational Physics 228, 8367-8379 (2009).
    http://dx.doi.org/10.1016/j.jcp.2009.08.008

  Of course, there are many other important community references, e.g., those cited in the
  above references. Our list is limited to references that describe implementations in the
  FHI-aims code. The reason is purely practical (length of this list) - please credit others as well.

------------------------------------------------------------
          Leaving FHI-aims.
          Date     :  20220517, Time     :  112201.270

          Computational steps:
          | Number of self-consistency cycles          :           13
          | Number of SCF (re)initializations          :            1

          Detailed time accounting                     :  max(cpu_time)    wall_clock(cpu1)
          | Total time                                  :        1.869 s           1.932 s
          | Preparation time                            :        0.184 s           0.184 s
          | Boundary condition initalization            :        0.000 s           0.000 s
          | Grid partitioning                           :        0.035 s           0.035 s
          | Preloading free-atom quantities on grid     :        0.016 s           0.016 s
          | Free-atom superposition energy              :        0.005 s           0.004 s
          | Total time for integrations                 :        0.444 s           0.440 s
          | Total time for solution of K.-S. equations  :        0.064 s           0.066 s
          | Total time for density & force components   :        0.629 s           0.627 s
          | Total time for mixing                       :        0.055 s           0.025 s
          | Total time for Hartree multipole update     :        0.017 s           0.019 s
          | Total time for Hartree multipole sum        :        0.301 s           0.303 s
          | Total time for total energy evaluation      :        0.002 s           0.003 s
          | Total time NSC force correction             :        0.066 s           0.066 s
          | Total time for scaled ZORA corrections      :        0.000 s           0.000 s

          Partial memory accounting:
          | Residual value for overall tracked memory usage across tasks:     0.000000 MB (should be 0.000000 MB)
          | Peak values for overall tracked memory usage:
          |   Minimum:        2.965 MB (on task  1 after allocating hessian_basis_wave)
          |   Maximum:        3.162 MB (on task  0 after allocating hessian_basis_wave)
          |   Average:        3.099 MB
          | Largest tracked array allocation:
          |   Minimum:        1.439 MB (hessian_basis_wave on task  1)
          |   Maximum:        1.558 MB (hessian_basis_wave on task  0)
          |   Average:        1.522 MB
          Note:  These values currently only include a subset of arrays which are explicitly tracked.
          The "true" memory usage will be greater.

          Have a nice day.
------------------------------------------------------------
