********************************************************************************
*                       GENERAL UTILITY LATTICE PROGRAM                        *
*                                 Julian Gale                                  *
*                       Curtin Institute for Computation                       *
*                           Department of Chemistry                            *
*                    Curtin University, Western Australia                      *
********************************************************************************
* Version = 5.1.1 * Last modified =  11th January 2019                         *
********************************************************************************
*  single       - perform a single point run                                   *
*  phonon       - calculate phonons for final geometry                         *
*  eigenvectors - output phonon eigenvectors                                   *
********************************************************************************

  Job Started  at 10:31.53 17th May        2022                               

  Number of CPUs =     1

  Host name      = login04                                 


  Total number of configurations input =      1

********************************************************************************
*  Input for Configuration =   1                                               *
********************************************************************************

  Formula = Al3F9                                                       

  Number of irreducible atoms/shells =      21


  Total number atoms/shells =      21

  Dimensionality = 0               :  Cluster


  Charge on cluster =  -0.000000


  Initial cluster dipoles : x =      0.245173 e.Angs
                            y =      0.126210 e.Angs
                            z =     -0.243805 e.Angs

  Temperature of configuration =  0.000     K 

  Symmetry number =      1

  Cartesian coordinates of cluster :

--------------------------------------------------------------------------------
   No.  Atomic       x           y          z         Charge      Occupancy
        Label      (Angs)      (Angs)     (Angs)        (e)         (Frac)  
--------------------------------------------------------------------------------
      1 Al    c     -0.3729      1.0743     -1.8203     3.00000    1.000000    
      2 Al    c     -0.4464      1.0673      1.2818     3.00000    1.000000    
      3 Al    c     -3.0164      0.4423     -1.8585     3.00000    1.000000    
      4 F     c     -3.5297      0.3055     -3.5996     0.59000    1.000000    
      5 F     c     -1.3552     -0.5423     -1.8856     0.59000    1.000000    
      6 F     c     -1.9738      2.0767     -1.8496     0.59000    1.000000    
      7 F     c     -2.0188      0.6442      0.4571     0.59000    1.000000    
      8 F     c      0.5756      1.3664     -0.2966     0.59000    1.000000    
      9 F     c     -0.2289      2.7441      1.9511     0.59000    1.000000    
     10 F     c      0.2980     -0.3789      2.0900     0.59000    1.000000    
     11 F     c     -4.2785      0.2193     -0.5810     0.59000    1.000000    
     12 F     c      0.7591      1.1904     -3.2328     0.59000    1.000000    
     13 F     s     -3.5297      0.3055     -3.5996    -1.59000    1.000000    
     14 F     s     -1.3552     -0.5423     -1.8856    -1.59000    1.000000    
     15 F     s     -1.9738      2.0767     -1.8496    -1.59000    1.000000    
     16 F     s     -2.0188      0.6442      0.4571    -1.59000    1.000000    
     17 F     s      0.5756      1.3664     -0.2966    -1.59000    1.000000    
     18 F     s     -0.2289      2.7441      1.9511    -1.59000    1.000000    
     19 F     s      0.2980     -0.3789      2.0900    -1.59000    1.000000    
     20 F     s     -4.2785      0.2193     -0.5810    -1.59000    1.000000    
     21 F     s      0.7591      1.1904     -3.2328    -1.59000    1.000000    
--------------------------------------------------------------------------------


  Brillouin zone sampling points :

--------------------------------------------------------------------------------
  Point number          x          y          z            Weight
--------------------------------------------------------------------------------
        1           0.000000   0.000000   0.000000     1.00000000
--------------------------------------------------------------------------------


********************************************************************************
*  General input information                                                   *
********************************************************************************

  Species output for all configurations : 

--------------------------------------------------------------------------------
  Species    Type    Atomic    Atomic    Charge       Radii (Angs)     Library
                     Number     Mass       (e)     Cova   Ionic  VDW   Symbol
--------------------------------------------------------------------------------
    Al       Core       13      26.98   3.000000   1.350  0.000  2.050          
    F        Core        9      19.00   0.590000   0.710  0.000  1.300          
    F        Shell       9       0.00  -1.590000   0.710  0.000  1.300          
--------------------------------------------------------------------------------


  Accuracy factor for short range sums = 12.000

  Time limit = Infinity

  Maximum range for interatomic potentials =    100000.000000 Angstroms

  General interatomic potentials :

--------------------------------------------------------------------------------
Atom  Types   Potential      Parameter       Value         Units   Cutoffs(Ang)
  1     2                                                            Min /  Max 
--------------------------------------------------------------------------------
Al   c F    s Buckingham    Buckingham A     3760.0008    eV        0.000 10.000
                            Buckingham rho  0.22200000    Ang       
                            Buckingham C     0.0000000    eV*Ang^6  
--------------------------------------------------------------------------------
F    s F    s Buck 4 range  Buck4 A          1127.7000    eV        0.000 12.000
                            Buck4 rho       0.27530000    Ang       
                            Buck4 C          15.830000    eV*Ang^6  
                            Buck4 minimum    2.7900000    Ang       
--------------------------------------------------------------------------------
F    c F    s Spring (c-s)  Spring k 2       20.770000    eV*Ang^-2 0.000  0.800
                            Spring k 4       0.0000000    eV*Ang^-4 
--------------------------------------------------------------------------------

********************************************************************************
*  Output for configuration   1                                                *
********************************************************************************


  Components of energy : 

--------------------------------------------------------------------------------
  Interatomic potentials     =          10.45177032 eV    
  Monopole - monopole (real) =        -179.09688535 eV    
--------------------------------------------------------------------------------
  Total lattice energy       =        -168.64511503 eV    
--------------------------------------------------------------------------------
  Total lattice energy       =          -16271.6756 kJ/mol
--------------------------------------------------------------------------------

  Born effective charge tensors : 

-------------------------------------------------------------------------------
  Atom             x           y             z
-------------------------------------------------------------------------------
    1 Al    x       2.2999      0.1125     -0.2131
            y       0.1336      1.7597      0.0061
            z      -0.0417      0.0581      2.2944
-------------------------------------------------------------------------------
    2 Al    x       1.9867      0.0420      0.1703
            y       0.0166      2.1454      0.0087
            z       0.1743     -0.0063      2.1643
-------------------------------------------------------------------------------
    3 Al    x       2.3691      0.1328      0.2890
            y       0.1396      1.7419      0.0849
            z       0.1363      0.0576      2.6210
-------------------------------------------------------------------------------
    4 F     x      -0.6671     -0.0473     -0.2940
            y      -0.0468     -0.4925     -0.0747
            z      -0.2356     -0.0627     -1.0881
-------------------------------------------------------------------------------
    5 F     x      -0.8154     -0.0265     -0.0595
            y      -0.0155     -0.8002     -0.0370
            z      -0.0348     -0.0798     -0.3946
-------------------------------------------------------------------------------
    6 F     x      -0.8225      0.0059     -0.0630
            y      -0.0039     -0.7911     -0.0023
            z      -0.0686      0.0439     -0.3940
-------------------------------------------------------------------------------
    7 F     x      -0.8464     -0.1312     -0.3382
            y      -0.1137     -0.3959     -0.0680
            z      -0.2284     -0.0611     -1.0644
-------------------------------------------------------------------------------
    8 F     x      -0.5487     -0.0786      0.0300
            y      -0.0662     -0.3195     -0.0278
            z       0.0238      0.0200     -0.9580
-------------------------------------------------------------------------------
    9 F     x      -0.5237     -0.0920     -0.0585
            y      -0.0921     -0.9966     -0.2142
            z      -0.0632     -0.3274     -0.7145
-------------------------------------------------------------------------------
   10 F     x      -0.6270      0.2133     -0.1534
            y       0.1920     -0.8536      0.2184
            z      -0.1771      0.2947     -0.7512
-------------------------------------------------------------------------------
   11 F     x      -0.9726     -0.0895      0.3189
            y      -0.0961     -0.5086      0.0578
            z       0.1649      0.0274     -0.7766
-------------------------------------------------------------------------------
   12 F     x      -0.8324     -0.0413      0.3714
            y      -0.0474     -0.4891      0.0481
            z       0.3499      0.0356     -0.9384
-------------------------------------------------------------------------------




  Moment of inertia tensor (10^-46 x kgm^2): 

-------------------------------------------------------------------------------
                x           y           z           Principal axis system
-------------------------------------------------------------------------------
       x        167.51      -18.23      -40.11          105.174402
       y        -18.23      239.06      -10.64          192.820909
       z        -40.11      -10.64      134.87          243.449946
-------------------------------------------------------------------------------
  Centre of mass (Ang) =    -1.297043     0.851783    -0.780600
-------------------------------------------------------------------------------


  Vibrational Frequency Calculation : 

--------------------------------------------------------------------------------

  Frequencies (cm-1) and Eigenvectors : 

  Frequency    -295.4106 -217.6532  -96.0525   -0.0000   -0.0000    0.0000
  IR Intensity    0.0000    0.0461    0.0018    0.0000    0.0000    0.0000
     in X         0.0000    0.0180    0.0013    0.0000    0.0000    0.0000
     in Y         0.0000    0.0005    0.0003    0.0000    0.0000    0.0000
     in Z         0.0000    0.0276    0.0002    0.0000    0.0000    0.0000
  Raman Intsty    0.0019    0.0270    0.6484    0.0000    0.0000    0.0000

     1 x      -0.151772  0.095819  0.340870 -0.301371 -0.123512  0.031768
     1 y       0.679560  0.012902  0.123201 -0.125763  0.301354 -0.021416
     1 z       0.003502  0.208394 -0.204962 -0.021172 -0.031931 -0.324994
     2 x      -0.004979 -0.213995 -0.452610 -0.301371 -0.123512  0.031768
     2 y      -0.016143 -0.064462 -0.177086 -0.125763  0.301354 -0.021416
     2 z       0.006577  0.225928  0.000397 -0.021172 -0.031931 -0.324994
     3 x       0.157612  0.013651  0.183617 -0.301371 -0.123512  0.031768
     3 y      -0.671020  0.039720  0.076458 -0.125763  0.301354 -0.021416
     3 z      -0.016646 -0.618675  0.155497 -0.021172 -0.031931 -0.324994
     4 x       0.007424 -0.065166  0.166954 -0.252905 -0.103649  0.026659
     4 y      -0.061790 -0.010422  0.056801 -0.105538  0.252890 -0.017972
     4 z      -0.011374 -0.326930  0.107662 -0.017767 -0.026796 -0.272729
     5 x      -0.077639 -0.044863  0.188403 -0.252905 -0.103649  0.026659
     5 y       0.015434  0.048840  0.105614 -0.105538  0.252890 -0.017972
     5 z      -0.022045  0.044482  0.110366 -0.017767 -0.026796 -0.272729
     6 x       0.064470 -0.022080  0.186548 -0.252905 -0.103649  0.026659
     6 y       0.056155 -0.056781  0.025471 -0.105538  0.252890 -0.017972
     6 z       0.023248  0.031250  0.114989 -0.017767 -0.026796 -0.272729
     7 x       0.000803 -0.007106 -0.304181 -0.252905 -0.103649  0.026659
     7 y       0.002688  0.003796 -0.094850 -0.105538  0.252890 -0.017972
     7 z       0.007336  0.422613  0.148700 -0.017767 -0.026796 -0.272729
     8 x       0.005459  0.004809 -0.074469 -0.252905 -0.103649  0.026659
     8 y       0.021827  0.012570  0.001327 -0.105538  0.252890 -0.017972
     8 z       0.003893  0.101166 -0.051462 -0.017767 -0.026796 -0.272729
     9 x      -0.003168 -0.009867 -0.221701 -0.252905 -0.103649  0.026659
     9 y      -0.002194  0.005336 -0.149133 -0.105538  0.252890 -0.017972
     9 z       0.001726  0.046752 -0.086458 -0.017767 -0.026796 -0.272729
    10 x       0.001534  0.010787 -0.224666 -0.252905 -0.103649  0.026659
    10 y      -0.002561 -0.042413 -0.079017 -0.105538  0.252890 -0.017972
    10 z       0.004506  0.078750 -0.036688 -0.017767 -0.026796 -0.272729
    11 x       0.036034  0.282818 -0.032451 -0.252905 -0.103649  0.026659
    11 y      -0.102554  0.060391  0.032882 -0.105538  0.252890 -0.017972
    11 z      -0.013143 -0.230060 -0.033961 -0.017767 -0.026796 -0.272729
    12 x      -0.035946 -0.024777  0.229912 -0.252905 -0.103649  0.026659
    12 y       0.082055 -0.007209  0.074006 -0.105538  0.252890 -0.017972
    12 z       0.013680  0.051661 -0.214675 -0.017767 -0.026796 -0.272729


  Frequency      42.7221  103.9294  137.6154  142.3882  151.2097  151.8955
  IR Intensity    0.0001    0.0310    0.0001    0.0008    0.0009    0.0013
     in X         0.0000    0.0031    0.0000    0.0001    0.0001    0.0005
     in Y         0.0000    0.0001    0.0001    0.0007    0.0000    0.0002
     in Z         0.0000    0.0278    0.0000    0.0000    0.0007    0.0006
  Raman Intsty    0.0009    0.0321    0.0015    0.0014    0.0176    0.0001

     1 x      -0.100491 -0.065232 -0.004277  0.008471  0.043558  0.074844
     1 y       0.225765 -0.017772  0.012675 -0.011976  0.004228  0.028109
     1 z      -0.002681 -0.260087  0.009721 -0.013973  0.076834  0.055742
     2 x       0.175326  0.132286 -0.005839 -0.006754 -0.008841 -0.017894
     2 y      -0.452416  0.048331  0.028559  0.024271 -0.011416  0.011497
     2 z      -0.000299 -0.087271 -0.006661 -0.002481 -0.048737 -0.039124
     3 x      -0.083350 -0.100693 -0.000631  0.019251 -0.027280 -0.021959
     3 y       0.222520 -0.031360 -0.002921 -0.084273  0.017521 -0.007997
     3 z      -0.001211  0.084804  0.002341  0.000743  0.005532  0.005001
     4 x      -0.084476 -0.024359 -0.013055 -0.025808 -0.391278 -0.393743
     4 y       0.196293 -0.021467  0.028698 -0.251445  0.358978 -0.515858
     4 z       0.002122  0.065732  0.004550  0.022071  0.075746  0.134670
     5 x      -0.055199 -0.085509 -0.020013 -0.007004 -0.035802  0.027443
     5 y       0.162633  0.016250 -0.000294 -0.064436  0.042830  0.031928
     5 z      -0.076794  0.254500 -0.028543 -0.191966 -0.182785  0.212895
     6 x      -0.087489 -0.075555  0.019060  0.035884  0.017465  0.003323
     6 y       0.159508 -0.066914  0.008129 -0.067641  0.007057 -0.034877
     6 z       0.044455  0.208795  0.064432  0.176337  0.247012 -0.239099
     7 x       0.060945 -0.154438  0.009769  0.128971  0.031170 -0.065402
     7 y      -0.098345 -0.004925 -0.056851 -0.489875 -0.168967  0.236529
     7 z      -0.009612  0.532269  0.012875  0.013396  0.052671  0.058218
     8 x       0.058574 -0.068687  0.195892 -0.065462  0.074287  0.104667
     8 y      -0.189169  0.004259 -0.643299  0.234306  0.001826 -0.077569
     8 z      -0.014602 -0.209618  0.010662 -0.015878  0.020912  0.012186
     9 x       0.136983  0.301248 -0.042580 -0.238033 -0.317864  0.066236
     9 y      -0.375991  0.082697  0.217132  0.059028  0.092939  0.066639
     9 z       0.038796 -0.149834 -0.489689 -0.038583 -0.227045 -0.181707
    10 x       0.133063  0.315660 -0.088490  0.216725  0.276685 -0.053896
    10 y      -0.378771  0.073853  0.205283  0.154358 -0.021908 -0.150305
    10 z      -0.000335 -0.138098  0.420645  0.045015 -0.326797 -0.313494
    11 x      -0.055100  0.019639 -0.013617 -0.075644  0.114165  0.020241
    11 y       0.295666 -0.039259  0.096412  0.616537 -0.324689  0.257966
    11 z       0.029657  0.074366  0.004229  0.031216  0.092372  0.103067
    12 x      -0.097153 -0.187915 -0.034161  0.005383  0.222310  0.249434
    12 y       0.233098 -0.043541  0.099136 -0.105061 -0.000381  0.147880
    12 z      -0.008691 -0.325242 -0.005599 -0.022885  0.207840  0.187501


  Frequency     155.3926  159.6329  166.2040  168.3606  181.6955  191.6697
  IR Intensity    0.0041    0.0000    0.0037    0.0017    0.0041    0.0096
     in X         0.0019    0.0000    0.0014    0.0000    0.0025    0.0046
     in Y         0.0002    0.0000    0.0003    0.0000    0.0011    0.0030
     in Z         0.0021    0.0000    0.0020    0.0016    0.0005    0.0019
  Raman Intsty    0.4244    0.0019    0.0442    0.1367    0.0083    0.0002

     1 x       0.133623 -0.007117  0.023274  0.004737  0.087205 -0.069091
     1 y       0.017462  0.052391  0.053172  0.076539 -0.031047  0.083234
     1 z      -0.156215  0.015045  0.064167 -0.109609  0.007242 -0.059684
     2 x      -0.035590 -0.014025 -0.015880  0.016053 -0.068912  0.009549
     2 y      -0.029093  0.059848 -0.053786 -0.078185  0.205597 -0.097521
     2 z       0.061718 -0.025067  0.026785  0.017327  0.030330 -0.004055
     3 x       0.018870  0.011320  0.097688 -0.041865  0.055774 -0.076705
     3 y       0.018747 -0.065938  0.023303 -0.018389 -0.009227  0.155274
     3 z      -0.003496  0.003558  0.007682  0.004840 -0.008186  0.013963
     4 x      -0.585154 -0.106614 -0.029364 -0.119510 -0.144336  0.264075
     4 y      -0.038827  0.294690  0.082741  0.104947 -0.152287 -0.429100
     4 z       0.153141  0.007625  0.052914  0.003975  0.057680 -0.045143
     5 x       0.064236 -0.125856  0.015047 -0.055887  0.037726 -0.086276
     5 y       0.058956  0.008647  0.000325  0.038562  0.048768  0.266918
     5 z      -0.268294 -0.072933  0.196117  0.125055 -0.296429 -0.416312
     6 x       0.048780  0.109086  0.071744  0.050292  0.144819 -0.180548
     6 y      -0.030709  0.059175  0.059755  0.026691  0.066562  0.204518
     6 z      -0.145468  0.143865 -0.189709 -0.319501  0.324530  0.207298
     7 x       0.085756 -0.025358  0.121138 -0.168241 -0.059725 -0.063066
     7 y      -0.066605  0.030620  0.219162  0.184168  0.130344  0.260710
     7 z       0.005519  0.025196 -0.084471  0.038957 -0.029189  0.066514
     8 x      -0.050393  0.022951  0.139133 -0.055008  0.153398 -0.076900
     8 y       0.159192 -0.004822 -0.054933 -0.155978 -0.432304  0.019653
     8 z      -0.076943 -0.010490  0.019824 -0.021717  0.065168 -0.050421
     9 x       0.198894  0.384501 -0.420944 -0.151855  0.009371 -0.083925
     9 y      -0.092026  0.060697 -0.005003 -0.158351 -0.020129 -0.042112
     9 z       0.127149 -0.089081 -0.036903  0.197054  0.485543 -0.108737
    10 x      -0.124514 -0.362800  0.062352  0.461501  0.031582  0.072797
    10 y       0.114103 -0.138746 -0.087431  0.249344  0.099168 -0.028215
    10 z       0.415157 -0.087168 -0.085673  0.216860 -0.294829  0.116743
    11 x       0.207690 -0.051394  0.316554 -0.248044 -0.092605  0.153874
    11 y      -0.138755  0.267518  0.133890  0.059748  0.049691 -0.157793
    11 z       0.177962 -0.003514  0.300661 -0.217001 -0.160055  0.209126
    12 x       0.015400  0.167187 -0.400879  0.311866 -0.168491  0.162326
    12 y       0.026193 -0.632953 -0.375543 -0.325255  0.013181 -0.262584
    12 z      -0.271451  0.094203 -0.290297  0.080518 -0.187435  0.080248


  Frequency     192.9167  222.8802  227.0264  229.4399  269.5132  280.1956
  IR Intensity    0.0267    0.0398    0.0196    0.0222    0.0016    0.0010
     in X         0.0109    0.0018    0.0005    0.0167    0.0001    0.0000
     in Y         0.0018    0.0011    0.0133    0.0001    0.0002    0.0010
     in Z         0.0140    0.0370    0.0059    0.0054    0.0014    0.0000
  Raman Intsty    0.0017    0.0274    0.0034    0.0674    0.0358    0.0083

     1 x       0.071177 -0.061896  0.056514 -0.028516 -0.076574 -0.033880
     1 y       0.067341 -0.055100 -0.148433 -0.030268 -0.017139  0.116254
     1 z       0.161128 -0.215143  0.087541 -0.119271 -0.140552 -0.011351
     2 x       0.081914  0.132091 -0.062250  0.428864  0.096506 -0.000081
     2 y      -0.121503  0.007591 -0.140437  0.062573  0.010680  0.015645
     2 z      -0.000616 -0.192980  0.059693  0.029864  0.135192  0.003655
     3 x       0.050804 -0.070487  0.064857 -0.020282  0.091370  0.033863
     3 y       0.111434 -0.065706 -0.163010 -0.034137  0.022757 -0.065408
     3 z      -0.030508 -0.130174  0.027532  0.081721 -0.012992 -0.002250
     4 x      -0.212335 -0.105454 -0.006842  0.003419 -0.068506 -0.037281
     4 y      -0.225169  0.016870  0.156989  0.027659 -0.020324  0.110568
     4 z       0.075519 -0.166940  0.035231  0.082510  0.068104  0.015719
     5 x       0.171281 -0.101989  0.019120  0.020686  0.083721  0.672991
     5 y       0.107442 -0.134913 -0.308384  0.008122 -0.030404  0.061348
     5 z       0.220978  0.345277 -0.316587 -0.211556  0.089865 -0.032164
     6 x       0.064339 -0.058588  0.139622  0.059695  0.114716 -0.632271
     6 y       0.158197 -0.066278 -0.278750 -0.080424  0.132803 -0.262134
     6 z       0.305688  0.482620  0.155073 -0.132592  0.083258  0.045889
     7 x       0.023903  0.125415 -0.181942  0.045350  0.197425  0.001400
     7 y       0.050546  0.215240  0.548834  0.088838  0.051048  0.053545
     7 z      -0.194454 -0.169222 -0.033448  0.430013 -0.114811 -0.008849
     8 x       0.146641  0.086512 -0.102895  0.183606 -0.730178 -0.019993
     8 y       0.268727  0.019350  0.172858  0.088112 -0.199844 -0.075050
     8 z       0.063830 -0.254473  0.068150 -0.052744  0.147897  0.003546
     9 x       0.008943 -0.213971  0.048069 -0.379921 -0.032833  0.004560
     9 y      -0.028447 -0.141137 -0.073276  0.179560  0.287623  0.044339
     9 z      -0.257254  0.179900 -0.226741  0.076362 -0.011753  0.038988
    10 x       0.047686 -0.159342  0.182571 -0.257259  0.077044 -0.015686
    10 y      -0.034566  0.030605 -0.044077 -0.334463 -0.266685  0.019132
    10 z       0.141039  0.170860  0.087754  0.116991  0.017761 -0.034849
    11 x      -0.263779  0.153279 -0.057890 -0.175024  0.132784  0.004172
    11 y      -0.187176  0.099012  0.200633 -0.000400  0.018448  0.087695
    11 z      -0.435284  0.056857  0.019194 -0.236416 -0.165950 -0.025687
    12 x      -0.229648  0.274486 -0.110263  0.046545  0.093195  0.022224
    12 y      -0.177802  0.096163  0.163650  0.025179  0.007914 -0.118676
    12 z      -0.074978 -0.003422  0.003117 -0.063410 -0.092500  0.009259


  Frequency     299.4895  332.3146  367.5874  379.8698  399.9076  403.2144
  IR Intensity    0.0410    0.0197    0.0270    0.0525    0.1696    0.0496
     in X         0.0005    0.0011    0.0261    0.0060    0.0009    0.0126
     in Y         0.0004    0.0004    0.0009    0.0001    0.1685    0.0358
     in Z         0.0401    0.0183    0.0000    0.0463    0.0002    0.0012
  Raman Intsty    2.8937    0.4248    4.7108    0.0144    0.0626    0.0042

     1 x       0.210778 -0.015579  0.070615 -0.028458  0.024940 -0.042671
     1 y       0.064118 -0.006865  0.026892  0.010815  0.427494  0.261086
     1 z       0.009968  0.000186  0.035973 -0.152343 -0.100240  0.029181
     2 x      -0.091290  0.178084  0.124676 -0.147364 -0.110156  0.262662
     2 y       0.007272  0.004181 -0.002229 -0.017457 -0.054385 -0.113828
     2 z       0.314719 -0.150646 -0.108222 -0.116769  0.136014 -0.199652
     3 x      -0.139973 -0.168122  0.066388  0.026940  0.027469 -0.026543
     3 y      -0.045097 -0.047050  0.023824  0.037478  0.430218  0.261577
     3 z       0.001543 -0.081314  0.075492  0.000760  0.019018  0.104487
     4 x       0.023901 -0.098498  0.009754  0.014195 -0.012906 -0.022280
     4 y       0.006357 -0.019745 -0.000554 -0.004151 -0.102691 -0.066291
     4 z      -0.248918 -0.491320 -0.016028  0.081265 -0.079128 -0.093000
     5 x      -0.223059  0.411828 -0.153279 -0.082776  0.034635 -0.126406
     5 y       0.122839  0.113456  0.561764  0.235228 -0.420257 -0.275157
     5 z       0.044046  0.028645  0.032716  0.031484 -0.034658 -0.009031
     6 x      -0.158343  0.389670  0.147794  0.066749  0.143889 -0.052213
     6 y      -0.208223  0.061783 -0.583128 -0.287860 -0.270217 -0.200982
     6 z       0.034250  0.024913  0.018272  0.024903  0.014768  0.017381
     7 x       0.190649 -0.238578  0.213605 -0.347368  0.231185 -0.323407
     7 y       0.035299 -0.051661  0.057202 -0.091382  0.015387 -0.092845
     7 z      -0.167823  0.033529  0.016792 -0.245766  0.059889 -0.049496
     8 x       0.140603 -0.106724 -0.229630  0.178734 -0.037718  0.019499
     8 y       0.026746 -0.011985 -0.054440  0.033215 -0.066533  0.018688
     8 z       0.177348  0.103877  0.055841 -0.117559 -0.315687  0.541462
     9 x       0.044910 -0.023041 -0.045256  0.067546  0.011849 -0.006551
     9 y       0.222050  0.053821 -0.213831  0.421638  0.092172  0.041088
     9 z      -0.008656  0.041020 -0.071462  0.200809  0.047482  0.028065
    10 x       0.120100 -0.013636 -0.128558  0.211738 -0.009926 -0.093533
    10 y      -0.193957 -0.036390  0.196263 -0.352794  0.018785  0.147721
    10 z      -0.009703  0.055135 -0.081991  0.207958 -0.045321 -0.046259
    11 x      -0.354104 -0.223537 -0.006174  0.203398 -0.166487  0.248138
    11 y      -0.055623 -0.035661 -0.004202  0.027007 -0.126132 -0.014774
    11 z       0.206857  0.397290 -0.062873 -0.070802  0.071572 -0.101148
    12 x       0.239755 -0.090791 -0.120084 -0.134802 -0.125708  0.126232
    12 y       0.013181 -0.014354 -0.016852 -0.017645 -0.097790 -0.044630
    12 z      -0.416149  0.083101  0.104868  0.207487  0.215792 -0.209345


  Frequency     410.0362  460.8977  477.3457  490.4591  533.2162  581.6998
  IR Intensity    0.4023    0.6686    0.3964    0.3314    0.0555    0.0191
     in X         0.3094    0.2312    0.0017    0.1519    0.0475    0.0037
     in Y         0.0002    0.0087    0.3400    0.0395    0.0003    0.0006
     in Z         0.0928    0.4288    0.0546    0.1401    0.0077    0.0148
  Raman Intsty    0.1428    0.0392    0.0102    0.1215    0.6532    0.7642

     1 x      -0.289143  0.393560 -0.038688 -0.034500 -0.000078  0.614579
     1 y       0.081204  0.006422 -0.120412 -0.046850 -0.023345  0.140078
     1 z       0.123797 -0.129134  0.091686 -0.461071 -0.521685  0.107055
     2 x      -0.048306  0.104312  0.108094 -0.317786  0.241039  0.151706
     2 y      -0.050720 -0.145293 -0.684629 -0.176267  0.051607  0.044635
     2 z      -0.062072 -0.361324  0.163625 -0.169160  0.606880  0.017986
     3 x      -0.405693  0.261457  0.007424 -0.297934 -0.000352 -0.629945
     3 y       0.035453 -0.018638 -0.092017 -0.089257 -0.013350 -0.142298
     3 z      -0.423460 -0.406938  0.071067  0.160837 -0.217264  0.077150
     4 x       0.189815  0.034545 -0.010712  0.006052  0.020181  0.069746
     4 y       0.018116  0.022660  0.015724  0.005546  0.007042  0.017262
     4 z       0.527676  0.270194 -0.045467 -0.063842  0.116101  0.053687
     5 x       0.184002 -0.162899  0.004348  0.090401  0.004045 -0.009068
     5 y       0.028025 -0.059721  0.088362 -0.004980  0.032985 -0.065986
     5 z       0.005895  0.018170 -0.004733 -0.007517  0.037797 -0.012880
     6 x       0.270729 -0.208442  0.024712  0.067306  0.013613 -0.044919
     6 y      -0.154400  0.087982  0.061784  0.071067 -0.011658  0.052306
     6 z       0.020099  0.017756 -0.005627 -0.005033  0.037457 -0.011959
     7 x       0.058928  0.024747 -0.020383  0.398198 -0.222694 -0.057040
     7 y       0.002674  0.023452  0.045011  0.110006 -0.055578 -0.015724
     7 z      -0.038744  0.053726 -0.023667  0.134563 -0.166406 -0.082583
     8 x       0.047181 -0.104985  0.006540  0.178287  0.091027 -0.137708
     8 y       0.006706 -0.015614  0.024861  0.064111  0.031669 -0.043390
     8 z       0.027884  0.183976 -0.212447  0.427031  0.135386 -0.149306
     9 x       0.014159 -0.013538  0.011324  0.048552 -0.029084 -0.021432
     9 y       0.021591  0.143259  0.419643  0.071230 -0.140881 -0.005460
     9 z       0.011602  0.100354  0.141205  0.021069 -0.122369  0.002736
    10 x      -0.009469 -0.035003 -0.158784  0.026696 -0.079493 -0.018811
    10 y       0.038894  0.033479  0.366987  0.044739  0.122429 -0.005260
    10 z      -0.019290  0.038456 -0.175776 -0.007735 -0.130077 -0.000916
    11 x      -0.051392 -0.299498  0.027021  0.062678  0.022337  0.177344
    11 y      -0.035131 -0.041266  0.022324  0.017163  0.005621  0.034494
    11 z       0.090166  0.245166 -0.031474 -0.118398  0.062871 -0.126265
    12 x       0.181603 -0.139771  0.024379 -0.103342 -0.106649 -0.120578
    12 y      -0.005049 -0.006536  0.024273 -0.006647 -0.009398 -0.018787
    12 z      -0.194233  0.141571 -0.030937  0.179208  0.186618  0.086549




--------------------------------------------------------------------------------
  Vibrational properties (for cluster):  Temperature  =       0.000 K
--------------------------------------------------------------------------------
  Zero point energy            =        0.515203 eV
--------------------------------------------------------------------------------

  Phonon density of states : 

--------------------------------------------------------------------------------
 Frequency (cm-1) Density of States                                             
--------------------------------------------------------------------------------
    0.00000 |******************************                                0.032
    9.08906 |                                                              0.000
   18.17812 |                                                              0.000
   27.26718 |                                                              0.000
   36.35624 |******************************                                0.032
   45.44530 |                                                              0.000
   54.53436 |                                                              0.000
   63.62342 |                                                              0.000
   72.71248 |                                                              0.000
   81.80154 |                                                              0.000
   90.89060 |                                                              0.000
   99.97966 |******************************                                0.032
  109.06872 |                                                              0.000
  118.15778 |                                                              0.000
  127.24684 |                                                              0.000
  136.33590 |************************************************************  0.065
  145.42496 |************************************************************  0.065
  154.51402 |************************************************************  0.065
  163.60308 |************************************************************  0.065
  172.69214 |******************************                                0.032
  181.78120 |                                                              0.000
  190.87026 |************************************************************  0.065
  199.95932 |                                                              0.000
  209.04838 |                                                              0.000
  218.13744 |************************************************************  0.065
  227.22650 |******************************                                0.032
  236.31556 |                                                              0.000
  245.40462 |                                                              0.000
  254.49368 |                                                              0.000
  263.58274 |******************************                                0.032
  272.67180 |******************************                                0.032
  281.76086 |                                                              0.000
  290.84992 |******************************                                0.032
  299.93898 |                                                              0.000
  309.02804 |                                                              0.000
  318.11710 |                                                              0.000
  327.20616 |******************************                                0.032
  336.29522 |                                                              0.000
  345.38428 |                                                              0.000
  354.47334 |                                                              0.000
  363.56240 |******************************                                0.032
  372.65146 |******************************                                0.032
  381.74052 |                                                              0.000
  390.82958 |******************************                                0.032
  399.91864 |******************************                                0.032
  409.00770 |******************************                                0.032
  418.09676 |                                                              0.000
  427.18582 |                                                              0.000
  436.27488 |                                                              0.000
  445.36394 |                                                              0.000
  454.45300 |******************************                                0.032
  463.54206 |                                                              0.000
  472.63112 |******************************                                0.032
  481.72018 |******************************                                0.032
  490.80924 |                                                              0.000
  499.89830 |                                                              0.000
  508.98736 |                                                              0.000
  518.07642 |                                                              0.000
  527.16548 |******************************                                0.032
  536.25454 |                                                              0.000
  545.34360 |                                                              0.000
  554.43266 |                                                              0.000
  563.52172 |                                                              0.000
  572.61078 |******************************                                0.032
--------------------------------------------------------------------------------



  XYZ File written as 003/2/sp_mod_-20/sp_mod_-20_eig.xyz


  Time to end of properties =       0.0135 seconds


  Peak dynamic memory used =       0.64 MB 


  Timing analysis for GULP :

--------------------------------------------------------------------------------
  Task / Subroutine                                          Time (Seconds)
--------------------------------------------------------------------------------
  Calculation of phonons                                          0.0039
--------------------------------------------------------------------------------
  Total CPU time                                                  0.0136
--------------------------------------------------------------------------------


  Job Finished at 10:31.53 17th May        2022                               

