********************************************************************************
*                       GENERAL UTILITY LATTICE PROGRAM                        *
*                                 Julian Gale                                  *
*                       Curtin Institute for Computation                       *
*                           Department of Chemistry                            *
*                    Curtin University, Western Australia                      *
********************************************************************************
* Version = 5.1.1 * Last modified =  11th January 2019                         *
********************************************************************************
*  single       - perform a single point run                                   *
*  phonon       - calculate phonons for final geometry                         *
*  eigenvectors - output phonon eigenvectors                                   *
********************************************************************************

  Job Started  at 10:30.23 17th May        2022                               

  Number of CPUs =     1

  Host name      = login04                                 


  Total number of configurations input =      1

********************************************************************************
*  Input for Configuration =   1                                               *
********************************************************************************

  Formula = Al3F9                                                       

  Number of irreducible atoms/shells =      21


  Total number atoms/shells =      21

  Dimensionality = 0               :  Cluster


  Charge on cluster =  -0.000000


  Initial cluster dipoles : x =     -0.003108 e.Angs
                            y =     -0.006437 e.Angs
                            z =      0.090881 e.Angs

  Temperature of configuration =  0.000     K 

  Symmetry number =      1

  Cartesian coordinates of cluster :

--------------------------------------------------------------------------------
   No.  Atomic       x           y          z         Charge      Occupancy
        Label      (Angs)      (Angs)     (Angs)        (e)         (Frac)  
--------------------------------------------------------------------------------
      1 Al    c      0.3420     -0.5994      1.7393     3.00000    1.000000    
      2 Al    c      2.3549     -1.7908     -0.5147     3.00000    1.000000    
      3 Al    c     -0.8873     -1.8282     -0.9952     3.00000    1.000000    
      4 F     c      3.5047     -0.5406     -1.1540     0.59000    1.000000    
      5 F     c     -1.8202     -0.5197     -1.8390     0.59000    1.000000    
      6 F     c      2.7013     -3.5721     -0.4327     0.59000    1.000000    
      7 F     c     -1.2438     -3.6042     -1.1361     0.59000    1.000000    
      8 F     c      1.9261     -1.3407      1.2038     0.59000    1.000000    
      9 F     c      0.8380     -1.5084     -1.4884     0.59000    1.000000    
     10 F     c      0.1379     -1.1720      3.4475     0.59000    1.000000    
     11 F     c      0.3210      1.1341      1.1862     0.59000    1.000000    
     12 F     c     -0.9331     -1.5252      0.8098     0.59000    1.000000    
     13 F     s      3.5047     -0.5406     -1.1540    -1.59000    1.000000    
     14 F     s     -1.8202     -0.5197     -1.8390    -1.59000    1.000000    
     15 F     s      2.7013     -3.5721     -0.4327    -1.59000    1.000000    
     16 F     s     -1.2438     -3.6042     -1.1361    -1.59000    1.000000    
     17 F     s      1.9261     -1.3407      1.2038    -1.59000    1.000000    
     18 F     s      0.8380     -1.5084     -1.4884    -1.59000    1.000000    
     19 F     s      0.1379     -1.1720      3.4475    -1.59000    1.000000    
     20 F     s      0.3210      1.1341      1.1862    -1.59000    1.000000    
     21 F     s     -0.9331     -1.5252      0.8098    -1.59000    1.000000    
--------------------------------------------------------------------------------


  Brillouin zone sampling points :

--------------------------------------------------------------------------------
  Point number          x          y          z            Weight
--------------------------------------------------------------------------------
        1           0.000000   0.000000   0.000000     1.00000000
--------------------------------------------------------------------------------


********************************************************************************
*  General input information                                                   *
********************************************************************************

  Species output for all configurations : 

--------------------------------------------------------------------------------
  Species    Type    Atomic    Atomic    Charge       Radii (Angs)     Library
                     Number     Mass       (e)     Cova   Ionic  VDW   Symbol
--------------------------------------------------------------------------------
    Al       Core       13      26.98   3.000000   1.350  0.000  2.050          
    F        Core        9      19.00   0.590000   0.710  0.000  1.300          
    F        Shell       9       0.00  -1.590000   0.710  0.000  1.300          
--------------------------------------------------------------------------------


  Accuracy factor for short range sums = 12.000

  Time limit = Infinity

  Maximum range for interatomic potentials =    100000.000000 Angstroms

  General interatomic potentials :

--------------------------------------------------------------------------------
Atom  Types   Potential      Parameter       Value         Units   Cutoffs(Ang)
  1     2                                                            Min /  Max 
--------------------------------------------------------------------------------
Al   c F    s Buckingham    Buckingham A     3760.0008    eV        0.000 10.000
                            Buckingham rho  0.22200000    Ang       
                            Buckingham C     0.0000000    eV*Ang^6  
--------------------------------------------------------------------------------
F    s F    s Buck 4 range  Buck4 A          1127.7000    eV        0.000 12.000
                            Buck4 rho       0.27530000    Ang       
                            Buck4 C          15.830000    eV*Ang^6  
                            Buck4 minimum    2.7900000    Ang       
--------------------------------------------------------------------------------
F    c F    s Spring (c-s)  Spring k 2       20.770000    eV*Ang^-2 0.000  0.800
                            Spring k 4       0.0000000    eV*Ang^-4 
--------------------------------------------------------------------------------

********************************************************************************
*  Output for configuration   1                                                *
********************************************************************************


  Components of energy : 

--------------------------------------------------------------------------------
  Interatomic potentials     =          11.88077509 eV    
  Monopole - monopole (real) =        -182.54749912 eV    
--------------------------------------------------------------------------------
  Total lattice energy       =        -170.66672403 eV    
--------------------------------------------------------------------------------
  Total lattice energy       =          -16466.7300 kJ/mol
--------------------------------------------------------------------------------

  Born effective charge tensors : 

-------------------------------------------------------------------------------
  Atom             x           y             z
-------------------------------------------------------------------------------
    1 Al    x       1.9310     -0.0106     -0.0153
            y      -0.0067      2.0861     -0.1258
            z      -0.0244      0.0300      2.1008
-------------------------------------------------------------------------------
    2 Al    x       2.0274     -0.0137     -0.0677
            y       0.0673      2.1552      0.0203
            z      -0.0671     -0.0513      1.9195
-------------------------------------------------------------------------------
    3 Al    x       1.9816      0.0122      0.0849
            y      -0.0701      2.1687      0.0358
            z       0.0925     -0.0389      1.9616
-------------------------------------------------------------------------------
    4 F     x      -0.8753     -0.3071      0.1938
            y      -0.2416     -0.7488      0.1232
            z       0.1780      0.1484     -0.6101
-------------------------------------------------------------------------------
    5 F     x      -0.7572      0.2641     -0.2212
            y       0.2075     -0.7657      0.1777
            z      -0.2107      0.2186     -0.7047
-------------------------------------------------------------------------------
    6 F     x      -0.6286      0.2441      0.0062
            y       0.1795     -1.0708      0.0083
            z       0.0125     -0.0219     -0.5105
-------------------------------------------------------------------------------
    7 F     x      -0.6108     -0.2240     -0.0486
            y      -0.1705     -1.0762     -0.0808
            z      -0.0521     -0.1272     -0.5354
-------------------------------------------------------------------------------
    8 F     x      -0.6307      0.1506      0.1622
            y       0.1478     -0.3778     -0.1526
            z       0.1637     -0.1561     -0.6646
-------------------------------------------------------------------------------
    9 F     x      -0.8716     -0.0061     -0.0626
            y      -0.0054     -0.2952      0.0018
            z      -0.0607      0.0061     -0.4719
-------------------------------------------------------------------------------
   10 F     x      -0.5317     -0.0208      0.0818
            y      -0.0107     -0.5578      0.1073
            z       0.0790      0.1707     -1.1679
-------------------------------------------------------------------------------
   11 F     x      -0.5102      0.0300      0.0003
            y       0.0203     -1.1257      0.0671
            z       0.0046      0.0046     -0.5559
-------------------------------------------------------------------------------
   12 F     x      -0.5239     -0.1185     -0.1138
            y      -0.1173     -0.3919     -0.1821
            z      -0.1154     -0.1830     -0.7609
-------------------------------------------------------------------------------




  Moment of inertia tensor (10^-46 x kgm^2): 

-------------------------------------------------------------------------------
                x           y           z           Principal axis system
-------------------------------------------------------------------------------
       x        153.97        3.36       -1.70          153.731272
       y          3.36      201.90      -24.07          155.282468
       z         -1.70      -24.07      167.71          214.567926
-------------------------------------------------------------------------------
  Centre of mass (Ang) =     0.603432    -1.405657     0.069595
-------------------------------------------------------------------------------


  Vibrational Frequency Calculation : 

--------------------------------------------------------------------------------

  Frequencies (cm-1) and Eigenvectors : 

  Frequency    -100.8148  -65.1701  -50.5362   -0.0000   -0.0000    0.0000
  IR Intensity    0.0000    0.0001    0.0000    0.0000    0.0000    0.0000
     in X         0.0000    0.0000    0.0000    0.0000    0.0000    0.0000
     in Y         0.0000    0.0000    0.0000    0.0000    0.0000    0.0000
     in Z         0.0000    0.0001    0.0000    0.0000    0.0000    0.0000
  Raman Intsty    0.0000    0.0005    0.0001    0.0000    0.0000    0.0000

     1 x       0.370248 -0.072281  0.213112  0.005325 -0.318210 -0.076176
     1 y       0.069712  0.464688  0.128493  0.323956 -0.005576  0.045939
     1 z       0.021980 -0.260107 -0.033334  0.045969  0.076158 -0.314922
     2 x      -0.121024  0.038741 -0.107310  0.005325 -0.318210 -0.076176
     2 y       0.106417 -0.143932 -0.487571  0.323956 -0.005576  0.045939
     2 z      -0.413502  0.162813  0.001688  0.045969  0.076158 -0.314922
     3 x      -0.234125  0.038279 -0.126047  0.005325 -0.318210 -0.076176
     3 y      -0.178453 -0.342345  0.355165  0.323956 -0.005576  0.045939
     3 z       0.388527  0.058063  0.022038  0.045969  0.076158 -0.314922
     4 x      -0.035485  0.008516 -0.100778  0.004469 -0.267036 -0.063925
     4 y       0.080454 -0.093403 -0.367250  0.271858 -0.004679  0.038551
     4 z      -0.216319  0.095767  0.014015  0.038576  0.063910 -0.264277
     5 x      -0.086418  0.055123 -0.099411  0.004469 -0.267036 -0.063925
     5 y      -0.119881 -0.228028  0.271655  0.271858 -0.004679  0.038551
     5 z       0.214959  0.056873 -0.010018  0.038576  0.063910 -0.264277
     6 x      -0.077519  0.028811 -0.020144  0.004469 -0.267036 -0.063925
     6 y       0.085932 -0.120721 -0.360654  0.271858 -0.004679  0.038551
     6 z      -0.191503  0.105123  0.011173  0.038576  0.063910 -0.264277
     7 x      -0.131973  0.000725 -0.049454  0.004469 -0.267036 -0.063925
     7 y      -0.133073 -0.264599  0.257066  0.271858 -0.004679  0.038551
     7 z       0.175393  0.036522  0.023793  0.038576  0.063910 -0.264277
     8 x       0.107789 -0.060271  0.044413  0.004469 -0.267036 -0.063925
     8 y      -0.008004  0.105340 -0.137933  0.271858 -0.004679  0.038551
     8 z      -0.165056 -0.001398 -0.026385  0.038576  0.063910 -0.264277
     9 x      -0.201773  0.026499 -0.061091  0.004469 -0.267036 -0.063925
     9 y      -0.014862 -0.123072 -0.033922  0.271858 -0.004679  0.038551
     9 z      -0.017067  0.107875  0.021879  0.038576  0.063910 -0.264277
    10 x       0.182883 -0.045516  0.147176  0.004469 -0.267036 -0.063925
    10 y       0.040901  0.341327  0.098917  0.271858 -0.004679  0.038551
    10 z      -0.000649 -0.222277 -0.031161  0.038576  0.063910 -0.264277
    11 x       0.164510 -0.041236  0.113909  0.004469 -0.267036 -0.063925
    11 y       0.048456  0.378422  0.101480  0.271858 -0.004679  0.038551
    11 z       0.015574 -0.090409 -0.012355  0.038576  0.063910 -0.264277
    12 x       0.059995  0.021703  0.049505  0.004469 -0.267036 -0.063925
    12 y       0.022845  0.030461  0.175306  0.271858 -0.004679  0.038551
    12 z       0.188236 -0.041326  0.020508  0.038576  0.063910 -0.264277


  Frequency     122.3085  124.1709  129.2778  131.4034  133.3695  145.5562
  IR Intensity    0.0033    0.0022    0.0026    0.0014    0.0004    0.0002
     in X         0.0001    0.0021    0.0000    0.0013    0.0001    0.0000
     in Y         0.0023    0.0000    0.0022    0.0000    0.0002    0.0001
     in Z         0.0009    0.0001    0.0004    0.0000    0.0000    0.0001
  Raman Intsty    0.0001    0.0000    0.0001    0.0000    0.0001    0.0199

     1 x       0.017060 -0.141221 -0.002696 -0.120709  0.035648 -0.001393
     1 y      -0.045969  0.006838  0.011626 -0.022506 -0.054491  0.037256
     1 z      -0.186911  0.000621  0.041464 -0.019418  0.015231  0.009083
     2 x       0.116312  0.090658 -0.081348  0.056112  0.037974  0.086440
     2 y       0.034906 -0.019139 -0.058512 -0.079688 -0.010560 -0.024052
     2 z       0.084060 -0.119356 -0.043941 -0.064954  0.030177 -0.012934
     3 x      -0.123916  0.066309  0.094694  0.015519 -0.053730 -0.086346
     3 y       0.028224  0.024967 -0.067221  0.057618 -0.048452 -0.026967
     3 z       0.071030  0.116532 -0.021134  0.084561 -0.024835 -0.048540
     4 x       0.192550  0.111114  0.033766  0.210790  0.092182  0.072061
     4 y      -0.019474 -0.033625 -0.157102 -0.305184 -0.106476 -0.014426
     4 z       0.105822 -0.111917 -0.067843 -0.296421 -0.062812 -0.012128
     5 x      -0.217684  0.135596 -0.016012  0.047303 -0.105845 -0.103477
     5 y      -0.044024  0.080091 -0.174021  0.171045 -0.229859 -0.040073
     5 z       0.052673  0.140639 -0.106512  0.268786 -0.282646 -0.048636
     6 x       0.224419  0.367222 -0.357810  0.061989 -0.018871  0.464152
     6 y       0.033269  0.003471 -0.085916 -0.064289 -0.006862  0.023044
     6 z       0.020661 -0.254362 -0.151603  0.015720  0.160895 -0.191356
     7 x      -0.152503  0.264350  0.403791  0.086423 -0.028584 -0.380186
     7 y       0.024455 -0.008566 -0.095355  0.042219 -0.054326  0.036725
     7 z       0.026787  0.300879 -0.026058  0.080699  0.132967 -0.302291
     8 x       0.073451 -0.302298 -0.082013  0.117876  0.189348 -0.055469
     8 y      -0.129790 -0.345476 -0.131150  0.537540  0.348450 -0.104061
     8 z       0.078540 -0.107796 -0.003314 -0.196155 -0.035299 -0.026840
     9 x      -0.061299  0.050047 -0.023850  0.010783 -0.017015 -0.031394
     9 y       0.406331 -0.073007  0.681075  0.072099 -0.035902  0.131161
     9 z       0.412135 -0.041900  0.115999  0.054290  0.093693  0.173704
    10 x       0.015393 -0.171443 -0.011345 -0.119566  0.098337 -0.001644
    10 y      -0.056119  0.017319  0.022216 -0.106099 -0.363512 -0.122337
    10 z      -0.185023  0.000190  0.050259 -0.049262 -0.090415 -0.050087
    11 x       0.069512 -0.121783 -0.006691 -0.367004  0.068946 -0.073327
    11 y      -0.200933  0.021504  0.092618 -0.013617  0.033445  0.236287
    11 z      -0.515285  0.038738  0.229032 -0.003079  0.189452  0.546055
    12 x      -0.155107 -0.351570  0.047473  0.009890 -0.302202  0.110832
    12 y      -0.034164  0.323197 -0.016392 -0.280594  0.550297 -0.129919
    12 z       0.041609  0.038154 -0.011824  0.125198 -0.130351 -0.025990


  Frequency     152.6855  156.4152  158.0993  164.4741  164.5686  182.8690
  IR Intensity    0.0004    0.0003    0.0009    0.0001    0.0001    0.0107
     in X         0.0004    0.0001    0.0000    0.0001    0.0000    0.0001
     in Y         0.0000    0.0000    0.0000    0.0000    0.0001    0.0050
     in Z         0.0000    0.0002    0.0008    0.0000    0.0000    0.0056
  Raman Intsty    0.0003    0.0020    0.0104    0.0007    0.0078    0.0001

     1 x      -0.024249  0.011422  0.014002  0.032410  0.007227  0.004917
     1 y       0.002492  0.014345  0.050896  0.013098  0.037332  0.095724
     1 z      -0.033943 -0.052522 -0.124569 -0.019478 -0.096093 -0.093120
     2 x       0.053082 -0.028771 -0.025451 -0.036608 -0.034196  0.011656
     2 y       0.079015 -0.005846 -0.057203 -0.094033 -0.031631  0.115908
     2 z      -0.014343  0.016873  0.026197  0.015456  0.029938 -0.062649
     3 x       0.043105 -0.008608  0.012147 -0.014703  0.030555  0.013665
     3 y      -0.087574 -0.021576 -0.020397  0.083142 -0.046029  0.107123
     3 z       0.032631 -0.003380  0.019919 -0.005273  0.034012 -0.062055
     4 x       0.385462 -0.210466 -0.120305 -0.167898 -0.421971  0.294265
     4 y      -0.164673  0.057384  0.257433  0.126677  0.146177 -0.068616
     4 z       0.104114 -0.180240  0.467969  0.230475 -0.339282  0.051050
     5 x       0.402357 -0.207520  0.029178 -0.001055  0.508102 -0.307071
     5 y       0.239145  0.108741  0.162052 -0.039919  0.181107 -0.052117
     5 z       0.147132  0.419447  0.292384 -0.234263 -0.152370  0.023416
     6 x      -0.416847  0.090885 -0.127804  0.107374  0.051147 -0.088010
     6 y      -0.012719  0.026042 -0.083895 -0.074208 -0.014179  0.130373
     6 z      -0.106556  0.265527 -0.288109 -0.345524  0.304396  0.370329
     7 x      -0.397267  0.306483  0.162399  0.030042 -0.143835 -0.025983
     7 y       0.006522 -0.052310 -0.038096  0.030405 -0.036689  0.090811
     7 z      -0.078205 -0.330093 -0.083910  0.455065  0.207305  0.388382
     8 x      -0.040300  0.017796  0.034028  0.142978 -0.028745 -0.194034
     8 y      -0.079978 -0.007093  0.048252  0.196996 -0.140345 -0.249758
     8 z       0.006257  0.024544 -0.036248  0.007002  0.033848 -0.062457
     9 x       0.045675 -0.022667  0.002182 -0.016077 -0.020888  0.045130
     9 y       0.010142 -0.007915 -0.010682  0.021604  0.187072  0.010333
     9 z       0.015102 -0.007150 -0.009396  0.000376  0.142789 -0.288905
    10 x      -0.258598 -0.348688  0.328620 -0.511205  0.111882  0.053607
    10 y      -0.114802 -0.213975 -0.417139 -0.120140 -0.238314 -0.268248
    10 z      -0.101165 -0.171076 -0.239811 -0.127677 -0.174164 -0.217071
    11 x       0.283359  0.433242 -0.259879  0.252670 -0.068171 -0.055787
    11 y       0.033025  0.056770  0.080698  0.029079  0.052017  0.180131
    11 z       0.054641  0.070504  0.009635  0.019797 -0.003831  0.057149
    12 x      -0.089566 -0.028133 -0.049250  0.185694  0.008205  0.241848
    12 y       0.090569  0.047939  0.033197 -0.173123 -0.088788 -0.152749
    12 z      -0.022666 -0.044954 -0.019026  0.005824  0.019610 -0.062325


  Frequency     198.1137  203.3067  210.5027  230.8363  235.3666  268.0314
  IR Intensity    0.0042    0.0344    0.0301    0.0525    0.0375    0.0010
     in X         0.0040    0.0299    0.0058    0.0028    0.0344    0.0000
     in Y         0.0000    0.0008    0.0093    0.0163    0.0002    0.0001
     in Z         0.0002    0.0037    0.0150    0.0333    0.0029    0.0009
  Raman Intsty    0.0001    0.0000    0.0018    0.0004    0.0005    0.3303

     1 x       0.177825 -0.282382  0.078903  0.044938 -0.012623  0.011285
     1 y       0.008275 -0.044451 -0.122740 -0.260331  0.041767  0.004429
     1 z       0.021077 -0.031338  0.044329 -0.267609  0.029447 -0.109012
     2 x      -0.130002 -0.084611 -0.043838  0.198164  0.263509 -0.075794
     2 y      -0.039225 -0.030552 -0.152019 -0.019115 -0.119610  0.009915
     2 z      -0.263567  0.017878 -0.130638 -0.115036 -0.061918  0.058647
     3 x      -0.191761 -0.020273  0.126808 -0.095188  0.264571  0.056916
     3 y       0.026366 -0.029673 -0.146308  0.028068  0.117215  0.020987
     3 z       0.208507 -0.096915 -0.097533 -0.130791  0.177785  0.080723
     4 x       0.165260 -0.015453 -0.127592  0.064482 -0.087312 -0.058492
     4 y       0.017906 -0.049783  0.046649  0.269303  0.309910 -0.144754
     4 z       0.397570  0.146395  0.221246  0.038813 -0.067313  0.013785
     5 x       0.257007  0.039757  0.032828 -0.103227 -0.086925  0.038227
     5 y       0.015844  0.067834 -0.023742  0.181065 -0.359645 -0.142123
     5 z      -0.319660 -0.002888  0.301789  0.031995  0.001161 -0.000374
     6 x       0.142943  0.141998  0.189355 -0.166166 -0.178171  0.069625
     6 y       0.028496 -0.010586 -0.118860 -0.107447 -0.274981  0.085434
     6 z       0.359347  0.025022  0.197624  0.164796  0.059977 -0.036767
     7 x       0.220958 -0.006894 -0.292958  0.068738 -0.168275 -0.047719
     7 y      -0.004778 -0.039615 -0.118311 -0.042071  0.316825  0.118964
     7 z      -0.276306  0.116451  0.096310  0.179454 -0.123378 -0.042645
     8 x      -0.067405 -0.309677  0.064149  0.235455 -0.156936  0.352410
     8 y       0.013472  0.248640  0.083314 -0.090042  0.018383 -0.066272
     8 z      -0.209970 -0.268665 -0.153186 -0.119779 -0.292850  0.361932
     9 x      -0.157784 -0.056927  0.073603  0.003341  0.271106  0.070547
     9 y       0.014767  0.110893  0.393847 -0.076132  0.009989  0.139201
     9 z      -0.036156 -0.099662 -0.343362  0.210072  0.023353 -0.498873
    10 x      -0.206954  0.395526 -0.119639 -0.009315 -0.087693  0.025009
    10 y      -0.014098  0.053021  0.136734  0.394561 -0.060506  0.086255
    10 z      -0.032317  0.088647  0.135696 -0.166364 -0.000138 -0.215785
    11 x      -0.107553  0.523302 -0.117615 -0.041541  0.015111 -0.012244
    11 y      -0.004082 -0.000954 -0.153182 -0.097148  0.027884  0.047905
    11 z      -0.011648  0.058872 -0.010316  0.383286 -0.048368  0.101220
    12 x      -0.074950 -0.250150  0.104975 -0.228027 -0.135141 -0.428314
    12 y      -0.062066 -0.254715  0.255310 -0.132538 -0.034778 -0.166712
    12 z       0.169635  0.067354 -0.226727 -0.110444  0.274394  0.281331


  Frequency     330.4060  362.8312  365.6822  458.2705  460.1104  477.7632
  IR Intensity    0.0001    0.1824    0.1981    0.0299    0.0198    0.0102
     in X         0.0000    0.0006    0.1967    0.0062    0.0119    0.0085
     in Y         0.0001    0.0426    0.0001    0.0027    0.0002    0.0003
     in Z         0.0000    0.1392    0.0013    0.0210    0.0077    0.0014
  Raman Intsty    4.1973    0.0036    0.0000    0.0006    0.0004    0.0001

     1 x       0.025817 -0.002226 -0.279623 -0.003988  0.029790 -0.309675
     1 y      -0.123531  0.161148 -0.004102 -0.422677  0.267441 -0.001007
     1 z      -0.134025  0.088582 -0.029677  0.243271 -0.134557 -0.041378
     2 x      -0.162751  0.032826 -0.182077 -0.060367 -0.096020  0.044679
     2 y       0.055011  0.043144  0.053552 -0.000481 -0.549066  0.011055
     2 z       0.049483  0.257560 -0.068992  0.033340  0.091470  0.185867
     3 x       0.137932 -0.069391 -0.209747 -0.048541 -0.086446  0.118464
     3 y       0.046415  0.030328 -0.049150  0.487208  0.267431 -0.033597
     3 z       0.094504  0.240251  0.048100 -0.060435 -0.089372 -0.212806
     4 x      -0.203718  0.105910  0.273164  0.050029  0.225993  0.024041
     4 y      -0.289974  0.120251  0.260299  0.051672  0.282302  0.014025
     4 z       0.121463 -0.124566 -0.107850 -0.029023 -0.120919  0.001125
     5 x       0.161650 -0.105542  0.221660  0.149850  0.128281  0.015778
     5 y      -0.299248  0.173269 -0.251884 -0.237822 -0.195025 -0.005259
     5 z       0.150630 -0.164076  0.136453  0.126420  0.111489  0.008427
     6 x      -0.013515  0.015374  0.096882  0.006832 -0.058527 -0.004756
     6 y       0.351856 -0.196672 -0.420005 -0.046849  0.410423  0.040297
     6 z      -0.030297 -0.051835  0.034421 -0.009943 -0.018325  0.007430
     7 x       0.025201 -0.014868  0.102482 -0.055056 -0.022486 -0.004231
     7 y       0.359990 -0.245059  0.377696 -0.386973 -0.146102 -0.022250
     7 z       0.001489 -0.071647  0.013048 -0.031293  0.000853 -0.006242
     8 x      -0.131978 -0.220385  0.067386 -0.091220  0.014670  0.342980
     8 y       0.039985  0.092842  0.025569  0.050054 -0.001113 -0.198224
     8 z      -0.140994  0.029412  0.246656  0.040761  0.011676 -0.354632
     9 x      -0.024085  0.048587 -0.242668 -0.022542 -0.034002 -0.432740
     9 y      -0.084782  0.067466  0.003407 -0.011355  0.007104 -0.007184
     9 z       0.176330 -0.212704 -0.053094  0.012709 -0.017348 -0.052154
    10 x       0.038276  0.043334  0.074699  0.034520 -0.019679 -0.002664
    10 y       0.157367  0.098583  0.010610  0.131488 -0.076927 -0.001485
    10 z      -0.336946 -0.389738 -0.016225 -0.308436  0.172800 -0.007700
    11 x      -0.004611  0.003902  0.061206  0.003568  0.012271  0.012538
    11 y      -0.290734 -0.508364 -0.032942  0.329326 -0.206586 -0.012000
    11 z       0.159912  0.167523  0.019343 -0.114335  0.074477  0.005279
    12 x       0.151590  0.169912  0.145311  0.058551 -0.064586  0.223668
    12 y       0.081882  0.118102  0.026890  0.044134 -0.057163  0.220144
    12 z      -0.113459  0.118862 -0.212492  0.055538 -0.056861  0.479876


  Frequency     486.3579  489.4162  491.0159  525.4892  535.0666  555.9783
  IR Intensity    0.0863    0.0312    0.6889    0.3849    0.3581    0.0010
     in X         0.0008    0.0092    0.0011    0.0037    0.3550    0.0002
     in Y         0.0521    0.0185    0.6346    0.0227    0.0000    0.0003
     in Z         0.0335    0.0036    0.0532    0.3585    0.0031    0.0005
  Raman Intsty    0.0004    0.0000    0.0000    0.0000    0.0001    0.0481

     1 x       0.052562  0.568560  0.092219  0.053966 -0.170643 -0.070320
     1 y       0.304384 -0.075529  0.305135 -0.158862 -0.007052  0.200238
     1 z       0.285790  0.051043 -0.235501 -0.428653 -0.021452  0.480843
     2 x      -0.365776 -0.150689  0.132572  0.139600 -0.411295  0.489026
     2 y       0.065248  0.090542  0.446686 -0.052250  0.061380 -0.100423
     2 z      -0.364167  0.458356  0.038217 -0.256891  0.031486 -0.156705
     3 x       0.405191 -0.121350 -0.156088 -0.102354 -0.377660 -0.440902
     3 y       0.026985 -0.203042  0.401573 -0.043849 -0.064331 -0.116608
     3 z      -0.380394 -0.373055 -0.105876 -0.260903 -0.096310 -0.294059
     4 x       0.080299  0.114105 -0.153089 -0.032051  0.037560 -0.135486
     4 y       0.029720  0.096159 -0.207893 -0.017194  0.013698 -0.087435
     4 z       0.026830 -0.108762  0.073623  0.029400 -0.015059  0.062313
     5 x      -0.061463  0.061845  0.145250  0.019355  0.025270  0.109956
     5 y       0.006617 -0.042505 -0.234173 -0.013041 -0.006006 -0.086175
     5 z       0.042320  0.085561  0.125665  0.031590  0.014100  0.088449
     6 x       0.061496  0.029742  0.012212 -0.008605  0.030691 -0.066542
     6 y      -0.129137 -0.096073 -0.262858 -0.002988  0.002154  0.114387
     6 z       0.051469 -0.050199  0.007319  0.017155 -0.001841  0.010151
     7 x      -0.061996  0.041236 -0.005767  0.005603  0.028726  0.062903
     7 y      -0.071397  0.191730 -0.216673 -0.003698  0.002212  0.124836
     7 z       0.045306  0.054222  0.003189  0.015730  0.006096  0.036993
     8 x       0.020434 -0.195239  0.055391 -0.325743  0.188866  0.010653
     8 y       0.004159  0.046814 -0.062814  0.197014 -0.102708 -0.013189
     8 z       0.136866 -0.155483 -0.106047  0.399704 -0.192007  0.024158
     9 x      -0.022629 -0.103412 -0.017063  0.046897  0.699113  0.025028
     9 y      -0.083197  0.013997 -0.019671  0.003173  0.009577  0.041675
     9 z       0.248270 -0.055280 -0.013459  0.019723  0.096388 -0.037583
    10 x       0.011396 -0.074040 -0.038582 -0.010407  0.010174  0.026513
    10 y       0.006967  0.009118 -0.101487 -0.016961 -0.000833  0.033957
    10 z      -0.178525 -0.010867  0.236093  0.097552  0.006129 -0.209737
    11 x      -0.006928 -0.071899 -0.011027 -0.002085  0.017759  0.008619
    11 y      -0.184713  0.055326 -0.195180 -0.043666  0.004474 -0.082732
    11 z       0.034010 -0.028025  0.094090  0.055412  0.001640 -0.031869
    12 x      -0.130213 -0.155684 -0.069194  0.198344  0.105333 -0.015194
    12 y      -0.051642 -0.050502 -0.073678  0.201182  0.089353 -0.025313
    12 z       0.140141  0.106360 -0.059214  0.461555  0.187362  0.021280




--------------------------------------------------------------------------------
  Vibrational properties (for cluster):  Temperature  =       0.000 K
--------------------------------------------------------------------------------
  Zero point energy            =        0.536219 eV
--------------------------------------------------------------------------------

  Phonon density of states : 

--------------------------------------------------------------------------------
 Frequency (cm-1) Density of States                                             
--------------------------------------------------------------------------------
    0.00000 |***************                                               0.032
    8.68716 |                                                              0.000
   17.37432 |                                                              0.000
   26.06148 |                                                              0.000
   34.74865 |                                                              0.000
   43.43581 |                                                              0.000
   52.12297 |                                                              0.000
   60.81013 |                                                              0.000
   69.49729 |                                                              0.000
   78.18445 |                                                              0.000
   86.87162 |                                                              0.000
   95.55878 |                                                              0.000
  104.24594 |                                                              0.000
  112.93310 |                                                              0.000
  121.62026 |*********************************************                 0.097
  130.30742 |******************************                                0.065
  138.99458 |***************                                               0.032
  147.68175 |***************                                               0.032
  156.36891 |************************************************************  0.129
  165.05607 |                                                              0.000
  173.74323 |                                                              0.000
  182.43039 |***************                                               0.032
  191.11755 |***************                                               0.032
  199.80472 |***************                                               0.032
  208.49188 |***************                                               0.032
  217.17904 |                                                              0.000
  225.86620 |***************                                               0.032
  234.55336 |***************                                               0.032
  243.24052 |                                                              0.000
  251.92769 |                                                              0.000
  260.61485 |***************                                               0.032
  269.30201 |                                                              0.000
  277.98917 |                                                              0.000
  286.67633 |                                                              0.000
  295.36349 |                                                              0.000
  304.05065 |                                                              0.000
  312.73782 |                                                              0.000
  321.42498 |                                                              0.000
  330.11214 |***************                                               0.032
  338.79930 |                                                              0.000
  347.48646 |                                                              0.000
  356.17362 |***************                                               0.032
  364.86079 |***************                                               0.032
  373.54795 |                                                              0.000
  382.23511 |                                                              0.000
  390.92227 |                                                              0.000
  399.60943 |                                                              0.000
  408.29659 |                                                              0.000
  416.98375 |                                                              0.000
  425.67092 |                                                              0.000
  434.35808 |                                                              0.000
  443.04524 |                                                              0.000
  451.73240 |******************************                                0.065
  460.41956 |                                                              0.000
  469.10672 |***************                                               0.032
  477.79389 |***************                                               0.032
  486.48105 |******************************                                0.065
  495.16821 |                                                              0.000
  503.85537 |                                                              0.000
  512.54253 |                                                              0.000
  521.22969 |***************                                               0.032
  529.91685 |***************                                               0.032
  538.60402 |                                                              0.000
  547.29118 |***************                                               0.032
--------------------------------------------------------------------------------



  XYZ File written as 002/1/sp_mod_-20/sp_mod_-20_eig.xyz


  Time to end of properties =       0.0142 seconds


  Peak dynamic memory used =       0.64 MB 


  Timing analysis for GULP :

--------------------------------------------------------------------------------
  Task / Subroutine                                          Time (Seconds)
--------------------------------------------------------------------------------
  Calculation of phonons                                          0.0040
--------------------------------------------------------------------------------
  Total CPU time                                                  0.0142
--------------------------------------------------------------------------------


  Job Finished at 10:30.23 17th May        2022                               

