------------------------------------------------------------
          Invoking FHI-aims ...

          When using FHI-aims, please cite the following reference:

            Volker Blum, Ralf Gehrke, Felix Hanke, Paula Havu,
            Ville Havu, Xinguo Ren, Karsten Reuter, and Matthias Scheffler,
            'Ab Initio Molecular Simulations with Numeric Atom-Centered Orbitals',
            Computer Physics Communications 180, 2175-2196 (2009)

          In addition, many other developments in FHI-aims are likely important for
          your particular application. A partial list of references is given at the end of
          this file. Thank you for giving credit to the authors of these developments.

          For any questions about FHI-aims, please visit our slack channel at

            https://fhi-aims.slack.com

          and our main development and support site at

            https://aims-git.rz-berlin.mpg.de .

          The latter site, in particular, has a wiki to collect information, as well
          as an issue tracker to log discussions, suggest improvements, and report issues
          or bugs. https://aims-git.rz-berlin.mpg.de is also the main development site
          of the project and all new and updated code versions can be obtained there.
          Please send an email to aims-coordinators@fhi-berlin.mpg.de and we will add
          you to these sites. They are for you and everyone is welcome there.

------------------------------------------------------------



  Date     :  20220517, Time     :  110137.857
  Time zero on CPU 1             :   0.432960000000000E-01  s.
  Internal wall clock time zero  :           422017297.857  s.

  FHI-aims created a unique identifier for this run for later identification
  aims_uuid : 485A9592-B5BB-4235-AD02-0D724FF19E36

  Build configuration of the current instance of FHI-aims
  -------------------------------------------------------
  FHI-aims version      : 210914
  Commit number         : GITDIR-NOTFOUND
  CMake host system     : Linux-3.10.0-693.17.1.el7.x86_64
  CMake version         : 3.21.1
  Fortran compiler      : /shared/ucl/apps/intel/2018.Update3/impi/2018.3.222/intel64/bin/mpiifort (Intel) version 18.0.3.20180410
  Fortran compiler flags: -O3 -ip -fp-model precise
  C compiler            : /shared/ucl/apps/intel/2018.Update3/compilers_and_libraries_2018.3.222/linux/bin/intel64/icc (Intel) version 18.0.3.20180410
  C compiler flags      : -O3 -ip -fp-model precise -std=gnu99
  ELPA2 kernel          : AVX2
  Using MPI
  Using ScaLAPACK
  Using LibXC
  Using i-PI
  Using RLSY
  Linking against: /shared/ucl/apps/intel/2019.Update5/compilers_and_libraries_2019.5.281/linux/mkl/lib/intel64/libmkl_intel_lp64.so
                   /shared/ucl/apps/intel/2019.Update5/compilers_and_libraries_2019.5.281/linux/mkl/lib/intel64/libmkl_sequential.so
                   /shared/ucl/apps/intel/2019.Update5/compilers_and_libraries_2019.5.281/linux/mkl/lib/intel64/libmkl_core.so
                   /shared/ucl/apps/intel/2019.Update5/compilers_and_libraries_2019.5.281/linux/mkl/lib/intel64/libmkl_blacs_intelmpi_lp64.so
                   /shared/ucl/apps/intel/2019.Update5/compilers_and_libraries_2019.5.281/linux/mkl/lib/intel64/libmkl_scalapack_lp64.so

  Using       24 parallel tasks.
  Task        0 on host node-k98a-025 reporting.
  Task        1 on host node-k98a-025 reporting.
  Task        2 on host node-k98a-025 reporting.
  Task        3 on host node-k98a-025 reporting.
  Task        4 on host node-k98a-025 reporting.
  Task        5 on host node-k98a-025 reporting.
  Task        6 on host node-k98a-025 reporting.
  Task        7 on host node-k98a-025 reporting.
  Task        8 on host node-k98a-025 reporting.
  Task        9 on host node-k98a-025 reporting.
  Task       10 on host node-k98a-025 reporting.
  Task       11 on host node-k98a-025 reporting.
  Task       12 on host node-k98a-025 reporting.
  Task       13 on host node-k98a-025 reporting.
  Task       14 on host node-k98a-025 reporting.
  Task       15 on host node-k98a-025 reporting.
  Task       16 on host node-k98a-025 reporting.
  Task       17 on host node-k98a-025 reporting.
  Task       18 on host node-k98a-025 reporting.
  Task       19 on host node-k98a-025 reporting.
  Task       20 on host node-k98a-025 reporting.
  Task       21 on host node-k98a-025 reporting.
  Task       22 on host node-k98a-025 reporting.
  Task       23 on host node-k98a-025 reporting.

  Performing system and environment tests:
  | Environment variable OMP_NUM_THREADS correctly set to 1.
  | Checking for ScaLAPACK...
  | Testing pdtran()...
  | All pdtran() tests passed.

  Obtaining array dimensions for all initial allocations:
  
  -----------------------------------------------------------------------
  Parsing control.in (first pass over file, find array dimensions only).
  The contents of control.in will be repeated verbatim below
  unless switched off by setting 'verbatim_writeout .false.' .
  in the first line of control.in .
  -----------------------------------------------------------------------
  
  #########################################################################################  Physical model
  #########################################################################################
  xc                 pbesol
  spin               none
  relativistic       atomic_zora scalar
  charge             0.0
  #  SCF convergence
  occupation_type    gaussian 0.01
  mixer              pulay
  n_max_pulay        10
  charge_mix_param   0.5
  sc_accuracy_rho    1E-5
  sc_accuracy_eev    1E-3
  sc_accuracy_etot   1E-6
  sc_accuracy_forces 1E-4
  sc_iter_limit      1500
  #  Relaxation
  #relax_geometry   bfgs 1.e-3
  
  ################################################################################
  #
  #  FHI-aims code project
  #  VB, Fritz-Haber Institut, 2009
  #
  #  Suggested "light" defaults for Al atom (to be pasted into control.in file)
  #  Be sure to double-check any results obtained with these settings for post-processing,
  #  e.g., with the "tight" defaults and larger basis sets.
  #
  ################################################################################
    species        Al
  #     global species definitions
      nucleus             13
      mass                26.9815386
  #
      l_hartree           4
  #
      cut_pot             3.5          1.5  1.0
      basis_dep_cutoff    1e-4
  #
      radial_base         41 5.0
      radial_multiplier   1
      angular_grids       specified
        division   0.6594  110
        division   0.8170  194
        division   0.9059  302
  #      division   1.0363  434
  #      division   1.1443  590
  #      division   1.2621  770
  #      division   2.8177  974
  #      outer_grid   974
        outer_grid   302
  ################################################################################
  #
  #  Definition of "minimal" basis
  #
  ################################################################################
  #     valence basis states
      valence      3  s   2.
      valence      3  p   1.
  #     ion occupancy
      ion_occ      3  s   1.
      ion_occ      2  p   6.
  ################################################################################
  #
  #  Suggested additional basis functions. For production calculations,
  #  uncomment them one after another (the most important basis functions are
  #  listed first).
  #
  #  Constructed for dimers: 2.0 A, 2.5 A, 3.0 A, 3.75 A, 4.5 A
  #
  ################################################################################
  #  "First tier" - improvements: -199.47 meV to -10.63 meV
       ionic 3 d auto
       ionic 3 p auto
  #     hydro 4 f 4.7
       ionic 3 s auto
  #  "Second tier" - improvements: -5.35 meV to -1.57 meV
  #     hydro 5 g 7
  #     hydro 3 d 6
  #     hydro 2 s 11.6
  #     hydro 2 p 0.9
  #  "Third tier" - improvements: -0.63 meV to -0.20 meV
  #     hydro 5 f 7.6
  #     hydro 4 p 7.2
  #     hydro 4 s 3.7
  #     hydro 4 d 7.6
  #  "Fourth tier" - improvements: -0.17 meV to -0.08 meV
  #     hydro 4 d 13.6
  #     hydro 5 g 11.2
  #     hydro 4 d 0.9
  #     hydro 1 s 0.4
  #     hydro 4 p 0.1
  #     hydro 5 f 9.8
  #  Further basis functions that fell out of the optimization - noise level...
  #     hydro 4 p 5
  
  ################################################################################
  #
  #  FHI-aims code project
  #  VB, Fritz-Haber Institut, 2009
  #
  #  Suggested "light" defaults for F atom (to be pasted into control.in file)
  #  Be sure to double-check any results obtained with these settings for post-processing,
  #  e.g., with the "tight" defaults and larger basis sets.
  #
  ################################################################################
    species        F
  #     global species definitions
      nucleus             9
      mass                18.9984032
  #
      l_hartree           4
  #
      cut_pot             3.5  1.5  1.0
      basis_dep_cutoff    1e-4
  #
      radial_base         37 5.0
      radial_multiplier   1
      angular_grids specified
        division   0.4014  110
        division   0.5291  194
        division   0.6019  302
  #      division   0.6814  434
  #      division   0.7989  590
  #      division   0.8965  770
  #      division   1.3427  974
  #      outer_grid   974
        outer_grid   302
  ################################################################################
  #
  #  Definition of "minimal" basis
  #
  ################################################################################
  #     valence basis states
      valence      2  s   2.
      valence      2  p   5.
  #     ion occupancy
      ion_occ      2  s   1.
      ion_occ      2  p   4.
  ################################################################################
  #
  #  Suggested additional basis functions. For production calculations,
  #  uncomment them one after another (the most important basis functions are
  #  listed first).
  #
  #  Constructed for dimers: 1.2 A, 1.418 A, 1.75 A, 2.25 A, 3.25 A
  #
  ################################################################################
  #  "First tier" - improvements: -149.44 meV to -45.88 meV
       hydro 2 p 1.7
       hydro 3 d 7.4
       hydro 3 s 6.8
  #  "Second tier" - improvements: -12.96 meV to -1.56 meV
  #     hydro 4 f 11.2
  #     ionic 2 p auto
  #     hydro 1 s 0.75
  #     hydro 4 d 8.8
  #     hydro 5 g 16.8
  #  "Third tier" - improvements: -0.58 meV to -0.05 meV
  #     hydro 3 p 6.2
  #     hydro 3 s 3.2
  #     hydro 4 f 9.6
  #     hydro 3 s 19.6
  #     hydro 4 d 8.6
  #     hydro 5 g 14.4
  # Further basis functions: -0.05 meV and below
  #     hydro 3 p 4.2
  
  -----------------------------------------------------------------------
  Completed first pass over input file control.in .
  -----------------------------------------------------------------------
  
  
  -----------------------------------------------------------------------
  Parsing geometry.in (first pass over file, find array dimensions only).
  The contents of geometry.in will be repeated verbatim below
  unless switched off by setting 'verbatim_writeout .false.' .
  in the first line of geometry.in .
  -----------------------------------------------------------------------
  
  atom 1.283194462 0.051703316 2.438816237 Al
  atom 1.366259200 1.273300600 -0.099275800 Al
  atom -0.315418785 0.837012964 -2.317997073 Al
  atom -1.667131804 -0.369963744 -2.212121677 F
  atom 2.215486192 -0.656744754 0.893947513 F
  atom 0.053867784 1.824343654 -3.797766794 F
  atom -0.677233826 2.081395281 -0.876368695 F
  atom 2.797594953 2.617966509 -0.358309044 F
  atom 1.273917423 -0.194205672 -1.907770777 F
  atom 0.264333271 1.618853823 1.925349902 F
  atom 2.547719530 0.599253419 3.622910609 F
  atom 0.019393159 -1.198460859 2.806279186 F
  
  -----------------------------------------------------------------------
  Completed first pass over input file geometry.in .
  -----------------------------------------------------------------------
  

  Basic array size parameters:
  | Number of species                 :        2
  | Number of atoms                   :       12
  | Max. basis fn. angular momentum   :        2
  | Max. atomic/ionic basis occupied n:        3
  | Max. number of basis fn. types    :        3
  | Max. radial fns per species/type  :        5
  | Max. logarithmic grid size        :     1340
  | Max. radial integration grid size :       41
  | Max. angular integration grid size:      302
  | Max. angular grid division number :        8
  | Radial grid for Hartree potential :     1340
  | Number of spin channels           :        1

------------------------------------------------------------
          Reading file control.in.
------------------------------------------------------------
  XC: Using PBEsol gradient-corrected functionals.
  Spin treatment: No spin polarisation.
  Scalar relativistic treatment of kinetic energy: on-site free-atom approximation to ZORA.
  Charge =   0.000000E+00: Neutral system requested explicitly.
  Occupation type: Gaussian broadening, width =   0.100000E-01 eV.
  Using pulay charge density mixing.
  Pulay mixing - number of memorized iterations:   10
  Charge density mixing - mixing parameter:     0.5000
  Convergence accuracy of self-consistent charge density:  0.1000E-04
  Convergence accuracy of sum of eigenvalues:  0.1000E-02
  Convergence accuracy of total energy:  0.1000E-05
  Convergence accuracy of forces:  0.1000E-03
  Maximum number of s.-c. iterations  :  1500
 
  Reading configuration options for species Al                  .
  | Found nuclear charge :  13.0000
  | Found atomic mass :    26.9815386000000      amu
  | Found l_max for Hartree potential  :   4
  | Found cutoff potl. onset [A], width [A], scale factor :    3.50000    1.50000    1.00000
  | Threshold for basis-dependent cutoff potential is   0.100000E-03
  | Found data for basic radial integration grid :    41 points, outermost radius =    5.000 A
  | Found multiplier for basic radial grid :   1
  | Found angular grid specification: user-specified.
  | Specified grid contains     4 separate shells.
  | Check grid settings after all constraints further below.
  | Found free-atom valence shell :  3 s   2.000
  | Found free-atom valence shell :  3 p   1.000
  | Found free-ion valence shell :  3 s   1.000
  | Found free-ion valence shell :  2 p   6.000
  | Found ionic basis function :  3 d , default cutoff radius.
  | Found ionic basis function :  3 p , default cutoff radius.
  | Found ionic basis function :  3 s , default cutoff radius.
  Species Al                  : Missing cutoff potential type.
  Defaulting to exp(1/x)/(1-x)^2 type cutoff potential.
  Species Al: No 'logarithmic' tag. Using default grid for free atom:
  | Default logarithmic grid data [bohr] : 0.1000E-03 0.1000E+03 0.1012E+01
  | Will include ionic basis functions of  2.0-fold positive Al                   ion.
  Species Al: On-site basis accuracy parameter (for Gram-Schmidt orthonormalisation) not specified.
  Using default value basis_acc =  0.1000000E-03.
  Species Al                  : Using default innermost maximum threshold i_radial=  2 for radial functions.
  Species Al                  : Default cutoff onset for free atom density etc. : 0.35000000E+01 AA.
  Species Al                  : Basic radial grid will be enhanced according to radial_multiplier =   1, to contain    41 grid points.
 
  Reading configuration options for species F                   .
  | Found nuclear charge :   9.0000
  | Found atomic mass :    18.9984032000000      amu
  | Found l_max for Hartree potential  :   4
  | Found cutoff potl. onset [A], width [A], scale factor :    3.50000    1.50000    1.00000
  | Threshold for basis-dependent cutoff potential is   0.100000E-03
  | Found data for basic radial integration grid :    37 points, outermost radius =    5.000 A
  | Found multiplier for basic radial grid :   1
  | Found angular grid specification: user-specified.
  | Specified grid contains     4 separate shells.
  | Check grid settings after all constraints further below.
  | Found free-atom valence shell :  2 s   2.000
  | Found free-atom valence shell :  2 p   5.000
  | Found free-ion valence shell :  2 s   1.000
  | Found free-ion valence shell :  2 p   4.000
  | Found hydrogenic basis function :  2 p   1.700
  | Found hydrogenic basis function :  3 d   7.400
  | Found hydrogenic basis function :  3 s   6.800
  Species F                   : Missing cutoff potential type.
  Defaulting to exp(1/x)/(1-x)^2 type cutoff potential.
  Species F : No 'logarithmic' tag. Using default grid for free atom:
  | Default logarithmic grid data [bohr] : 0.1000E-03 0.1000E+03 0.1012E+01
  Species F : On-site basis accuracy parameter (for Gram-Schmidt orthonormalisation) not specified.
  Using default value basis_acc =  0.1000000E-03.
  Species F                   : Using default innermost maximum threshold i_radial=  2 for radial functions.
  Species F                   : Default cutoff onset for free atom density etc. : 0.35000000E+01 AA.
  Species F                   : Basic radial grid will be enhanced according to radial_multiplier =   1, to contain    37 grid points.
 
  Finished reading input file 'control.in'.
 
------------------------------------------------------------


------------------------------------------------------------
          Reading geometry description geometry.in.
------------------------------------------------------------
  | The smallest distance between any two atoms is         1.81524942 AA.
  | The first atom of this pair is atom number                      3 .
  | The second atom of this pair is atom number                     4 .
  Input structure read successfully.
  The structure contains       12 atoms,  and a total of        120.000 electrons.

  Input geometry:
  | No unit cell requested.
  | Atomic structure:
  |       Atom                x [A]            y [A]            z [A]
  |    1: Species Al            1.28319446        0.05170332        2.43881624
  |    2: Species Al            1.36625920        1.27330060       -0.09927580
  |    3: Species Al           -0.31541878        0.83701296       -2.31799707
  |    4: Species F            -1.66713180       -0.36996374       -2.21212168
  |    5: Species F             2.21548619       -0.65674475        0.89394751
  |    6: Species F             0.05386778        1.82434365       -3.79776679
  |    7: Species F            -0.67723383        2.08139528       -0.87636870
  |    8: Species F             2.79759495        2.61796651       -0.35830904
  |    9: Species F             1.27391742       -0.19420567       -1.90777078
  |   10: Species F             0.26433327        1.61885382        1.92534990
  |   11: Species F             2.54771953        0.59925342        3.62291061
  |   12: Species F             0.01939316       -1.19846086        2.80627919

 
  Finished reading input file 'control.in'.
 

------------------------------------------------------------
          Reading geometry description geometry.in.
------------------------------------------------------------
 
  Consistency checks for stacksize environment parameter are next.
 
  | Maximum stacksize for task 0: unlimited
  | Maximum stacksize for task 1: unlimited
  | Maximum stacksize for task 2: unlimited
  | Maximum stacksize for task 3: unlimited
  | Maximum stacksize for task 4: unlimited
  | Maximum stacksize for task 5: unlimited
  | Maximum stacksize for task 6: unlimited
  | Maximum stacksize for task 7: unlimited
  | Maximum stacksize for task 8: unlimited
  | Maximum stacksize for task 9: unlimited
  | Maximum stacksize for task 10: unlimited
  | Maximum stacksize for task 11: unlimited
  | Maximum stacksize for task 12: unlimited
  | Maximum stacksize for task 13: unlimited
  | Maximum stacksize for task 14: unlimited
  | Maximum stacksize for task 15: unlimited
  | Maximum stacksize for task 16: unlimited
  | Maximum stacksize for task 17: unlimited
  | Maximum stacksize for task 18: unlimited
  | Maximum stacksize for task 19: unlimited
  | Maximum stacksize for task 20: unlimited
  | Maximum stacksize for task 21: unlimited
  | Maximum stacksize for task 22: unlimited
  | Maximum stacksize for task 23: unlimited
  | Current stacksize for task 0: unlimited
  | Current stacksize for task 1: unlimited
  | Current stacksize for task 2: unlimited
  | Current stacksize for task 3: unlimited
  | Current stacksize for task 4: unlimited
  | Current stacksize for task 5: unlimited
  | Current stacksize for task 6: unlimited
  | Current stacksize for task 7: unlimited
  | Current stacksize for task 8: unlimited
  | Current stacksize for task 9: unlimited
  | Current stacksize for task 10: unlimited
  | Current stacksize for task 11: unlimited
  | Current stacksize for task 12: unlimited
  | Current stacksize for task 13: unlimited
  | Current stacksize for task 14: unlimited
  | Current stacksize for task 15: unlimited
  | Current stacksize for task 16: unlimited
  | Current stacksize for task 17: unlimited
  | Current stacksize for task 18: unlimited
  | Current stacksize for task 19: unlimited
  | Current stacksize for task 20: unlimited
  | Current stacksize for task 21: unlimited
  | Current stacksize for task 22: unlimited
  | Current stacksize for task 23: unlimited
 
  Consistency checks for the contents of control.in are next.
 
  MPI_IN_PLACE appears to work with this MPI implementation.
  | Keeping use_mpi_in_place .true. (see manual).
  Target number of points in a grid batch is not set. Defaulting to  100
  Method for grid partitioning is not set. Defaulting to parallel hash+maxmin partitioning.
  Batch size limit is not set. Defaulting to    200
  By default, will store active basis functions for each batch.
  If in need of memory, prune_basis_once .false. can be used to disable this option.
  communication_type for Hartree potential was not specified.
  Defaulting to calc_hartree .
  Pulay mixer: Number of initial linear mixing iterations not set.
  Defaulting to    0 iterations.
  Work space size for distributed Hartree potential not set.
  Defaulting to   0.200000E+03 MB.
  Algorithm-dependent basis array size parameters:
  | n_max_pulay                         :       10
  Presetting      1001 iterations before the initial mixing cycle
  is restarted anyway using the sc_init_iter criterion / keyword.
  Presetting a factor      1.000 between actual scf density residual
  and density convergence criterion sc_accuracy_rho below which sc_init_iter
  takes no effect.
  Geometry relaxation not requested: no relaxation will be performed.
  Forces evaluation will include force correction term due to incomplete self-consistency (default).
  Handling of forces: Unphysical translation and rotation will be removed from forces.
  No accuracy limit for integral partition fn. given. Defaulting to  0.1000E-14.
  No threshold value for u(r) in integrations given. Defaulting to  0.1000E-05.
  No accuracy for occupation numbers given. Defaulting to  0.1000E-12.
  No threshold value for occupation numbers given. Defaulting to  0.0000E+00.
  No accuracy for fermi level given. Defaulting to  0.1000E-19.
  Maximum # of iterations to find E_F not set. Defaulting to  200.
  Preferred method for the eigenvalue solver ('KS_method') not specified in 'control.in'.
  Calling BLACS routine to test compilation state
  Since ScaLAPACK support is enabled, defaulting to ELPA (via ELSI).
  Will not use alltoall communication since running on < 1024 CPUs.
  Threshold for basis singularities not set.
  Default threshold for basis singularities:  0.1000E-04
  partition_type (choice of integration weights) for integrals was not specified.
  | Using a version of the partition function of Stratmann and coworkers ('stratmann_sparse').
  | At each grid point, the set of atoms used to build the partition table is smoothly restricted to
  | only those atoms whose free-atom density would be non-zero at that grid point.
  Partitioning for Hartree potential was not defined. Using partition_type for integrals.
  | Adjusted default value of keyword multip_moments_threshold to:       0.10000000E-11
  | This value may affect high angular momentum components of the Hartree potential in periodic systems.
  No q(lm)/r^(l+1) cutoff set for long-range Hartree potential.
  | Using default value of  0.100000E-09 .
  | Verify using the multipole_threshold keyword.
  Defaulting to new monopole extrapolation.
  Density update method: automatic selection selected.
  Charge integration errors on the 3D integration grid will be compensated
  by explicit normalization and distribution of residual charges.
  Use the "compensate_multipole_errors" flag to change this behaviour.
  Set 'collect_eigenvectors' to be '.true.' for use_density_matrix .false.
 
  Consistency checks for the contents of geometry.in are next.
 
  Number of empty states per atom not set in control.in - providing a guess from actual geometry.
  | Total number of empty states used during s.c.f. cycle:       36
  If you use a very high smearing, use empty_states (per atom!) in control.in to increase this value.

  Structure-dependent array size parameters: 
  | Maximum number of distinct radial functions  :       14
  | Maximum number of basis functions            :      180
  | Number of Kohn-Sham states (occupied + empty):       96
------------------------------------------------------------

------------------------------------------------------------
          Preparing all fixed parts of the calculation.
------------------------------------------------------------
  Determining machine precision:
    2.225073858507201E-308
  Setting up grids for atomic and cluster calculations.

  Creating wave function, potential, and density for free atoms.

  Species: Al

  List of occupied orbitals and eigenvalues:
    n    l              occ      energy [Ha]    energy [eV]
    1    0           2.0000       -55.621123     -1513.5278
    2    0           2.0000        -3.957030      -107.6763
    3    0           2.0000        -0.272233        -7.4078
    2    1           6.0000        -2.540949       -69.1427
    3    1           1.0000        -0.083300        -2.2667


  Species: F

  List of occupied orbitals and eigenvalues:
    n    l              occ      energy [Ha]    energy [eV]
    1    0           2.0000       -24.399611      -663.9472
    2    0           2.0000        -1.098702       -29.8972
    2    1           5.0000        -0.408210       -11.1080


  Adding cutoff potential to free-atom effective potential.
  Creating fixed part of basis set: Ionic, confined, hydrogenic.
 
  Al                   ion:

  List of free ionic orbitals and eigenvalues:
    n    l      energy [Ha]    energy [eV]
    1    0       -56.418846     -1535.2349
    2    0        -4.732717      -128.7838
    3    0        -0.872690       -23.7471
    2    1        -3.317230       -90.2664


  List of ionic basis orbitals and eigenvalues:
    n    l      energy [Ha]    energy [eV]    outer radius [A]
    3    2        -0.346815        -9.4373       4.594041
    3    1        -0.631870       -17.1940       4.538221
    3    0        -0.872657       -23.7462       4.538221

 
  F                    hydrogenic:
 
  List of hydrogenic basis orbitals: 
    n    l      effective z      eigenvalue [eV]  inner max. [A]     outer max. [A]     outer radius [A]   
    2    1         1.700000        -9.7616           1.243167           1.243167           4.598524
    3    2         7.400000       -82.7828           0.642437           0.642437           3.305741
    3    0         6.800000       -69.9026           0.057798           1.022307           3.781556
 
  Creating atomic-like basis functions for current effective potential.

  Species Al                  :

  List of atomic basis orbitals and eigenvalues:
    n    l      energy [Ha]    energy [eV]    outer radius [A]
    1    0       -55.621123     -1513.5278       0.850197
    2    0        -3.957030      -107.6763       3.144911
    3    0        -0.272233        -7.4078       4.594041
    2    1        -2.540949       -69.1427       3.731966
    3    1        -0.083300        -2.2667       4.594041


  Species F                   :

  List of atomic basis orbitals and eigenvalues:
    n    l      energy [Ha]    energy [eV]    outer radius [A]
    1    0       -24.399611      -663.9472       1.258458
    2    0        -1.098702       -29.8972       4.325857
    2    1        -0.408210       -11.1080       4.487453

  Assembling full basis from fixed parts.
  | Species Al :   atomic orbital   1 s accepted.
  | Species Al :   atomic orbital   2 s accepted.
  | Species Al :    ionic orbital   3 s accepted.
  | Species Al :   atomic orbital   3 s accepted.
  | Species Al :   atomic orbital   2 p accepted.
  | Species Al :    ionic orbital   3 p accepted.
  | Species Al :   atomic orbital   3 p accepted.
  | Species Al :    ionic orbital   3 d accepted.
  | Species F :   atomic orbital   1 s accepted.
  | Species F :    hydro orbital   3 s accepted.
  | Species F :   atomic orbital   2 s accepted.
  | Species F :   atomic orbital   2 p accepted.
  | Species F :    hydro orbital   2 p accepted.
  | Species F :    hydro orbital   3 d accepted.
 
  Basis size parameters after reduction:
  | Total number of radial functions:       14
  | Total number of basis functions :      180
 
  Per-task memory consumption for arrays in subroutine allocate_ext:
  |           4.807768MB.
  Testing on-site integration grid accuracy.
  |  Species  Function  <phi|h_atom|phi> (log., in eV)  <phi|h_atom|phi> (rad., in eV)
           1        1              -1513.5277717935              -1513.5271881332
           1        2               -107.6762691836               -107.6762662489
           1        3                 -6.9467474784                 -6.9471269649
           1        4                  5.5771951849                  5.4862107220 ***
           1        5                -69.1427313144                -69.1427312731
           1        6                 -1.5197375330                 -1.5230432022
           1        7                  6.8210948310                  6.5529872240 ***
           1        8                  4.3216540965                  4.2851170187 ***
           2        9               -663.9471986398               -663.9470363334
           2       10                 16.8514011578                 16.8512525338
           2       11                -28.4490593856                -28.4490661472
           2       12                -11.1080115307                -11.1080620173
           2       13                  7.1940182175                  7.1685154137
           2       14                 44.8544281765                 44.8543763625
 * Note: Onsite integrals marked "***" above are less accurate than
 * onsite_accuracy_threshold =    0.03000 eV. Usually, this is harmless.
 * When in doubt, tighten the "radial" and/or "radial_multiplier" flags to check.

  Preparing densities etc. for the partition functions (integrals / Hartree potential).

  Preparations completed.
  max(cpu_time)          :      0.184 s.
  Wall clock time (cpu1) :      0.183 s.
------------------------------------------------------------

------------------------------------------------------------
          Begin self-consistency loop: Initialization.

          Date     :  20220517, Time     :  110138.086
------------------------------------------------------------

  Initializing index lists of integration centers etc. from given atomic structure:
  | Number of centers in hartree potential         :        12
  | Number of centers in hartree multipole         :        12
  | Number of centers in electron density summation:        12
  | Number of centers in basis integrals           :        12
  | Number of centers in integrals                 :        12
  | Number of centers in hamiltonian               :        12
  * Using 24 tasks for Scalapack Eigenvalue solver.
  Detailed listing of tasks and assigned k-points:
  (for non-periodic systems, the "k-point" denotes an internal label only)
   Task     0 k-point     1 on node-k98a-025
   Task     1 k-point     1 on node-k98a-025
   Task     2 k-point     1 on node-k98a-025
   Task     3 k-point     1 on node-k98a-025
   Task     4 k-point     1 on node-k98a-025
   Task     5 k-point     1 on node-k98a-025
   Task     6 k-point     1 on node-k98a-025
   Task     7 k-point     1 on node-k98a-025
   Task     8 k-point     1 on node-k98a-025
   Task     9 k-point     1 on node-k98a-025
   Task    10 k-point     1 on node-k98a-025
   Task    11 k-point     1 on node-k98a-025
   Task    12 k-point     1 on node-k98a-025
   Task    13 k-point     1 on node-k98a-025
   Task    14 k-point     1 on node-k98a-025
   Task    15 k-point     1 on node-k98a-025
   Task    16 k-point     1 on node-k98a-025
   Task    17 k-point     1 on node-k98a-025
   Task    18 k-point     1 on node-k98a-025
   Task    19 k-point     1 on node-k98a-025
   Task    20 k-point     1 on node-k98a-025
   Task    21 k-point     1 on node-k98a-025
   Task    22 k-point     1 on node-k98a-025
   Task    23 k-point     1 on node-k98a-025
  Tasks:    24 split into      6 X      4 BLACS grid
  Calculating block size based on n_basis =          180  max_nprow =            6  max_npcol =            4
  ScaLAPACK block size set to:           16
  Allocating        0.012 MB for ovlp
  Allocating        0.012 MB for ham
  Allocating        0.012 MB for eigenvec
  Required Scalapack workspace - INTEGER:            1  REAL:             1
  Partitioning the integration grid into batches with parallel hashing+maxmin method.
  | Number of batches:     1055
  | Maximal batch size:     199
  | Minimal batch size:      27
  | Average batch size:      87.128
  | Standard deviation of batch sizes:      27.204

  Integration load balanced across    24 MPI tasks.
  Work distribution over tasks is as follows:
  Task     0 has       3751 integration points.
  Task     1 has       3910 integration points.
  Task     2 has       3813 integration points.
  Task     3 has       3819 integration points.
  Task     4 has       3757 integration points.
  Task     5 has       3935 integration points.
  Task     6 has       3818 integration points.
  Task     7 has       3817 integration points.
  Task     8 has       3767 integration points.
  Task     9 has       3914 integration points.
  Task    10 has       3824 integration points.
  Task    11 has       3795 integration points.
  Task    12 has       3821 integration points.
  Task    13 has       3822 integration points.
  Task    14 has       3911 integration points.
  Task    15 has       3834 integration points.
  Task    16 has       3904 integration points.
  Task    17 has       3837 integration points.
  Task    18 has       3826 integration points.
  Task    19 has       3750 integration points.
  Task    20 has       3832 integration points.
  Task    21 has       3817 integration points.
  Task    22 has       3820 integration points.
  Task    23 has       3826 integration points.
  Initializing partition tables, free-atom densities, potentials, etc. across the integration grid (initialize_grid_storage).
  | initialize_grid_storage: Actual outermost partition radius vs. multipole_radius_free
  | (-- VB: in principle, multipole_radius_free should be larger, hence this output)
  | Species        1: Confinement radius =              4.999999999999999 AA, multipole_radius_free =              5.004487022111096 AA.
  | Species        1: outer_partition_radius set to              5.004487022111096 AA .
  | Species        2: Confinement radius =              4.999999999999999 AA, multipole_radius_free =              5.009370088163274 AA.
  | Species        2: outer_partition_radius set to              5.009370088163274 AA .
  | The sparse table of interatomic distances needs          1.64 kbyte instead of         1.15 kbyte of memory.
  | Using the partition_type stratmann_smoother will reduce your memory usage.
  | Net number of integration points:    91920
  | of which are non-zero points    :    86511
  Renormalizing the initial density to the exact electron count on the 3D integration grid.
  | Initial density: Formal number of electrons (from input files) :     120.0000000000
  | Integrated number of electrons on 3D grid     :     120.0001279702
  | Charge integration error                      :       0.0001279702
  | Normalization factor for density and gradient :       0.9999989336
  Renormalizing the free-atom superposition density to the exact electron count on the 3D integration grid.
  | Formal number of electrons (from input files) :     120.0000000000
  | Integrated number of electrons on 3D grid     :     120.0001279702
  | Charge integration error                      :       0.0001279702
  | Normalization factor for density and gradient :       0.9999989336
  Obtaining max. number of non-zero basis functions in each batch (get_n_compute_maxes).
  | Maximal number of non-zero basis functions:      160 in task     0
  | Maximal number of non-zero basis functions:      159 in task     1
  | Maximal number of non-zero basis functions:      159 in task     2
  | Maximal number of non-zero basis functions:      164 in task     3
  | Maximal number of non-zero basis functions:      159 in task     4
  | Maximal number of non-zero basis functions:      159 in task     5
  | Maximal number of non-zero basis functions:      159 in task     6
  | Maximal number of non-zero basis functions:      163 in task     7
  | Maximal number of non-zero basis functions:      158 in task     8
  | Maximal number of non-zero basis functions:      159 in task     9
  | Maximal number of non-zero basis functions:      159 in task    10
  | Maximal number of non-zero basis functions:      163 in task    11
  | Maximal number of non-zero basis functions:      162 in task    12
  | Maximal number of non-zero basis functions:      157 in task    13
  | Maximal number of non-zero basis functions:      158 in task    14
  | Maximal number of non-zero basis functions:      160 in task    15
  | Maximal number of non-zero basis functions:      164 in task    16
  | Maximal number of non-zero basis functions:      157 in task    17
  | Maximal number of non-zero basis functions:      159 in task    18
  | Maximal number of non-zero basis functions:      158 in task    19
  | Maximal number of non-zero basis functions:      158 in task    20
  | Maximal number of non-zero basis functions:      159 in task    21
  | Maximal number of non-zero basis functions:      157 in task    22
  | Maximal number of non-zero basis functions:      163 in task    23
  Selecting the method for density update.
  Loop over occupied states selected for charge density update.
  Allocating        0.132 MB for KS_eigenvector
  Integrating Hamiltonian matrix: batch-based integration.
  Time summed over all CPUs for integration: real work        0.662 s, elapsed        0.704 s
  Integrating overlap matrix.
  Time summed over all CPUs for integration: real work        0.255 s, elapsed        0.274 s
  Deallocating overlap matrix.

  Updating Kohn-Sham eigenvalues and eigenvectors using ELSI and the ELPA eigensolver.
  Overlap matrix is not singular
  | Lowest and highest eigenvalues :  0.6043E-02,  0.4390E+01
  Finished singularity check of overlap matrix
  | Time :     0.004 s
  Starting ELPA eigensolver
  Finished Cholesky decomposition
  | Time :     0.002 s
  Finished transformation to standard eigenproblem
  | Time :     0.000 s
  Finished solving standard eigenproblem
  | Time :     0.004 s
  Finished back-transformation of eigenvectors
  | Time :     0.000 s

  Obtaining occupation numbers and chemical potential using ELSI.
  | Chemical potential (Fermi level):    -8.09192513 eV
  Writing Kohn-Sham eigenvalues.

  State    Occupation    Eigenvalue [Ha]    Eigenvalue [eV]
      1       2.00000         -55.483465        -1509.78190
      2       2.00000         -55.483465        -1509.78190
      3       2.00000         -55.481644        -1509.73234
      4       2.00000         -24.340657         -662.34298
      5       2.00000         -24.340657         -662.34297
      6       2.00000         -24.340467         -662.33780
      7       2.00000         -24.340467         -662.33780
      8       2.00000         -24.336341         -662.22555
      9       2.00000         -24.336341         -662.22554
     10       2.00000         -24.336341         -662.22554
     11       2.00000         -24.336341         -662.22554
     12       2.00000         -24.325228         -661.92313
     13       2.00000          -3.948321         -107.43927
     14       2.00000          -3.948320         -107.43926
     15       2.00000          -3.945014         -107.34929
     16       2.00000          -2.540848          -69.13998
     17       2.00000          -2.540846          -69.13995
     18       2.00000          -2.540201          -69.12238
     19       2.00000          -2.540193          -69.12217
     20       2.00000          -2.539405          -69.10072
     21       2.00000          -2.539405          -69.10071
     22       2.00000          -2.536971          -69.03449
     23       2.00000          -2.536754          -69.02860
     24       2.00000          -2.535929          -69.00613
     25       2.00000          -1.152897          -31.37191
     26       2.00000          -1.152250          -31.35432
     27       2.00000          -1.147815          -31.23364
     28       2.00000          -1.147813          -31.23358
     29       2.00000          -1.145464          -31.16966
     30       2.00000          -1.144959          -31.15592
     31       2.00000          -1.143728          -31.12241
     32       2.00000          -1.142839          -31.09824
     33       2.00000          -1.126800          -30.66179
     34       2.00000          -0.523989          -14.25846
     35       2.00000          -0.521485          -14.19032
     36       2.00000          -0.499289          -13.58635
     37       2.00000          -0.488726          -13.29891
     38       2.00000          -0.488262          -13.28628
     39       2.00000          -0.487192          -13.25717
     40       2.00000          -0.485214          -13.20336
     41       2.00000          -0.479267          -13.04152
     42       2.00000          -0.478245          -13.01371
     43       2.00000          -0.466273          -12.68792
     44       2.00000          -0.464193          -12.63133
     45       2.00000          -0.460858          -12.54059
     46       2.00000          -0.458457          -12.47524
     47       2.00000          -0.457966          -12.46188
     48       2.00000          -0.456061          -12.41006
     49       2.00000          -0.455076          -12.38324
     50       2.00000          -0.454061          -12.35563
     51       2.00000          -0.454056          -12.35549
     52       2.00000          -0.452797          -12.32122
     53       2.00000          -0.449950          -12.24377
     54       2.00000          -0.445445          -12.12118
     55       2.00000          -0.443406          -12.06568
     56       2.00000          -0.442978          -12.05403
     57       2.00000          -0.441381          -12.01058
     58       2.00000          -0.439282          -11.95348
     59       2.00000          -0.433928          -11.80778
     60       2.00000          -0.433701          -11.80161
     61       0.00000          -0.209678           -5.70564
     62       0.00000          -0.127093           -3.45837
     63       0.00000          -0.085660           -2.33092
     64       0.00000          -0.055599           -1.51293
     65       0.00000          -0.048777           -1.32729
     66       0.00000          -0.033848           -0.92104
     67       0.00000           0.012307            0.33490
     68       0.00000           0.018675            0.50817
     69       0.00000           0.025706            0.69949
     70       0.00000           0.028473            0.77478
     71       0.00000           0.072558            1.97439
     72       0.00000           0.102751            2.79601
     73       0.00000           0.125533            3.41592
     74       0.00000           0.152868            4.15974
     75       0.00000           0.157879            4.29611
     76       0.00000           0.159252            4.33347
     77       0.00000           0.173598            4.72384
     78       0.00000           0.178851            4.86677
     79       0.00000           0.186966            5.08761
     80       0.00000           0.196529            5.34782
     81       0.00000           0.204859            5.57449
     82       0.00000           0.215984            5.87722
     83       0.00000           0.221384            6.02417
     84       0.00000           0.223560            6.08337
     85       0.00000           0.236436            6.43375
     86       0.00000           0.240662            6.54874
     87       0.00000           0.263609            7.17318
     88       0.00000           0.275403            7.49410
     89       0.00000           0.282783            7.69491
     90       0.00000           0.282847            7.69667
     91       0.00000           0.298880            8.13295
     92       0.00000           0.311612            8.47940
     93       0.00000           0.338581            9.21325
     94       0.00000           0.347354            9.45197
     95       0.00000           0.356229            9.69350
     96       0.00000           0.357008            9.71468

  Highest occupied state (VBM) at    -11.80161291 eV
  | Occupation number:      2.00000000

  Lowest unoccupied state (CBM) at    -5.70563810 eV
  | Occupation number:      0.00000000

  Overall HOMO-LUMO gap:      6.09597481 eV.
  Calculating total energy contributions from superposition of free atom densities.

  Total energy components:
  | Sum of eigenvalues            :        -886.07944436 Ha      -24111.44845802 eV
  | XC energy correction          :        -144.13863674 Ha       -3922.21186559 eV
  | XC potential correction       :         187.66396967 Ha        5106.59643537 eV
  | Free-atom electrostatic energy:        -782.69326044 Ha      -21298.16725545 eV
  | Hartree energy correction     :           0.00000000 Ha           0.00000000 eV
  | Entropy correction            :           0.00000000 Ha           0.00000000 eV
  | ---------------------------
  | Total energy                  :       -1625.24737187 Ha      -44225.23114369 eV
  | Total energy, T -> 0          :       -1625.24737187 Ha      -44225.23114369 eV  <-- do not rely on this value for anything but (periodic) metals
  | Electronic free energy        :       -1625.24737187 Ha      -44225.23114369 eV

  Derived energy quantities:
  | Kinetic energy                :        1627.22530470 Ha       44279.05343423 eV
  | Electrostatic energy          :       -3108.33403983 Ha      -84582.07271233 eV
  | Energy correction for multipole
  | error in Hartree potential    :           0.00000000 Ha           0.00000000 eV
  | Sum of eigenvalues per atom                           :       -2009.28737150 eV
  | Total energy (T->0) per atom                          :       -3685.43592864 eV  <-- do not rely on this value for anything but (periodic) metals
  | Electronic free energy per atom                       :       -3685.43592864 eV
  Initialize hartree_potential_storage
  Max. number of atoms included in rho_multipole:           12

  End scf initialization - timings             :  max(cpu_time)    wall_clock(cpu1)
  | Time for scf. initialization                :        0.108 s           0.108 s
  | Boundary condition initialization           :        0.000 s           0.000 s
  | Integration                                 :        0.043 s           0.043 s
  | Solution of K.-S. eqns.                     :        0.012 s           0.012 s
  | Grid partitioning                           :        0.033 s           0.033 s
  | Preloading free-atom quantities on grid     :        0.014 s           0.014 s
  | Free-atom superposition energy              :        0.005 s           0.005 s
  | Total energy evaluation                     :        0.000 s           0.000 s

  Partial memory accounting:
  | Current value for overall tracked memory usage:
  |   Minimum:        0.273 MB (on task 23)
  |   Maximum:        0.292 MB (on task  0)
  |   Average:        0.287 MB
  | Peak value for overall tracked memory usage:
  |   Minimum:        1.310 MB (on task 22 after allocating wave)
  |   Maximum:        1.372 MB (on task 16 after allocating wave)
  |   Average:        1.337 MB
  | Largest tracked array allocation so far:
  |   Minimum:        0.238 MB (H_times_psi on task 17)
  |   Maximum:        0.440 MB (all_coords on task 10)
  |   Average:        0.266 MB
  Note:  These values currently only include a subset of arrays which are explicitly tracked.
  The "true" memory usage will be greater.
------------------------------------------------------------
  Evaluating new KS density.
  Integration grid: deviation in total charge (<rho> - N_e) =   2.842171E-14

  Time for density update prior                :  max(cpu_time)    wall_clock(cpu1)
  | self-consistency iterative process          :        0.026 s           0.027 s

------------------------------------------------------------
          Begin self-consistency iteration #    1

  Date     :  20220517, Time     :  110138.221
------------------------------------------------------------
  Pulay mixing of updated and previous charge densities.
  Renormalizing the density to the exact electron count on the 3D integration grid.
  | Formal number of electrons (from input files) :     120.0000000000
  | Integrated number of electrons on 3D grid     :     120.0000000000
  | Charge integration error                      :      -0.0000000000
  | Normalization factor for density and gradient :       1.0000000000

  Evaluating partitioned Hartree potential by multipole expansion.
  | Original multipole sum: apparent total charge =  -0.629456E-13
  | Sum of charges compensated after spline to logarithmic grids =   0.720862E-04
  | Analytical far-field extrapolation by fixed multipoles:
  | Hartree multipole sum: apparent total charge =  -0.634622E-13
  Summing up the Hartree potential.
  Time summed over all CPUs for potential: real work        0.381 s, elapsed        0.389 s
  | RMS charge density error from multipole expansion :   0.103769E-01

  Integrating Hamiltonian matrix: batch-based integration.
  Time summed over all CPUs for integration: real work        0.613 s, elapsed        0.649 s

  Updating Kohn-Sham eigenvalues and eigenvectors using ELSI and the ELPA eigensolver.
  Starting ELPA eigensolver
  Finished transformation to standard eigenproblem
  | Time :     0.001 s
  Finished solving standard eigenproblem
  | Time :     0.003 s
  Finished back-transformation of eigenvectors
  | Time :     0.000 s

  Obtaining occupation numbers and chemical potential using ELSI.
  | Chemical potential (Fermi level):    -8.51008895 eV
  Writing Kohn-Sham eigenvalues.

  State    Occupation    Eigenvalue [Ha]    Eigenvalue [eV]
      1       2.00000         -55.784907        -1517.98456
      2       2.00000         -55.645710        -1514.19682
      3       2.00000         -55.645704        -1514.19664
      4       2.00000         -24.198587         -658.47705
      5       2.00000         -24.198582         -658.47692
      6       2.00000         -24.198579         -658.47683
      7       2.00000         -24.198579         -658.47683
      8       2.00000         -24.082917         -655.32953
      9       2.00000         -24.070703         -654.99716
     10       2.00000         -24.070700         -654.99709
     11       2.00000         -24.067626         -654.91344
     12       2.00000         -24.067623         -654.91336
     13       2.00000          -4.209835         -114.55544
     14       2.00000          -4.085320         -111.16720
     15       2.00000          -4.085314         -111.16706
     16       2.00000          -2.804609          -76.31730
     17       2.00000          -2.801964          -76.24533
     18       2.00000          -2.801773          -76.24011
     19       2.00000          -2.679635          -72.91656
     20       2.00000          -2.679628          -72.91640
     21       2.00000          -2.677476          -72.85784
     22       2.00000          -2.677470          -72.85768
     23       2.00000          -2.676470          -72.83045
     24       2.00000          -2.676466          -72.83034
     25       2.00000          -1.114706          -30.33268
     26       2.00000          -1.111180          -30.23676
     27       2.00000          -1.108856          -30.17352
     28       2.00000          -1.105877          -30.09246
     29       2.00000          -1.019999          -27.75560
     30       2.00000          -1.018683          -27.71977
     31       2.00000          -1.018669          -27.71940
     32       2.00000          -1.014250          -27.59916
     33       2.00000          -1.014239          -27.59884
     34       2.00000          -0.530472          -14.43488
     35       2.00000          -0.502117          -13.66330
     36       2.00000          -0.487850          -13.27509
     37       2.00000          -0.462769          -12.59258
     38       2.00000          -0.447090          -12.16593
     39       2.00000          -0.444025          -12.08254
     40       2.00000          -0.437048          -11.89267
     41       2.00000          -0.432847          -11.77837
     42       2.00000          -0.423228          -11.51662
     43       2.00000          -0.419233          -11.40791
     44       2.00000          -0.414182          -11.27047
     45       2.00000          -0.405866          -11.04416
     46       2.00000          -0.395010          -10.74878
     47       2.00000          -0.387219          -10.53676
     48       2.00000          -0.384964          -10.47540
     49       2.00000          -0.363472           -9.89058
     50       2.00000          -0.363118           -9.88093
     51       2.00000          -0.336511           -9.15693
     52       2.00000          -0.334301           -9.09679
     53       2.00000          -0.334007           -9.08879
     54       2.00000          -0.332239           -9.04069
     55       2.00000          -0.327868           -8.92175
     56       2.00000          -0.327074           -8.90013
     57       2.00000          -0.320347           -8.71708
     58       2.00000          -0.320341           -8.71693
     59       2.00000          -0.319133           -8.68406
     60       2.00000          -0.318617           -8.67002
     61       0.00000          -0.267494           -7.27889
     62       0.00000          -0.177108           -4.81935
     63       0.00000          -0.127438           -3.46776
     64       0.00000          -0.102799           -2.79731
     65       0.00000          -0.092753           -2.52393
     66       0.00000          -0.064393           -1.75221
     67       0.00000          -0.027762           -0.75545
     68       0.00000          -0.010409           -0.28325
     69       0.00000           0.009643            0.26241
     70       0.00000           0.016658            0.45328
     71       0.00000           0.037627            1.02387
     72       0.00000           0.057657            1.56894
     73       0.00000           0.094135            2.56155
     74       0.00000           0.124669            3.39242
     75       0.00000           0.128194            3.48834
     76       0.00000           0.131928            3.58995
     77       0.00000           0.152374            4.14630
     78       0.00000           0.160712            4.37319
     79       0.00000           0.164456            4.47508
     80       0.00000           0.178451            4.85589
     81       0.00000           0.203173            5.52862
     82       0.00000           0.207878            5.65666
     83       0.00000           0.210221            5.72040
     84       0.00000           0.215756            5.87102
     85       0.00000           0.216463            5.89026
     86       0.00000           0.223476            6.08109
     87       0.00000           0.242798            6.60686
     88       0.00000           0.247494            6.73465
     89       0.00000           0.249862            6.79908
     90       0.00000           0.258568            7.03598
     91       0.00000           0.286841            7.80535
     92       0.00000           0.296714            8.07400
     93       0.00000           0.310784            8.45685
     94       0.00000           0.321747            8.75518
     95       0.00000           0.333539            9.07606
     96       0.00000           0.345033            9.38882

  Highest occupied state (VBM) at     -8.67001507 eV
  | Occupation number:      2.00000000

  Lowest unoccupied state (CBM) at    -7.27888695 eV
  | Occupation number:      0.00000000

  Overall HOMO-LUMO gap:      1.39112813 eV.

  Total energy components:
  | Sum of eigenvalues            :        -882.36717741 Ha      -24010.43253477 eV
  | XC energy correction          :        -145.47989843 Ha       -3958.70945327 eV
  | XC potential correction       :         189.42793140 Ha        5154.59627639 eV
  | Free-atom electrostatic energy:        -782.69326044 Ha      -21298.16725545 eV
  | Hartree energy correction     :          -3.90803113 Ha        -106.34293765 eV
  | Entropy correction            :          -0.00000000 Ha          -0.00000000 eV
  | ---------------------------
  | Total energy                  :       -1625.02043601 Ha      -44219.05590475 eV
  | Total energy, T -> 0          :       -1625.02043601 Ha      -44219.05590475 eV  <-- do not rely on this value for anything but (periodic) metals
  | Electronic free energy        :       -1625.02043601 Ha      -44219.05590475 eV

  Derived energy quantities:
  | Kinetic energy                :        1633.39041539 Ha       44446.81463175 eV
  | Electrostatic energy          :       -3112.93095297 Ha      -84707.16108323 eV
  | Energy correction for multipole
  | error in Hartree potential    :           0.03319926 Ha           0.90339792 eV
  | Sum of eigenvalues per atom                           :       -2000.86937790 eV
  | Total energy (T->0) per atom                          :       -3684.92132540 eV  <-- do not rely on this value for anything but (periodic) metals
  | Electronic free energy per atom                       :       -3684.92132540 eV
  Evaluating new KS density.
  Integration grid: deviation in total charge (<rho> - N_e) =   2.842171E-14

  Self-consistency convergence accuracy:
  | Change of charge density      :  0.6127E+00
  | Change of sum of eigenvalues  :  0.1010E+03 eV
  | Change of total energy        :  0.6175E+01 eV


------------------------------------------------------------
  End self-consistency iteration #     1       :  max(cpu_time)    wall_clock(cpu1)
  | Time for this iteration                     :        0.076 s           0.076 s
  | Charge density update                       :        0.025 s           0.025 s
  | Density mixing                              :        0.000 s           0.000 s
  | Hartree multipole update                    :        0.001 s           0.002 s
  | Hartree multipole summation                 :        0.017 s           0.017 s
  | Integration                                 :        0.027 s           0.027 s
  | Solution of K.-S. eqns.                     :        0.004 s           0.004 s
  | Total energy evaluation                     :        0.000 s           0.000 s

  Partial memory accounting:
  | Current value for overall tracked memory usage:
  |   Minimum:        0.273 MB (on task 23)
  |   Maximum:        0.292 MB (on task  0)
  |   Average:        0.287 MB
  | Peak value for overall tracked memory usage:
  |   Minimum:        1.310 MB (on task 22 after allocating wave)
  |   Maximum:        1.372 MB (on task 16 after allocating wave)
  |   Average:        1.337 MB
  | Largest tracked array allocation so far:
  |   Minimum:        0.715 MB (gradient_basis_wave on task 13)
  |   Maximum:        0.747 MB (gradient_basis_wave on task  3)
  |   Average:        0.727 MB
  Note:  These values currently only include a subset of arrays which are explicitly tracked.
  The "true" memory usage will be greater.
------------------------------------------------------------

------------------------------------------------------------
          Begin self-consistency iteration #    2

  Date     :  20220517, Time     :  110138.303
------------------------------------------------------------
  Pulay mixing of updated and previous charge densities.
  Renormalizing the density to the exact electron count on the 3D integration grid.
  | Formal number of electrons (from input files) :     120.0000000000
  | Integrated number of electrons on 3D grid     :     120.0000000000
  | Charge integration error                      :       0.0000000000
  | Normalization factor for density and gradient :       1.0000000000

  Evaluating partitioned Hartree potential by multipole expansion.
  | Original multipole sum: apparent total charge =   0.180793E-13
  | Sum of charges compensated after spline to logarithmic grids =   0.263172E-04
  | Analytical far-field extrapolation by fixed multipoles:
  | Hartree multipole sum: apparent total charge =   0.168986E-13
  Summing up the Hartree potential.
  Time summed over all CPUs for potential: real work        0.380 s, elapsed        0.387 s
  | RMS charge density error from multipole expansion :   0.113797E-01

  Integrating Hamiltonian matrix: batch-based integration.
  Time summed over all CPUs for integration: real work        0.613 s, elapsed        0.647 s

  Updating Kohn-Sham eigenvalues and eigenvectors using ELSI and the ELPA eigensolver.
  Starting ELPA eigensolver
  Finished transformation to standard eigenproblem
  | Time :     0.000 s
  Finished solving standard eigenproblem
  | Time :     0.003 s
  Finished back-transformation of eigenvectors
  | Time :     0.000 s

  Obtaining occupation numbers and chemical potential using ELSI.
  | Chemical potential (Fermi level):    -8.82372212 eV
  Highest occupied state (VBM) at     -9.66594952 eV
  | Occupation number:      2.00000000

  Lowest unoccupied state (CBM) at    -7.59061234 eV
  | Occupation number:      0.00000000

  Overall HOMO-LUMO gap:      2.07533719 eV.

  Checking to see if s.c.f. parameters should be adjusted.

  Total energy components:
  | Sum of eigenvalues            :        -885.56265958 Ha      -24097.38602867 eV
  | XC energy correction          :        -144.88881303 Ha       -3942.62520115 eV
  | XC potential correction       :         188.65041395 Ha        5133.43895012 eV
  | Free-atom electrostatic energy:        -782.69326044 Ha      -21298.16725545 eV
  | Hartree energy correction     :          -0.42345016 Ha         -11.52266522 eV
  | Entropy correction            :           0.00000000 Ha           0.00000000 eV
  | ---------------------------
  | Total energy                  :       -1624.91776927 Ha      -44216.26220037 eV
  | Total energy, T -> 0          :       -1624.91776927 Ha      -44216.26220037 eV  <-- do not rely on this value for anything but (periodic) metals
  | Electronic free energy        :       -1624.91776927 Ha      -44216.26220037 eV

  Derived energy quantities:
  | Kinetic energy                :        1629.19286382 Ha       44332.59344201 eV
  | Electrostatic energy          :       -3109.22182005 Ha      -84606.23044123 eV
  | Energy correction for multipole
  | error in Hartree potential    :           0.03491196 Ha           0.95000264 eV
  | Sum of eigenvalues per atom                           :       -2008.11550239 eV
  | Total energy (T->0) per atom                          :       -3684.68851670 eV  <-- do not rely on this value for anything but (periodic) metals
  | Electronic free energy per atom                       :       -3684.68851670 eV
  Evaluating new KS density.
  Integration grid: deviation in total charge (<rho> - N_e) =   7.105427E-14

  Self-consistency convergence accuracy:
  | Change of charge density      :  0.5856E+00
  | Change of sum of eigenvalues  : -0.8695E+02 eV
  | Change of total energy        :  0.2794E+01 eV


------------------------------------------------------------
  End self-consistency iteration #     2       :  max(cpu_time)    wall_clock(cpu1)
  | Time for this iteration                     :        0.079 s           0.076 s
  | Charge density update                       :        0.025 s           0.025 s
  | Density mixing                              :        0.004 s           0.001 s
  | Hartree multipole update                    :        0.001 s           0.002 s
  | Hartree multipole summation                 :        0.016 s           0.016 s
  | Integration                                 :        0.027 s           0.027 s
  | Solution of K.-S. eqns.                     :        0.004 s           0.005 s
  | Total energy evaluation                     :        0.000 s           0.000 s

  Partial memory accounting:
  | Current value for overall tracked memory usage:
  |   Minimum:        0.274 MB (on task 23)
  |   Maximum:        0.293 MB (on task  0)
  |   Average:        0.288 MB
  | Peak value for overall tracked memory usage:
  |   Minimum:        1.310 MB (on task 22 after allocating wave)
  |   Maximum:        1.372 MB (on task 16 after allocating wave)
  |   Average:        1.337 MB
  | Largest tracked array allocation so far:
  |   Minimum:        0.715 MB (gradient_basis_wave on task 13)
  |   Maximum:        0.747 MB (gradient_basis_wave on task  3)
  |   Average:        0.727 MB
  Note:  These values currently only include a subset of arrays which are explicitly tracked.
  The "true" memory usage will be greater.
------------------------------------------------------------

------------------------------------------------------------
          Begin self-consistency iteration #    3

  Date     :  20220517, Time     :  110138.385
------------------------------------------------------------
  Pulay mixing of updated and previous charge densities.
  Renormalizing the density to the exact electron count on the 3D integration grid.
  | Formal number of electrons (from input files) :     120.0000000000
  | Integrated number of electrons on 3D grid     :     120.0000000000
  | Charge integration error                      :       0.0000000000
  | Normalization factor for density and gradient :       1.0000000000

  Evaluating partitioned Hartree potential by multipole expansion.
  | Original multipole sum: apparent total charge =   0.469817E-13
  | Sum of charges compensated after spline to logarithmic grids =   0.284435E-04
  | Analytical far-field extrapolation by fixed multipoles:
  | Hartree multipole sum: apparent total charge =   0.487035E-13
  Summing up the Hartree potential.
  Time summed over all CPUs for potential: real work        0.380 s, elapsed        0.387 s
  | RMS charge density error from multipole expansion :   0.145019E-01

  Integrating Hamiltonian matrix: batch-based integration.
  Time summed over all CPUs for integration: real work        0.614 s, elapsed        0.646 s

  Updating Kohn-Sham eigenvalues and eigenvectors using ELSI and the ELPA eigensolver.
  Starting ELPA eigensolver
  Finished transformation to standard eigenproblem
  | Time :     0.000 s
  Finished solving standard eigenproblem
  | Time :     0.003 s
  Finished back-transformation of eigenvectors
  | Time :     0.000 s

  Obtaining occupation numbers and chemical potential using ELSI.
  | Chemical potential (Fermi level):    -8.78570682 eV
  Highest occupied state (VBM) at     -9.72787421 eV
  | Occupation number:      2.00000000

  Lowest unoccupied state (CBM) at    -7.86533643 eV
  | Occupation number:      0.00000000

  Overall HOMO-LUMO gap:      1.86253778 eV.

  Total energy components:
  | Sum of eigenvalues            :        -886.55222662 Ha      -24124.31351796 eV
  | XC energy correction          :        -144.84726239 Ha       -3941.49455073 eV
  | XC potential correction       :         188.59511353 Ha        5131.93414910 eV
  | Free-atom electrostatic energy:        -782.69326044 Ha      -21298.16725545 eV
  | Hartree energy correction     :           0.57936283 Ha          15.76526480 eV
  | Entropy correction            :           0.00000000 Ha           0.00000000 eV
  | ---------------------------
  | Total energy                  :       -1624.91827309 Ha      -44216.27591025 eV
  | Total energy, T -> 0          :       -1624.91827309 Ha      -44216.27591025 eV  <-- do not rely on this value for anything but (periodic) metals
  | Electronic free energy        :       -1624.91827309 Ha      -44216.27591025 eV

  Derived energy quantities:
  | Kinetic energy                :        1627.90261944 Ha       44297.48410605 eV
  | Electrostatic energy          :       -3107.97363014 Ha      -84572.26546557 eV
  | Energy correction for multipole
  | error in Hartree potential    :           0.04374889 Ha           1.19046794 eV
  | Sum of eigenvalues per atom                           :       -2010.35945983 eV
  | Total energy (T->0) per atom                          :       -3684.68965919 eV  <-- do not rely on this value for anything but (periodic) metals
  | Electronic free energy per atom                       :       -3684.68965919 eV
  Evaluating new KS density.
  Integration grid: deviation in total charge (<rho> - N_e) =   5.684342E-14

  Self-consistency convergence accuracy:
  | Change of charge density      :  0.1567E+00
  | Change of sum of eigenvalues  : -0.2693E+02 eV
  | Change of total energy        : -0.1371E-01 eV


------------------------------------------------------------
  End self-consistency iteration #     3       :  max(cpu_time)    wall_clock(cpu1)
  | Time for this iteration                     :        0.078 s           0.076 s
  | Charge density update                       :        0.025 s           0.025 s
  | Density mixing                              :        0.003 s           0.001 s
  | Hartree multipole update                    :        0.001 s           0.002 s
  | Hartree multipole summation                 :        0.016 s           0.016 s
  | Integration                                 :        0.027 s           0.027 s
  | Solution of K.-S. eqns.                     :        0.004 s           0.004 s
  | Total energy evaluation                     :        0.000 s           0.000 s

  Partial memory accounting:
  | Current value for overall tracked memory usage:
  |   Minimum:        0.274 MB (on task 23)
  |   Maximum:        0.293 MB (on task  0)
  |   Average:        0.288 MB
  | Peak value for overall tracked memory usage:
  |   Minimum:        1.310 MB (on task 22 after allocating wave)
  |   Maximum:        1.372 MB (on task 16 after allocating wave)
  |   Average:        1.337 MB
  | Largest tracked array allocation so far:
  |   Minimum:        0.715 MB (gradient_basis_wave on task 13)
  |   Maximum:        0.747 MB (gradient_basis_wave on task  3)
  |   Average:        0.727 MB
  Note:  These values currently only include a subset of arrays which are explicitly tracked.
  The "true" memory usage will be greater.
------------------------------------------------------------

------------------------------------------------------------
          Begin self-consistency iteration #    4

  Date     :  20220517, Time     :  110138.467
------------------------------------------------------------
  Pulay mixing of updated and previous charge densities.
  Renormalizing the density to the exact electron count on the 3D integration grid.
  | Formal number of electrons (from input files) :     120.0000000000
  | Integrated number of electrons on 3D grid     :     120.0000000000
  | Charge integration error                      :       0.0000000000
  | Normalization factor for density and gradient :       1.0000000000

  Evaluating partitioned Hartree potential by multipole expansion.
  | Original multipole sum: apparent total charge =  -0.427509E-13
  | Sum of charges compensated after spline to logarithmic grids =   0.320546E-04
  | Analytical far-field extrapolation by fixed multipoles:
  | Hartree multipole sum: apparent total charge =  -0.413734E-13
  Summing up the Hartree potential.
  Time summed over all CPUs for potential: real work        0.380 s, elapsed        0.387 s
  | RMS charge density error from multipole expansion :   0.177530E-01

  Integrating Hamiltonian matrix: batch-based integration.
  Time summed over all CPUs for integration: real work        0.613 s, elapsed        0.648 s

  Updating Kohn-Sham eigenvalues and eigenvectors using ELSI and the ELPA eigensolver.
  Starting ELPA eigensolver
  Finished transformation to standard eigenproblem
  | Time :     0.000 s
  Finished solving standard eigenproblem
  | Time :     0.003 s
  Finished back-transformation of eigenvectors
  | Time :     0.000 s

  Obtaining occupation numbers and chemical potential using ELSI.
  | Chemical potential (Fermi level):    -8.89072932 eV
  Highest occupied state (VBM) at     -9.64441530 eV
  | Occupation number:      2.00000000

  Lowest unoccupied state (CBM) at    -8.04137179 eV
  | Occupation number:      0.00000000

  Overall HOMO-LUMO gap:      1.60304352 eV.

  Total energy components:
  | Sum of eigenvalues            :        -887.07599136 Ha      -24138.56588162 eV
  | XC energy correction          :        -144.81285439 Ha       -3940.55826140 eV
  | XC potential correction       :         188.54890355 Ha        5130.67671153 eV
  | Free-atom electrostatic energy:        -782.69326044 Ha      -21298.16725545 eV
  | Hartree energy correction     :           1.12088579 Ha          30.50085425 eV
  | Entropy correction            :           0.00000000 Ha           0.00000000 eV
  | ---------------------------
  | Total energy                  :       -1624.91231685 Ha      -44216.11383269 eV
  | Total energy, T -> 0          :       -1624.91231685 Ha      -44216.11383269 eV  <-- do not rely on this value for anything but (periodic) metals
  | Electronic free energy        :       -1624.91231685 Ha      -44216.11383269 eV

  Derived energy quantities:
  | Kinetic energy                :        1626.73281332 Ha       44265.65206210 eV
  | Electrostatic energy          :       -3106.83227578 Ha      -84541.20763339 eV
  | Energy correction for multipole
  | error in Hartree potential    :           0.05267878 Ha           1.43346247 eV
  | Sum of eigenvalues per atom                           :       -2011.54715680 eV
  | Total energy (T->0) per atom                          :       -3684.67615272 eV  <-- do not rely on this value for anything but (periodic) metals
  | Electronic free energy per atom                       :       -3684.67615272 eV
  Evaluating new KS density.
  Integration grid: deviation in total charge (<rho> - N_e) =   1.421085E-14

  Self-consistency convergence accuracy:
  | Change of charge density      :  0.1510E+00
  | Change of sum of eigenvalues  : -0.1425E+02 eV
  | Change of total energy        :  0.1621E+00 eV


------------------------------------------------------------
  End self-consistency iteration #     4       :  max(cpu_time)    wall_clock(cpu1)
  | Time for this iteration                     :        0.079 s           0.077 s
  | Charge density update                       :        0.025 s           0.025 s
  | Density mixing                              :        0.004 s           0.002 s
  | Hartree multipole update                    :        0.001 s           0.002 s
  | Hartree multipole summation                 :        0.016 s           0.016 s
  | Integration                                 :        0.027 s           0.027 s
  | Solution of K.-S. eqns.                     :        0.004 s           0.004 s
  | Total energy evaluation                     :        0.000 s           0.000 s

  Partial memory accounting:
  | Current value for overall tracked memory usage:
  |   Minimum:        0.274 MB (on task 23)
  |   Maximum:        0.293 MB (on task  0)
  |   Average:        0.288 MB
  | Peak value for overall tracked memory usage:
  |   Minimum:        1.310 MB (on task 22 after allocating wave)
  |   Maximum:        1.372 MB (on task 16 after allocating wave)
  |   Average:        1.337 MB
  | Largest tracked array allocation so far:
  |   Minimum:        0.715 MB (gradient_basis_wave on task 13)
  |   Maximum:        0.747 MB (gradient_basis_wave on task  3)
  |   Average:        0.727 MB
  Note:  These values currently only include a subset of arrays which are explicitly tracked.
  The "true" memory usage will be greater.
------------------------------------------------------------

------------------------------------------------------------
          Begin self-consistency iteration #    5

  Date     :  20220517, Time     :  110138.551
------------------------------------------------------------
  Pulay mixing of updated and previous charge densities.
  Renormalizing the density to the exact electron count on the 3D integration grid.
  | Formal number of electrons (from input files) :     120.0000000000
  | Integrated number of electrons on 3D grid     :     120.0000000000
  | Charge integration error                      :       0.0000000000
  | Normalization factor for density and gradient :       1.0000000000

  Evaluating partitioned Hartree potential by multipole expansion.
  | Original multipole sum: apparent total charge =  -0.159885E-13
  | Sum of charges compensated after spline to logarithmic grids =   0.340291E-04
  | Analytical far-field extrapolation by fixed multipoles:
  | Hartree multipole sum: apparent total charge =  -0.162345E-13
  Summing up the Hartree potential.
  Time summed over all CPUs for potential: real work        0.380 s, elapsed        0.387 s
  | RMS charge density error from multipole expansion :   0.174556E-01

  Integrating Hamiltonian matrix: batch-based integration.
  Time summed over all CPUs for integration: real work        0.613 s, elapsed        0.648 s

  Updating Kohn-Sham eigenvalues and eigenvectors using ELSI and the ELPA eigensolver.
  Starting ELPA eigensolver
  Finished transformation to standard eigenproblem
  | Time :     0.001 s
  Finished solving standard eigenproblem
  | Time :     0.003 s
  Finished back-transformation of eigenvectors
  | Time :     0.000 s

  Obtaining occupation numbers and chemical potential using ELSI.
  | Chemical potential (Fermi level):    -8.85230007 eV
  Highest occupied state (VBM) at     -9.66549243 eV
  | Occupation number:      2.00000000

  Lowest unoccupied state (CBM) at    -7.92317845 eV
  | Occupation number:      0.00000000

  Overall HOMO-LUMO gap:      1.74231398 eV.

  Total energy components:
  | Sum of eigenvalues            :        -886.81652519 Ha      -24131.50544799 eV
  | XC energy correction          :        -144.80277580 Ha       -3940.28400887 eV
  | XC potential correction       :         188.53585017 Ha        5130.32151110 eV
  | Free-atom electrostatic energy:        -782.69326044 Ha      -21298.16725545 eV
  | Hartree energy correction     :           0.86485054 Ha          23.53378050 eV
  | Entropy correction            :           0.00000000 Ha           0.00000000 eV
[...]
   Total forces(   7)            :  0.293298E+01 -0.231267E+01 -0.561823E+00
  atom #    8
   Hellmann-Feynman              :  0.109530E+01  0.102882E+01 -0.198158E+00
   Ionic forces                  :  0.000000E+00  0.000000E+00  0.000000E+00
   Multipole                     :  0.422199E+00  0.396556E+00 -0.763051E-01
   Hartree pot. SCF incomplete   : -0.152809E-05 -0.149458E-05  0.246964E-06
   Pulay + GGA                   : -0.487721E+01 -0.458134E+01  0.882589E+00
   ----------------------------------------------------------------
   Total forces(   8)            : -0.335972E+01 -0.315596E+01  0.608126E+00
  atom #    9
   Hellmann-Feynman              :  0.107905E+01 -0.546332E-02  0.125821E+01
   Ionic forces                  :  0.000000E+00  0.000000E+00  0.000000E+00
   Multipole                     :  0.253830E+00 -0.244789E+00 -0.867187E-01
   Hartree pot. SCF incomplete   :  0.269939E-05 -0.196395E-07  0.108911E-05
   Pulay + GGA                   : -0.288944E+01  0.317506E+01  0.639709E+00
   ----------------------------------------------------------------
   Total forces(   9)            : -0.155656E+01  0.292481E+01  0.181120E+01
  atom #   10
   Hellmann-Feynman              : -0.194681E+00  0.835045E+00 -0.141913E+01
   Ionic forces                  :  0.000000E+00  0.000000E+00  0.000000E+00
   Multipole                     : -0.212576E+00  0.283424E+00  0.793375E-01
   Hartree pot. SCF incomplete   :  0.528404E-07  0.235290E-05 -0.175318E-05
   Pulay + GGA                   :  0.286526E+01 -0.319609E+01 -0.635312E+00
   ----------------------------------------------------------------
   Total forces(  10)            :  0.245800E+01 -0.207762E+01 -0.197511E+01
  atom #   11
   Hellmann-Feynman              :  0.224394E+01  0.109843E+01  0.182415E+01
   Ionic forces                  :  0.000000E+00  0.000000E+00  0.000000E+00
   Multipole                     :  0.501062E+00  0.211058E+00  0.482528E+00
   Hartree pot. SCF incomplete   :  0.320688E-06  0.363028E-06 -0.259513E-06
   Pulay + GGA                   : -0.487976E+01 -0.214700E+01 -0.449386E+01
   ----------------------------------------------------------------
   Total forces(  11)            : -0.213476E+01 -0.837507E+00 -0.218718E+01
  atom #   12
   Hellmann-Feynman              : -0.229292E+01 -0.214919E+01  0.402372E+00
   Ionic forces                  :  0.000000E+00  0.000000E+00  0.000000E+00
   Multipole                     : -0.476470E+00 -0.476153E+00  0.148791E+00
   Hartree pot. SCF incomplete   : -0.402776E-06  0.202759E-06 -0.128821E-05
   Pulay + GGA                   :  0.488618E+01  0.476989E+01 -0.127984E+01
   ----------------------------------------------------------------
   Total forces(  12)            :  0.211679E+01  0.214455E+01 -0.728674E+00


  Self-consistency convergence accuracy:
  | Change of charge density      :  0.3641E-06
  | Change of sum of eigenvalues  : -0.4314E-04 eV
  | Change of total energy        :  0.5859E-08 eV
  | Change of forces              :  0.9144E-06 eV/A

  Writing Kohn-Sham eigenvalues.

  State    Occupation    Eigenvalue [Ha]    Eigenvalue [eV]
      1       2.00000         -55.747099        -1516.95574
      2       2.00000         -55.616624        -1513.40535
      3       2.00000         -55.616617        -1513.40516
      4       2.00000         -24.306904         -661.42451
      5       2.00000         -24.306901         -661.42442
      6       2.00000         -24.306900         -661.42441
      7       2.00000         -24.306900         -661.42440
      8       2.00000         -24.260149         -660.15224
      9       2.00000         -24.209371         -658.77050
     10       2.00000         -24.209367         -658.77039
     11       2.00000         -24.205133         -658.65519
     12       2.00000         -24.205129         -658.65508
     13       2.00000          -4.188797         -113.98296
     14       2.00000          -4.070135         -110.75400
     15       2.00000          -4.070129         -110.75386
     16       2.00000          -2.782129          -75.70559
     17       2.00000          -2.780489          -75.66095
     18       2.00000          -2.778987          -75.62007
     19       2.00000          -2.663465          -72.47658
     20       2.00000          -2.663459          -72.47641
     21       2.00000          -2.662661          -72.45470
     22       2.00000          -2.662655          -72.45453
     23       2.00000          -2.658716          -72.34733
     24       2.00000          -2.658712          -72.34723
     25       2.00000          -1.150461          -31.30564
     26       2.00000          -1.147372          -31.22157
     27       2.00000          -1.145575          -31.17269
     28       2.00000          -1.142919          -31.10042
     29       2.00000          -1.086674          -29.56992
     30       2.00000          -1.057202          -28.76792
     31       2.00000          -1.057189          -28.76759
     32       2.00000          -1.052125          -28.62977
     33       2.00000          -1.052113          -28.62945
     34       2.00000          -0.549010          -14.93931
     35       2.00000          -0.527299          -14.34853
     36       2.00000          -0.513798          -13.98114
     37       2.00000          -0.493422          -13.42669
     38       2.00000          -0.479106          -13.03714
     39       2.00000          -0.478353          -13.01666
     40       2.00000          -0.475390          -12.93601
     41       2.00000          -0.463538          -12.61351
     42       2.00000          -0.462605          -12.58813
     43       2.00000          -0.449952          -12.24381
     44       2.00000          -0.446644          -12.15380
     45       2.00000          -0.446435          -12.14811
     46       2.00000          -0.439454          -11.95816
     47       2.00000          -0.422736          -11.50324
     48       2.00000          -0.419824          -11.42399
     49       2.00000          -0.400902          -10.90910
     50       2.00000          -0.400659          -10.90248
     51       2.00000          -0.394220          -10.72729
     52       2.00000          -0.392976          -10.69342
     53       2.00000          -0.367899          -10.01105
     54       2.00000          -0.367450           -9.99881
     55       2.00000          -0.363119           -9.88098
     56       2.00000          -0.362363           -9.86041
     57       2.00000          -0.356169           -9.69184
     58       2.00000          -0.356115           -9.69039
     59       2.00000          -0.355397           -9.67085
     60       2.00000          -0.355052           -9.66145
     61       0.00000          -0.290566           -7.90670
     62       0.00000          -0.188427           -5.12735
     63       0.00000          -0.131478           -3.57771
     64       0.00000          -0.105901           -2.88172
     65       0.00000          -0.101124           -2.75173
     66       0.00000          -0.071829           -1.95457
     67       0.00000          -0.026592           -0.72361
     68       0.00000          -0.011374           -0.30949
     69       0.00000           0.006201            0.16874
     70       0.00000           0.012792            0.34809
     71       0.00000           0.037793            1.02840
     72       0.00000           0.058817            1.60048
     73       0.00000           0.091548            2.49114
     74       0.00000           0.119267            3.24542
     75       0.00000           0.125617            3.41822
     76       0.00000           0.131512            3.57863
     77       0.00000           0.151245            4.11560
     78       0.00000           0.156234            4.25134
     79       0.00000           0.160634            4.37107
     80       0.00000           0.175509            4.77583
     81       0.00000           0.201102            5.47226
     82       0.00000           0.201153            5.47365
     83       0.00000           0.203451            5.53618
     84       0.00000           0.208834            5.68266
     85       0.00000           0.212678            5.78725
     86       0.00000           0.217712            5.92426
     87       0.00000           0.238313            6.48481
     88       0.00000           0.245812            6.68888
     89       0.00000           0.247547            6.73609
     90       0.00000           0.256022            6.96673
     91       0.00000           0.281194            7.65167
     92       0.00000           0.293310            7.98138
     93       0.00000           0.310232            8.44184
     94       0.00000           0.320460            8.72016
     95       0.00000           0.326964            8.89714
     96       0.00000           0.332137            9.03790

  Highest occupied state (VBM) at     -9.66145358 eV
  | Occupation number:      2.00000000

  Lowest unoccupied state (CBM) at    -7.90670352 eV
  | Occupation number:      0.00000000

  Overall HOMO-LUMO gap:      1.75475006 eV.
  | Chemical Potential                          :    -8.84483388 eV

  Self-consistency cycle converged.


------------------------------------------------------------
  End self-consistency iteration #    14       :  max(cpu_time)    wall_clock(cpu1)
  | Time for this iteration                     :        0.259 s           0.258 s
  | Charge density & force component update     :        0.137 s           0.138 s
  | Density mixing                              :        0.005 s           0.004 s
  | Hartree multipole update                    :        0.001 s           0.001 s
  | Hartree multipole summation                 :        0.050 s           0.050 s
  | Hartree pot. SCF incomplete forces          :        0.033 s           0.033 s
  | Integration                                 :        0.027 s           0.027 s
  | Solution of K.-S. eqns.                     :        0.004 s           0.004 s
  | Total energy evaluation                     :        0.000 s           0.000 s

  Partial memory accounting:
  | Current value for overall tracked memory usage:
  |   Minimum:        0.274 MB (on task 23)
  |   Maximum:        0.293 MB (on task  0)
  |   Average:        0.289 MB
  | Peak value for overall tracked memory usage:
  |   Minimum:        2.937 MB (on task 22 after allocating hessian_basis_wave)
  |   Maximum:        3.056 MB (on task 16 after allocating hessian_basis_wave)
  |   Average:        2.987 MB
  | Largest tracked array allocation so far:
  |   Minimum:        1.430 MB (hessian_basis_wave on task 13)
  |   Maximum:        1.494 MB (hessian_basis_wave on task  3)
  |   Average:        1.455 MB
  Note:  These values currently only include a subset of arrays which are explicitly tracked.
  The "true" memory usage will be greater.
------------------------------------------------------------
  Removing unitary transformations (pure translations, rotations) from forces on atoms.
  Atomic forces before filtering:
  | Net force on center of mass :  -0.490893E-02 -0.354864E-02  0.211136E-02 eV/A
  | Net torque on center of mass:  -0.893661E-02 -0.105397E-01  0.378255E-02 eV
  Atomic forces after filtering:
  | Net force on center of mass :   0.107044E-14 -0.713624E-15 -0.802828E-15 eV/A
  | Net torque on center of mass:   0.302107E-14  0.330430E-14  0.528687E-14 eV

  Energy and forces in a compact form:
  | Total energy uncorrected      :         -0.442161011594928E+05 eV
  | Total energy corrected        :         -0.442161011594928E+05 eV  <-- do not rely on this value for anything but (periodic) metals
  | Electronic free energy        :         -0.442161011594928E+05 eV
  Total atomic forces (unitary forces cleaned) [eV/Ang]:
  |    1         -0.173799845429205E+00         -0.149935951942463E+01          0.297727369447542E+01
  |    2          0.195437913840460E+01          0.183748954456969E+01         -0.354142190322764E+00
  |    3         -0.204148545554900E+01         -0.583097485534230E+00         -0.257582762735396E+01
  |    4          0.233603575405298E+01          0.203889832387407E+01         -0.774246842943225E-01
  |    5         -0.203262962885159E+01          0.315842991812851E+01          0.399934083643185E+00
  |    6         -0.502539416038786E+00         -0.163906611821443E+01          0.266480918154703E+01
  |    7          0.293339117063668E+01         -0.231214527755890E+01         -0.561655775080396E+00
  |    8         -0.335918336070154E+01         -0.315581997324527E+01          0.607852212009599E+00
  |    9         -0.155651109145073E+01          0.292524755966798E+01          0.181085961396175E+01
  |   10          0.245877284984976E+01         -0.207746683526729E+01         -0.197512391823270E+01
  |   11         -0.213384522352812E+01         -0.837743421555226E+00         -0.218761953358952E+01
  |   12          0.211741510860495E+01          0.214463328455972E+01         -0.728935056763322E+00

  ------------------------------------ 
  Start decomposition of the XC Energy 
  ------------------------------------ 
  X and C from original XC functional choice 
  Hartree-Fock Energy :          0.000000000 Ha              0.000000000 eV
  X Energy            :       -139.896537681 Ha          -3806.778477062 eV
  C Energy            :         -4.914563580 Ha           -133.732079230 eV
  Total XC Energy     :       -144.811101261 Ha          -3940.510556292 eV
  ------------------------------------ 
  LDA X and C from self-consistent density 
  X Energy LDA        :       -132.447705618 Ha          -3604.085443709 eV
  C Energy LDA        :         -8.804102651 Ha           -239.571822418 eV
  ------------------------------------ 
  End decomposition of the XC Energy 
  ------------------------------------ 

------------------------------------------------------------

------------------------------------------------------------------------------
  Final output of selected total energy values:

  The following output summarizes some interesting total energy values
  at the end of a run (AFTER all relaxation, molecular dynamics, etc.).

  | Total energy of the DFT / Hartree-Fock s.c.f. calculation      :         -44216.101159493 eV
  | Final zero-broadening corrected energy (caution - metals only) :         -44216.101159493 eV
  | For reference only, the value of 1 Hartree used in FHI-aims is :             27.211384500 eV

  Before relying on these values, please be sure to understand exactly which
  total energy value is referred to by a given number. Different objects may
  all carry the same name 'total energy'. Definitions:

  Total energy of the DFT / Hartree-Fock s.c.f. calculation:
  | Note that this energy does not include ANY quantities calculated after the
  | s.c.f. cycle, in particular not ANY RPA, MP2, etc. many-body perturbation terms.

  Final zero-broadening corrected energy:
  | For metallic systems only, a broadening of the occupation numbers at the Fermi
  | level can be extrapolated back to zero broadening by an electron-gas inspired
  | formula. For all systems that are not real metals, this value can be
  | meaningless and should be avoided.

------------------------------------------------------------------------------
  Methods described in the following list of references were used in this FHI-aims run.
  If you publish the results, please make sure to cite these reference if they apply.
  FHI-aims is an academic code, and for our developers (often, Ph.D. students
  and postdocs), scientific credit in the community is essential.
  Thank you for helping us!

  For any use of FHI-aims, please cite:

    Volker Blum, Ralf Gehrke, Felix Hanke, Paula Havu, Ville Havu,
    Xinguo Ren, Karsten Reuter, and Matthias Scheffler
    'Ab initio molecular simulations with numeric atom-centered orbitals'
    Computer Physics Communications 180, 2175-2196 (2009)
    http://dx.doi.org/10.1016/j.cpc.2009.06.022


  The ELSI infrastructure was used in your run to solve the Kohn-Sham electronic structure.
  Please check out http://elsi-interchange.org to learn more.
  If scalability is important for your project, please acknowledge ELSI by citing:

    V. W-z. Yu, F. Corsetti, A. Garcia, W. P. Huhn, M. Jacquelin, W. Jia,
    B. Lange, L. Lin, J. Lu, W. Mi, A. Seifitokaldani, A. Vazquez-Mayagoitia,
    C. Yang, H. Yang, and V. Blum
    'ELSI: A unified software interface for Kohn-Sham electronic structure solvers'
    Computer Physics Communications 222, 267-285 (2018).
    http://dx.doi.org/10.1016/j.cpc.2017.09.007


  For the real-space grid partitioning and parallelization used in this calculation, please cite:

    Ville Havu, Volker Blum, Paula Havu, and Matthias Scheffler,
    'Efficient O(N) integration for all-electron electronic structure calculation'
    'using numerically tabulated basis functions'
    Journal of Computational Physics 228, 8367-8379 (2009).
    http://dx.doi.org/10.1016/j.jcp.2009.08.008

  Of course, there are many other important community references, e.g., those cited in the
  above references. Our list is limited to references that describe implementations in the
  FHI-aims code. The reason is purely practical (length of this list) - please credit others as well.

------------------------------------------------------------
          Leaving FHI-aims.
          Date     :  20220517, Time     :  110139.755

          Computational steps:
          | Number of self-consistency cycles          :           14
          | Number of SCF (re)initializations          :            1

          Detailed time accounting                     :  max(cpu_time)    wall_clock(cpu1)
          | Total time                                  :        1.830 s           1.898 s
          | Preparation time                            :        0.184 s           0.183 s
          | Boundary condition initalization            :        0.000 s           0.000 s
          | Grid partitioning                           :        0.033 s           0.033 s
          | Preloading free-atom quantities on grid     :        0.014 s           0.014 s
          | Free-atom superposition energy              :        0.005 s           0.005 s
          | Total time for integrations                 :        0.425 s           0.424 s
          | Total time for solution of K.-S. equations  :        0.067 s           0.068 s
          | Total time for density & force components   :        0.607 s           0.607 s
          | Total time for mixing                       :        0.060 s           0.030 s
          | Total time for Hartree multipole update     :        0.018 s           0.021 s
          | Total time for Hartree multipole sum        :        0.298 s           0.297 s
          | Total time for total energy evaluation      :        0.002 s           0.001 s
          | Total time NSC force correction             :        0.066 s           0.066 s
          | Total time for scaled ZORA corrections      :        0.000 s           0.000 s

          Partial memory accounting:
          | Residual value for overall tracked memory usage across tasks:     0.000000 MB (should be 0.000000 MB)
          | Peak values for overall tracked memory usage:
          |   Minimum:        2.937 MB (on task 22 after allocating hessian_basis_wave)
          |   Maximum:        3.056 MB (on task 16 after allocating hessian_basis_wave)
          |   Average:        2.987 MB
          | Largest tracked array allocation:
          |   Minimum:        1.430 MB (hessian_basis_wave on task 13)
          |   Maximum:        1.494 MB (hessian_basis_wave on task  3)
          |   Average:        1.455 MB
          Note:  These values currently only include a subset of arrays which are explicitly tracked.
          The "true" memory usage will be greater.

          Have a nice day.
------------------------------------------------------------
