********************************************************************************
*                       GENERAL UTILITY LATTICE PROGRAM                        *
*                                 Julian Gale                                  *
*                       Curtin Institute for Computation                       *
*                           Department of Chemistry                            *
*                    Curtin University, Western Australia                      *
********************************************************************************
* Version = 5.1.1 * Last modified =  24th November 2018                        *
********************************************************************************
*  optimise     - perform optimisation run                                     *
*  conp         - constant pressure calculation                                *
*  shell        - only shells and radii to be optimised                        *
*  phonon       - calculate phonons for final geometry                         *
*  eigenvectors - output phonon eigenvectors                                   *
********************************************************************************

  Job Started  at 14:39.59 25th May        2022                               

  Number of CPUs =     1

  Host name      = login03                                 


  Total number of configurations input =      1

********************************************************************************
*  Input for Configuration =   1                                               *
********************************************************************************

  Formula = Al3F9                                                       

  Number of irreducible atoms/shells =      21


  Total number atoms/shells =      21

  Dimensionality = 0               :  Cluster


  Charge on cluster =  -0.000000


  Initial cluster dipoles : x =      0.093181 e.Angs
                            y =     -0.685128 e.Angs
                            z =     -0.033733 e.Angs

  Temperature of configuration =  0.000     K 

  Symmetry number =      1

  Cartesian coordinates of cluster :

--------------------------------------------------------------------------------
   No.  Atomic       x           y          z         Charge      Occupancy
        Label      (Angs)      (Angs)     (Angs)        (e)         (Frac)  
--------------------------------------------------------------------------------
      1 Al    c     -1.6914      2.5610     -1.2376     3.00000    1.000000    
      2 Al    c     -0.4443     -0.0037     -2.2598     3.00000    1.000000    
      3 Al    c     -2.2984     -0.3369     -0.5946     3.00000    1.000000    
      4 F     c     -0.8261      3.6702     -0.0827     0.59000    1.000000    
      5 F     c     -2.9134      3.1986     -2.4264     0.59000    1.000000    
      6 F     c     -1.3735     -1.6738     -1.7280     0.59000    1.000000    
      7 F     c     -2.6358      1.4513     -0.0283     0.59000    1.000000    
      8 F     c     -3.4314     -1.2975      0.4432     0.59000    1.000000    
      9 F     c      0.7959     -0.5231     -3.4774     0.59000    1.000000    
     10 F     c     -0.2422      1.8898     -2.2484     0.59000    1.000000    
     11 F     c     -2.3804      0.4907     -2.3863     0.59000    1.000000    
     12 F     c     -0.3885      0.1401     -0.3079     0.59000    1.000000    
     13 F     s     -0.8261 *    3.6702 *   -0.0827 *  -1.59000    1.000000    
     14 F     s     -2.9134 *    3.1986 *   -2.4264 *  -1.59000    1.000000    
     15 F     s     -1.3735 *   -1.6738 *   -1.7280 *  -1.59000    1.000000    
     16 F     s     -2.6358 *    1.4513 *   -0.0283 *  -1.59000    1.000000    
     17 F     s     -3.4314 *   -1.2975 *    0.4432 *  -1.59000    1.000000    
     18 F     s      0.7959 *   -0.5231 *   -3.4774 *  -1.59000    1.000000    
     19 F     s     -0.2422 *    1.8898 *   -2.2484 *  -1.59000    1.000000    
     20 F     s     -2.3804 *    0.4907 *   -2.3863 *  -1.59000    1.000000    
     21 F     s     -0.3885 *    0.1401 *   -0.3079 *  -1.59000    1.000000    
--------------------------------------------------------------------------------


  Brillouin zone sampling points :

--------------------------------------------------------------------------------
  Point number          x          y          z            Weight
--------------------------------------------------------------------------------
        1           0.000000   0.000000   0.000000     1.00000000
--------------------------------------------------------------------------------


********************************************************************************
*  General input information                                                   *
********************************************************************************

  Species output for all configurations : 

--------------------------------------------------------------------------------
  Species    Type    Atomic    Atomic    Charge       Radii (Angs)     Library
                     Number     Mass       (e)     Cova   Ionic  VDW   Symbol
--------------------------------------------------------------------------------
    Al       Core       13      26.98   3.000000   1.350  0.000  2.050          
    F        Core        9      19.00   0.590000   0.710  0.000  1.300          
    F        Shell       9       0.00  -1.590000   0.710  0.000  1.300          
--------------------------------------------------------------------------------


  Accuracy factor for short range sums = 12.000

  Time limit = Infinity

  Maximum range for interatomic potentials =    100000.000000 Angstroms

  General interatomic potentials :

--------------------------------------------------------------------------------
Atom  Types   Potential      Parameter       Value         Units   Cutoffs(Ang)
  1     2                                                            Min /  Max 
--------------------------------------------------------------------------------
Al   c F    s Buckingham    Buckingham A     3760.0008    eV        0.000 10.000
                            Buckingham rho  0.22200000    Ang       
                            Buckingham C     0.0000000    eV*Ang^6  
--------------------------------------------------------------------------------
F    s F    s Buck 4 range  Buck4 A          1127.7000    eV        0.000 12.000
                            Buck4 rho       0.27530000    Ang       
                            Buck4 C          15.830000    eV*Ang^6  
                            Buck4 minimum    2.7900000    Ang       
--------------------------------------------------------------------------------
F    c F    s Spring (c-s)  Spring k 2       20.770000    eV*Ang^-2 0.000  0.800
                            Spring k 4       0.0000000    eV*Ang^-4 
--------------------------------------------------------------------------------

********************************************************************************
*  Output for configuration   1                                                *
********************************************************************************


  Components of energy : 

--------------------------------------------------------------------------------
  Interatomic potentials     =           9.97422883 eV    
  Monopole - monopole (real) =        -177.53913460 eV    
--------------------------------------------------------------------------------
  Total lattice energy       =        -167.56490577 eV    
--------------------------------------------------------------------------------
  Total lattice energy       =          -16167.4519 kJ/mol
--------------------------------------------------------------------------------


  Number of variables =       27

  Maximum number of calculations  =          2000
  Maximum Hessian update interval =            10
  Maximum step size               =   1.000000000
  Maximum parameter tolerance     =   0.000001000
  Maximum function  tolerance     =   0.000010000
  Maximum gradient  tolerance     =   0.000000010
  Maximum gradient  component     =   0.010000000

  Symmetry not applied to optimisation

  Newton-Raphson optimiser to be used

  BFGS hessian update to be used

  Lower half triangular hessian to be used

  Minimiser to switch to RFO
  When gradient norm is less than     0.010000

  Shell only optimisation

  Start of cluster optimisation :

  Cycle:      0 Energy:      -167.564906  Gnorm:      1.516723  CPU:    0.004
  ** Hessian calculated **
  Cycle:      1 Energy:      -184.748124  Gnorm:      0.615816  CPU:    0.005
  ** Hessian calculated **
  Cycle:      2 Energy:      -186.334008  Gnorm:      0.039775  CPU:    0.007
  Cycle:      3 Energy:      -186.343626  Gnorm:      0.006771  CPU:    0.009
  ** Hessian has required structure
  Cycle:      4 Energy:      -186.343905  Gnorm:      0.001495  CPU:    0.010
  ** Hessian has required structure
  Cycle:      5 Energy:      -186.343919  Gnorm:      0.000528  CPU:    0.012
  ** Hessian has required structure
  Cycle:      6 Energy:      -186.343921  Gnorm:      0.000152  CPU:    0.013
  ** Hessian has required structure
  Cycle:      7 Energy:      -186.343921  Gnorm:      0.000126  CPU:    0.014
  ** Hessian has required structure
  Cycle:      8 Energy:      -186.343921  Gnorm:      0.000062  CPU:    0.016
  ** Hessian has required structure
  Cycle:      9 Energy:      -186.343921  Gnorm:      0.000049  CPU:    0.017
  ** Hessian has required structure
  Cycle:     10 Energy:      -186.343921  Gnorm:      0.000036  CPU:    0.018
  ** Hessian has required structure
  Cycle:     11 Energy:      -186.343921  Gnorm:      0.000032  CPU:    0.020
  ** Hessian has required structure
  Cycle:     12 Energy:      -186.343921  Gnorm:      0.000000  CPU:    0.021
  ** Hessian has required structure
  Cycle:     13 Energy:      -186.343921  Gnorm:      0.000000  CPU:    0.023
  ** Hessian has required structure
  Cycle:     14 Energy:      -186.343921  Gnorm:      0.000000  CPU:    0.024
  ** Hessian has required structure
  Cycle:     15 Energy:      -186.343921  Gnorm:      0.000000  CPU:    0.026
  ** Hessian calculated **

  XYZ File written as 005/0/sp_mod_-50/sp_mod_-50_eig.xyz



  **** Optimisation achieved ****


  Final energy =    -186.34392138 eV
  Final Gnorm  =       0.00000011

  Components of energy : 

--------------------------------------------------------------------------------
  Interatomic potentials     =          37.30996674 eV    
  Monopole - monopole (real) =        -223.65388813 eV    
--------------------------------------------------------------------------------
  Total lattice energy       =        -186.34392138 eV    
--------------------------------------------------------------------------------
  Total lattice energy       =          -17979.3399 kJ/mol
--------------------------------------------------------------------------------

  Final cartesian coordinates of atoms :

--------------------------------------------------------------------------------
   No.  Atomic        x           y          z          Radius
        Label       (Angs)      (Angs)     (Angs)       (Angs) 
--------------------------------------------------------------------------------
     1  Al    c    -1.691444    2.561030   -1.237580    0.000000
     2  Al    c    -0.444284   -0.003708   -2.259829    0.000000
     3  Al    c    -2.298360   -0.336886   -0.594599    0.000000
     4  F     c    -0.826077    3.670202   -0.082729    0.000000
     5  F     c    -2.913426    3.198643   -2.426427    0.000000
     6  F     c    -1.373524   -1.673770   -1.727994    0.000000
     7  F     c    -2.635847    1.451289   -0.028341    0.000000
     8  F     c    -3.431360   -1.297493    0.443186    0.000000
     9  F     c     0.795894   -0.523069   -3.477412    0.000000
    10  F     c    -0.242159    1.889807   -2.248384    0.000000
    11  F     c    -2.380416    0.490746   -2.386319    0.000000
    12  F     c    -0.388529    0.140079   -0.307873    0.000000
    13  F     s    -0.953746    3.502256   -0.254109    0.000000
    14  F     s    -2.730171    3.100739   -2.248919    0.000000
    15  F     s    -1.374556   -1.409712   -1.675564    0.000000
    16  F     s    -2.492281    1.371213   -0.229439    0.000000
    17  F     s    -3.253038   -1.144576    0.277897    0.000000
    18  F     s     0.599770   -0.440003   -3.282861    0.000000
    19  F     s    -0.428114    1.748537   -2.136393    0.000000
    20  F     s    -2.192621    0.409892   -2.194003    0.000000
    21  F     s    -0.570242    0.097645   -0.517859    0.000000
--------------------------------------------------------------------------------


  Final Cartesian derivatives :

--------------------------------------------------------------------------------
   No.  Atomic          x             y             z           Radius
        Label       (eV/Angs)     (eV/Angs)    (eV/Angs)      (eV/Angs)
--------------------------------------------------------------------------------
      1 Al    c       0.000000      0.000000      0.000000      0.000000
      2 Al    c       0.000000      0.000000      0.000000      0.000000
      3 Al    c       0.000000      0.000000      0.000000      0.000000
      4 F     c       0.000000      0.000000      0.000000      0.000000
      5 F     c       0.000000      0.000000      0.000000      0.000000
      6 F     c       0.000000      0.000000      0.000000      0.000000
      7 F     c       0.000000      0.000000      0.000000      0.000000
      8 F     c       0.000000      0.000000      0.000000      0.000000
      9 F     c       0.000000      0.000000      0.000000      0.000000
     10 F     c       0.000000      0.000000      0.000000      0.000000
     11 F     c       0.000000      0.000000      0.000000      0.000000
     12 F     c       0.000000      0.000000      0.000000      0.000000
     13 F     s      -0.000000     -0.000000     -0.000000      0.000000
     14 F     s       0.000000     -0.000000      0.000000      0.000000
     15 F     s       0.000000     -0.000000      0.000000      0.000000
     16 F     s       0.000001     -0.000000     -0.000001      0.000000
     17 F     s       0.000001      0.000001     -0.000001      0.000000
     18 F     s      -0.000001      0.000001      0.000001      0.000000
     19 F     s      -0.000001     -0.000001      0.000000      0.000000
     20 F     s       0.000000      0.000000      0.000000      0.000000
     21 F     s      -0.000000     -0.000000     -0.000000      0.000000
--------------------------------------------------------------------------------
  Maximum abs         0.000001      0.000001      0.000001      0.000000
--------------------------------------------------------------------------------


  Born effective charge tensors : 

-------------------------------------------------------------------------------
  Atom             x           y             z
-------------------------------------------------------------------------------
    1 Al    x       0.8497     -0.0523     -0.4543
            y      -0.0314      1.5645      0.0110
            z      -0.4570     -0.0061      0.7916
-------------------------------------------------------------------------------
    2 Al    x       1.0878      0.0953      0.1932
            y       0.0832      1.2794     -0.1435
            z       0.1814     -0.1443      0.9470
-------------------------------------------------------------------------------
    3 Al    x       1.0859     -0.1930      0.1257
            y      -0.1969      1.1479      0.1627
            z       0.1402      0.1748      1.0913
-------------------------------------------------------------------------------
    4 F     x      -0.3900      0.1479      0.1738
            y       0.1795     -0.3825      0.2235
            z       0.1811      0.1893     -0.2941
-------------------------------------------------------------------------------
    5 F     x      -0.2700     -0.0885      0.2555
            y      -0.1378     -0.5433     -0.1504
            z       0.2477     -0.1006     -0.2813
-------------------------------------------------------------------------------
    6 F     x      -0.3782     -0.0132      0.0620
            y       0.0100     -0.4350      0.0178
            z       0.0790     -0.0097     -0.3610
-------------------------------------------------------------------------------
    7 F     x      -0.3131      0.0209      0.0420
            y       0.0205     -0.4187     -0.0226
            z       0.0440     -0.0040     -0.3224
-------------------------------------------------------------------------------
    8 F     x      -0.3035      0.2027     -0.2201
            y       0.2064     -0.3791     -0.1874
            z      -0.2211     -0.1796     -0.3422
-------------------------------------------------------------------------------
    9 F     x      -0.2578     -0.1113     -0.2829
            y      -0.1180     -0.5003      0.1213
            z      -0.2776      0.1160     -0.2667
-------------------------------------------------------------------------------
   10 F     x      -0.3246     -0.0018      0.0395
            y      -0.0098     -0.4223      0.0100
            z       0.0317      0.0017     -0.2972
-------------------------------------------------------------------------------
   11 F     x      -0.3883     -0.0303      0.0332
            y      -0.0084     -0.4893     -0.0497
            z       0.0318     -0.0626     -0.3479
-------------------------------------------------------------------------------
   12 F     x      -0.3978      0.0238      0.0325
            y       0.0027     -0.4212      0.0074
            z       0.0187      0.0250     -0.3172
-------------------------------------------------------------------------------




  Moment of inertia tensor (10^-46 x kgm^2): 

-------------------------------------------------------------------------------
                x           y           z           Principal axis system
-------------------------------------------------------------------------------
       x        166.98        3.09       27.86          113.888008
       y          3.09      114.38       -2.07          141.915487
       z         27.86       -2.07      171.79          197.348055
-------------------------------------------------------------------------------
  Centre of mass (Ang) =    -1.485057     0.791814    -1.361459
-------------------------------------------------------------------------------


  Vibrational Frequency Calculation : 

--------------------------------------------------------------------------------

  Frequencies (cm-1) and Eigenvectors : 

  Frequency      -0.0000   -0.0000    0.0000   17.0157   20.9370   27.0297
  IR Intensity    0.0000    0.0000    0.0000    0.0003    0.0002    0.0000
     in X         0.0000    0.0000    0.0000    0.0000    0.0002    0.0000
     in Y         0.0000    0.0000    0.0000    0.0000    0.0000    0.0000
     in Z         0.0000    0.0000    0.0000    0.0003    0.0000    0.0000
  Raman Intsty    0.0000    0.0000    0.0000    0.0002    0.0042    0.0008

     1 x       0.303958  0.110965  0.048840  0.057994  0.287243  0.009576
     1 y       0.109912 -0.307850  0.015391 -0.012878  0.035533 -0.000060
     1 z      -0.051165 -0.002109  0.323213  0.297574 -0.003279 -0.007280
     2 x       0.303958  0.110965  0.048840 -0.042075 -0.143346  0.159897
     2 y       0.109912 -0.307850  0.015391  0.116475 -0.168234 -0.002056
     2 z      -0.051165 -0.002109  0.323213 -0.151797 -0.012720  0.185639
     3 x       0.303958  0.110965  0.048840 -0.019496 -0.167577 -0.168746
     3 y       0.109912 -0.307850  0.015391 -0.101806  0.129959  0.001226
     3 z      -0.051165 -0.002109  0.323213 -0.171158  0.018880 -0.176232
     4 x       0.255076  0.093119  0.040986  0.091927  0.408796 -0.162704
     4 y       0.092236 -0.258342  0.012916 -0.186633 -0.083789 -0.030658
     4 z      -0.042936 -0.001769  0.271234  0.386350 -0.019307  0.151335
     5 x       0.255076  0.093119  0.040986  0.044667  0.311315  0.208441
     5 y       0.092236 -0.258342  0.012916  0.177220  0.185853  0.037704
     5 z      -0.042936 -0.001769  0.271234  0.354857  0.008971 -0.191745
     6 x       0.255076  0.093119  0.040986 -0.070742 -0.326607  0.019552
     6 y       0.092236 -0.258342  0.012916  0.047364 -0.019700  0.005445
     6 z      -0.042936 -0.001769  0.271234 -0.343813  0.020247 -0.022632
     7 x       0.255076  0.093119  0.040986  0.043293  0.105064 -0.204432
     7 y       0.092236 -0.258342  0.012916 -0.154774  0.158688 -0.002820
     7 z      -0.042936 -0.001769  0.271234  0.112884  0.007801 -0.173665
     8 x       0.255076  0.093119  0.040986 -0.028922 -0.261205 -0.340807
     8 y       0.092236 -0.258342  0.012916 -0.196562  0.272670  0.001397
     8 z      -0.042936 -0.001769  0.271234 -0.260370  0.035771 -0.365298
     9 x       0.255076  0.093119  0.040986 -0.070253 -0.209772  0.331921
     9 y       0.092236 -0.258342  0.012916  0.232152 -0.316208 -0.003878
     9 z      -0.042936 -0.001769  0.271234 -0.220406 -0.027025  0.358362
    10 x       0.255076  0.093119  0.040986  0.016743  0.132443  0.164527
    10 y       0.092236 -0.258342  0.012916  0.090630 -0.168698 -0.005120
    10 z      -0.042936 -0.001769  0.271234  0.136812 -0.026625  0.220968
    11 x       0.255076  0.093119  0.040986 -0.023738 -0.056318  0.163680
    11 y       0.092236 -0.258342  0.012916  0.165341  0.104142  0.033858
    11 z      -0.042936 -0.001769  0.271234 -0.027602  0.009561 -0.146763
    12 x       0.255076  0.093119  0.040986  0.001287 -0.075498 -0.181044
    12 y       0.092236 -0.258342  0.012916 -0.176874 -0.129689 -0.034868
    12 z      -0.042936 -0.001769  0.271234 -0.108467 -0.012827  0.166905


  Frequency      68.3741   95.7214   99.5002  136.1195  158.0262  175.5949
  IR Intensity    0.0012    0.0001    0.0232    0.0041    0.0157    0.0075
     in X         0.0005    0.0001    0.0112    0.0019    0.0066    0.0000
     in Y         0.0003    0.0000    0.0000    0.0003    0.0003    0.0074
     in Z         0.0004    0.0000    0.0120    0.0019    0.0088    0.0000
  Raman Intsty    0.1173    0.0004    0.3874    2.8616    0.0023    0.3475

     1 x       0.029343  0.015188 -0.077858 -0.084835  0.020153 -0.099499
     1 y      -0.028527  0.008182 -0.050864 -0.251913  0.009442 -0.150879
     1 z       0.033396 -0.007438 -0.092769 -0.144723 -0.007695 -0.131497
     2 x      -0.013262 -0.014646 -0.048671  0.136144 -0.064389  0.051920
     2 y       0.026991  0.006651  0.019056  0.122002 -0.136856 -0.005629
     2 z      -0.032508  0.008287 -0.063613  0.082733  0.108818  0.024002
     3 x      -0.036510 -0.010413 -0.075884  0.039593 -0.121969  0.048324
     3 y       0.017562 -0.014236  0.034741  0.112396  0.093659 -0.011632
     3 z      -0.020171 -0.001279 -0.048680  0.156467  0.084190  0.099122
     4 x       0.264206 -0.280735  0.028036 -0.024641  0.353251  0.100564
     4 y      -0.405670 -0.054398 -0.164280 -0.303935  0.082407 -0.458680
     4 z       0.212801  0.272541 -0.030958 -0.079643 -0.329046  0.051607
     5 x       0.063532  0.366026 -0.027870 -0.049215  0.158158 -0.046346
     5 y       0.246453  0.072331  0.151587 -0.126353  0.032113 -0.174719
     5 z       0.135840 -0.334130 -0.012594 -0.099180 -0.137879 -0.183112
     6 x       0.241381 -0.015918 -0.307936 -0.051517  0.051339 -0.045367
     6 y      -0.015203 -0.011599  0.097613  0.221091  0.003848  0.010922
     6 z       0.249672  0.019347 -0.328573 -0.011636 -0.030453 -0.050090
     7 x      -0.302148 -0.237228 -0.092307 -0.128968 -0.125491 -0.023616
     7 y       0.005097  0.003307  0.015470  0.040052  0.139817 -0.016885
     7 z      -0.189629 -0.205643 -0.012556  0.202439  0.055155  0.041066
     8 x       0.060897  0.304889  0.407326 -0.023948  0.147734 -0.242077
     8 y      -0.055749 -0.025851 -0.102346 -0.245776 -0.428478  0.429183
     8 z       0.019715  0.330580  0.351921 -0.240876 -0.131775  0.188936
     9 x       0.048513 -0.306515  0.358874 -0.209848  0.022500  0.142778
     9 y      -0.041996  0.034347 -0.102931 -0.268742  0.455041  0.530841
     9 z       0.059404 -0.303721  0.403931 -0.107114 -0.078829 -0.114118
    10 x      -0.181416  0.175940 -0.019816  0.198150 -0.033934 -0.002318
    10 y       0.033393 -0.008646  0.006773  0.093333 -0.174222 -0.015024
    10 z      -0.317939  0.242842 -0.084022 -0.097268  0.109994 -0.067316
    11 x      -0.061206  0.061234 -0.048239  0.138467 -0.165759  0.036485
    11 y      -0.193335 -0.000968  0.232290  0.396595 -0.041044  0.028881
    11 z      -0.104784 -0.062073  0.017879  0.234636  0.137028  0.108717
    12 x      -0.109416 -0.055931 -0.056866  0.043197 -0.209742  0.079008
    12 y       0.407912 -0.009232 -0.137670  0.214607 -0.029259 -0.134158
    12 z      -0.042104  0.040769 -0.060668  0.086060  0.184978  0.034288


  Frequency     176.2080  189.0252  221.8079  236.9467  246.0321  259.4061
  IR Intensity    0.0019    0.0063    0.0102    0.0009    0.1089    0.0027
     in X         0.0009    0.0019    0.0053    0.0004    0.0024    0.0010
     in Y         0.0000    0.0033    0.0001    0.0003    0.1063    0.0001
     in Z         0.0010    0.0011    0.0048    0.0002    0.0003    0.0017
  Raman Intsty    0.0057    0.0021    0.0000    0.0009    0.4416    0.0025

     1 x      -0.001401 -0.213784  0.262430 -0.001959  0.118600 -0.183492
     1 y      -0.015480  0.053610  0.045839 -0.016467 -0.410272 -0.023819
     1 z      -0.026148 -0.215510 -0.250988  0.009422  0.064999  0.079269
     2 x       0.200567  0.134177  0.001547  0.247505  0.057170  0.191788
     2 y       0.016872 -0.065123 -0.331004  0.057049 -0.126157 -0.235525
     2 z       0.162771  0.154014  0.039407  0.329309 -0.096723 -0.067586
     3 x      -0.134519  0.157610 -0.100516 -0.309247 -0.057299  0.036678
     3 y      -0.008211 -0.069544  0.309051 -0.074801 -0.119706  0.280234
     3 z      -0.204298  0.127581  0.056153 -0.287213  0.018401 -0.146810
     4 x       0.262181 -0.106855 -0.318923 -0.060199 -0.291086 -0.059001
     4 y      -0.007532 -0.079234 -0.061776 -0.000143  0.246109 -0.087286
     4 z      -0.226787 -0.131927  0.288467  0.037276 -0.264598  0.048759
     5 x      -0.402333 -0.076752 -0.240202  0.123343  0.228960 -0.037201
     5 y      -0.088455  0.712493 -0.034277  0.026182  0.231740  0.052049
     5 z       0.348544  0.046780  0.222985 -0.096710  0.296286 -0.029003
     6 x       0.004103  0.034381 -0.187536  0.035079  0.004095  0.290071
     6 y       0.001800 -0.053325 -0.032027  0.015828 -0.040142  0.061316
     6 z      -0.011701  0.020475  0.166717 -0.026897 -0.029255 -0.247357
     7 x      -0.228233  0.010397  0.129820  0.397009 -0.184741 -0.053873
     7 y      -0.027452 -0.017475  0.255071 -0.088130 -0.145021  0.180287
     7 z      -0.224988 -0.129503 -0.050583  0.231823  0.133207  0.350975
     8 x       0.093833 -0.066511  0.126425  0.055989 -0.140644  0.138371
     8 y       0.126287 -0.030619 -0.138647 -0.038597  0.115255  0.284580
     8 z       0.177422 -0.083753 -0.110083  0.145271  0.157026 -0.070426
     9 x      -0.126591 -0.080382  0.090377 -0.140892  0.156744  0.118180
     9 y      -0.023831 -0.037708  0.189621  0.040165  0.138783 -0.238737
     9 z      -0.148507 -0.074833 -0.092338 -0.060615 -0.120874 -0.173495
    10 x       0.206513 -0.130193  0.110976 -0.215784  0.157632 -0.203550
    10 y       0.022037 -0.042044 -0.220207  0.089806 -0.109214 -0.288614
    10 z       0.236619 -0.006084 -0.158623 -0.388875 -0.152875  0.249349
    11 x       0.260160  0.117057  0.087687  0.115103  0.051606 -0.131091
    11 y       0.049300 -0.042152  0.013577  0.028281  0.104552 -0.063674
    11 z      -0.218184  0.121334 -0.080539 -0.124770  0.097358 -0.009682
    12 x      -0.146668  0.205907  0.006591 -0.233740 -0.123740 -0.115498
    12 y      -0.044027 -0.313347  0.000202 -0.032616  0.239813  0.075184
    12 z       0.148226  0.158760 -0.000790  0.222106 -0.100400  0.041903


  Frequency     263.9216  310.6438  321.8850  346.9889  381.0955  394.4812
  IR Intensity    0.0141    0.0045    0.0274    0.0036    0.0028    0.0020
     in X         0.0067    0.0042    0.0117    0.0002    0.0004    0.0000
     in Y         0.0012    0.0000    0.0001    0.0027    0.0023    0.0016
     in Z         0.0062    0.0002    0.0156    0.0006    0.0001    0.0004
  Raman Intsty    0.0085    0.0012    0.1705    0.0241    0.3393    1.3444

     1 x      -0.112356  0.190083  0.000342  0.038434 -0.059051  0.020662
     1 y      -0.064108  0.040170 -0.049102 -0.186480  0.108538 -0.159780
     1 z      -0.213923 -0.162885 -0.044005  0.005109  0.001819  0.024660
     2 x      -0.114846 -0.072244 -0.143596  0.050686 -0.147540 -0.337192
     2 y       0.069426  0.070888  0.053634  0.191164  0.006470  0.019402
     2 z      -0.047133  0.027971 -0.172777  0.007802 -0.262763 -0.084232
     3 x      -0.062668  0.042561 -0.171478 -0.053397  0.146701  0.329486
     3 y      -0.081614 -0.099086  0.044785  0.178357 -0.021958  0.051276
     3 z      -0.022079  0.103889 -0.144497  0.062670  0.260280  0.115655
     4 x      -0.022968 -0.095286 -0.041708 -0.082135  0.046414 -0.069236
     4 y      -0.246834 -0.006224 -0.051234 -0.029134  0.015403 -0.044404
     4 z      -0.106728  0.098942 -0.032773 -0.095670  0.048548 -0.090196
     5 x      -0.101279 -0.101922 -0.020585  0.093838 -0.065212  0.097173
     5 y       0.250070 -0.029079  0.023713  0.007012  0.052434 -0.036059
     5 z      -0.054834  0.102824  0.004616  0.102027 -0.075520  0.084843
     6 x      -0.023122  0.369042  0.494063 -0.047010  0.034366  0.043304
     6 y      -0.012380  0.077657 -0.046262  0.296627 -0.230397  0.066257
     6 z       0.119426 -0.431703  0.437830  0.015088 -0.076758 -0.018009
     7 x       0.461373  0.128622 -0.010850 -0.193492 -0.034730  0.064364
     7 y      -0.095989  0.080505  0.036358  0.141203  0.197508 -0.157760
     7 z       0.170122 -0.270459  0.070574  0.260966  0.250095 -0.022734
     8 x      -0.013702 -0.097997  0.037675  0.026789 -0.062804  0.149313
     8 y      -0.068439  0.041563  0.004413 -0.005524 -0.061053  0.159674
     8 z       0.056204  0.079482  0.044731 -0.030690  0.041825 -0.152765
     9 x      -0.000538 -0.094137  0.040437 -0.030903  0.074778 -0.183314
     9 y       0.064212 -0.069957 -0.017176 -0.015119 -0.052190  0.092859
     9 z       0.080619  0.066258  0.040158  0.022444 -0.059526  0.195499
    10 x       0.325945  0.264492  0.111802  0.244489  0.053787 -0.117600
    10 y       0.017479 -0.001394  0.034223  0.224362  0.215820 -0.192264
    10 z       0.389554 -0.139693 -0.016686 -0.133950 -0.087013 -0.050255
    11 x      -0.142978 -0.304374 -0.141738 -0.188720  0.518649  0.055126
    11 y      -0.138857 -0.096341  0.408818 -0.509583 -0.134103  0.209728
    11 z      -0.192804  0.287491  0.016198 -0.281170 -0.038218 -0.455867
    12 x      -0.137311 -0.259579 -0.094048  0.134575 -0.493880 -0.054568
    12 y       0.321653 -0.010995 -0.451622 -0.327964 -0.114303  0.008145
    12 z      -0.124165  0.243830 -0.134132  0.050890 -0.002643  0.442653


  Frequency     417.7049  434.2914  478.6696  496.6015  547.4434  551.2323
  IR Intensity    0.0003    0.0247    0.0017    0.0123    0.0311    0.0790
     in X         0.0000    0.0187    0.0001    0.0008    0.0307    0.0247
     in Y         0.0000    0.0003    0.0016    0.0114    0.0001    0.0004
     in Z         0.0003    0.0057    0.0000    0.0002    0.0003    0.0539
  Raman Intsty    0.0589    0.0059    6.6809    1.9884    0.0002    0.0000

     1 x      -0.013823 -0.077494  0.052042  0.017613 -0.029777 -0.019506
     1 y       0.004823 -0.020922 -0.256772 -0.102041 -0.003258 -0.005808
     1 z      -0.016693  0.078099  0.007788  0.008882  0.024826  0.024269
     2 x      -0.067037  0.153662 -0.014496  0.063013  0.243481 -0.249001
     2 y      -0.041709  0.046587  0.107783 -0.033399  0.398910  0.217943
     2 z       0.203533 -0.136614  0.047819 -0.052863  0.089063 -0.346834
     3 x       0.082478  0.203435 -0.021057 -0.013576  0.280226 -0.217628
     3 y       0.018298  0.010144  0.111903 -0.060770 -0.372421 -0.155741
     3 z      -0.231057 -0.079955 -0.042348  0.086925 -0.028441 -0.378234
     4 x      -0.011401 -0.003767 -0.166840 -0.058941 -0.015644 -0.038478
     4 y      -0.018096  0.002103 -0.200854 -0.087544  0.016832 -0.041623
     4 z      -0.012946  0.002427 -0.218624 -0.080925  0.047653 -0.021875
     5 x      -0.024200  0.004376  0.237409  0.108626 -0.024995 -0.020197
     5 y       0.038996 -0.009732 -0.115169 -0.069471 -0.012366  0.016997
     5 z      -0.014881  0.010630  0.234225  0.103510  0.023665  0.005292
     6 x      -0.030975 -0.343209  0.002887 -0.002175 -0.133957 -0.042259
     6 y      -0.645456 -0.029800  0.005337 -0.329051 -0.031962  0.023555
     6 z      -0.102575  0.312776  0.004042 -0.070412  0.101699  0.079236
     7 x      -0.172231  0.089065  0.198809  0.076814 -0.045273  0.014242
     7 y       0.089592 -0.166853  0.260945  0.393835  0.434800  0.226489
     7 z       0.211562 -0.145452 -0.268897 -0.090294  0.051580  0.059816
     8 x       0.226870  0.222106  0.152881 -0.197752 -0.032154  0.024857
     8 y       0.196271  0.171071  0.101493 -0.181254 -0.035219 -0.007248
     8 z      -0.200467 -0.215455 -0.138721  0.174252  0.006635  0.018335
     9 x      -0.219918  0.252538 -0.167894  0.210275 -0.052386  0.064221
     9 y       0.102961 -0.087449  0.046946 -0.102693  0.035337 -0.011742
     9 z       0.210498 -0.249186  0.162085 -0.209425  0.032408 -0.016104
    10 x       0.235915  0.069539 -0.316917 -0.169639  0.016398  0.048020
    10 y       0.176971  0.181868  0.147376  0.339875 -0.464270 -0.199625
    10 z      -0.115754 -0.040350  0.218093  0.126233 -0.066697  0.000940
    11 x      -0.124834 -0.281243  0.192551 -0.234260 -0.133432  0.245473
    11 y       0.009316 -0.037372 -0.134996  0.195744  0.075797 -0.167251
    11 z       0.093827  0.220110  0.240554 -0.273656 -0.127173  0.284692
    12 x       0.118845 -0.342591 -0.152535  0.187153 -0.167142  0.283417
    12 y       0.071596 -0.066508 -0.066884  0.074371 -0.046632  0.093246
    12 z      -0.016574  0.269505 -0.248555  0.269542 -0.171593  0.424767


  Frequency     596.0354  638.7499  684.8286  786.1676  794.7051  910.0140
  IR Intensity    0.0993    0.1595    0.0111    0.0229    0.0048    0.0001
     in X         0.0514    0.0011    0.0003    0.0122    0.0015    0.0000
     in Y         0.0026    0.1559    0.0108    0.0005    0.0006    0.0001
     in Z         0.0453    0.0025    0.0000    0.0102    0.0028    0.0000
  Raman Intsty    0.0001    0.0036    0.5192    0.0000    0.0571    2.6883

     1 x      -0.544331 -0.035255 -0.127133 -0.006583  0.491529 -0.001427
     1 y      -0.106260  0.134073  0.647341 -0.002305  0.079718  0.124809
     1 z       0.506518  0.007600  0.003588  0.038990  0.542416  0.023383
     2 x      -0.039055  0.096595 -0.049657  0.348880 -0.007640  0.437738
     2 y      -0.164676  0.514670 -0.171507 -0.159672  0.012538 -0.086599
     2 z       0.035681 -0.046754  0.061159 -0.369343  0.042154 -0.434549
     3 x      -0.061202 -0.156717  0.093858  0.322026  0.016963 -0.415700
     3 y       0.130569  0.474441 -0.142117  0.293600  0.001733 -0.248935
     3 z       0.062554  0.184272 -0.077577 -0.306777  0.015659  0.392459
     4 x       0.026509 -0.070628 -0.218681 -0.012128 -0.227482 -0.017504
     4 y       0.010335 -0.083732 -0.317284 -0.009843 -0.271913 -0.023689
     4 z      -0.013686 -0.093736 -0.299583 -0.005903 -0.299893 -0.023531
     5 x       0.013863  0.096396  0.297713 -0.014023 -0.328110  0.005764
     5 y       0.008305 -0.054828 -0.173124  0.004892  0.160231 -0.008117
     5 z      -0.028248  0.091999  0.285817 -0.008545 -0.321488  0.004452
     6 x       0.040759  0.005659 -0.004698 -0.060914 -0.008194  0.000261
     6 y       0.013491 -0.394766  0.119316 -0.010967  0.007408 -0.043829
     6 z      -0.034913 -0.078343  0.020321  0.058233 -0.010953 -0.010124
     7 x       0.230599  0.033515 -0.071773 -0.000516 -0.009479  0.004668
     7 y       0.194762 -0.292207 -0.033299 -0.039306  0.005096  0.006482
     7 z      -0.296842 -0.057160  0.100994 -0.005584 -0.020513 -0.001908
     8 x       0.002274 -0.068459 -0.032433 -0.281547 -0.002050  0.190793
     8 y      -0.020420 -0.081598 -0.022900 -0.235512 -0.003489  0.162126
     8 z      -0.003254  0.061139  0.028166  0.258512 -0.000475 -0.175112
     9 x      -0.006532  0.079976  0.030709 -0.305877  0.019275 -0.207450
     9 y       0.023956 -0.055127 -0.009446  0.124782 -0.010825  0.087155
     9 z       0.006565 -0.080526 -0.031812  0.300400 -0.021395  0.204430
    10 x       0.344812  0.013782  0.115088 -0.002668 -0.021073 -0.001628
    10 y      -0.084970 -0.303706 -0.002212  0.038180  0.000731  0.004358
    10 z      -0.237299 -0.028442 -0.072668  0.007975 -0.010029  0.006484
    11 x       0.056499  0.007909 -0.001395 -0.052751 -0.010589 -0.049096
    11 y       0.011605 -0.042462  0.025766 -0.018668  0.005091  0.043325
    11 z      -0.052219  0.000625  0.002863  0.070291 -0.013750 -0.062653
    12 x       0.059332  0.015505 -0.015703 -0.061208 -0.009132  0.049631
    12 y       0.010203 -0.030002  0.015512 -0.010405 -0.004332  0.023297
    12 z      -0.060751  0.011518 -0.018809  0.083850 -0.016759  0.080253




--------------------------------------------------------------------------------
  Vibrational properties (for cluster):  Temperature  =       0.000 K
--------------------------------------------------------------------------------
  Zero point energy            =        0.707844 eV
--------------------------------------------------------------------------------

  Phonon density of states : 

--------------------------------------------------------------------------------
 Frequency (cm-1) Density of States                                             
--------------------------------------------------------------------------------
    0.00000 |********************                                          0.029
   14.21897 |************************************************************  0.088
   28.43794 |                                                              0.000
   42.65691 |                                                              0.000
   56.87588 |********************                                          0.029
   71.09485 |                                                              0.000
   85.31382 |****************************************                      0.059
   99.53279 |                                                              0.000
  113.75176 |                                                              0.000
  127.97073 |********************                                          0.029
  142.18970 |                                                              0.000
  156.40867 |********************                                          0.029
  170.62764 |****************************************                      0.059
  184.84661 |********************                                          0.029
  199.06558 |                                                              0.000
  213.28455 |********************                                          0.029
  227.50352 |********************                                          0.029
  241.72249 |********************                                          0.029
  255.94146 |****************************************                      0.059
  270.16043 |                                                              0.000
  284.37940 |                                                              0.000
  298.59837 |********************                                          0.029
  312.81734 |********************                                          0.029
  327.03631 |                                                              0.000
  341.25528 |********************                                          0.029
  355.47425 |                                                              0.000
  369.69322 |********************                                          0.029
  383.91218 |********************                                          0.029
  398.13115 |                                                              0.000
  412.35012 |********************                                          0.029
  426.56909 |********************                                          0.029
  440.78806 |                                                              0.000
  455.00703 |                                                              0.000
  469.22600 |********************                                          0.029
  483.44497 |********************                                          0.029
  497.66394 |                                                              0.000
  511.88291 |                                                              0.000
  526.10188 |                                                              0.000
  540.32085 |****************************************                      0.059
  554.53982 |                                                              0.000
  568.75879 |                                                              0.000
  582.97776 |********************                                          0.029
  597.19673 |                                                              0.000
  611.41570 |                                                              0.000
  625.63467 |********************                                          0.029
  639.85364 |                                                              0.000
  654.07261 |                                                              0.000
  668.29158 |                                                              0.000
  682.51055 |********************                                          0.029
  696.72952 |                                                              0.000
  710.94849 |                                                              0.000
  725.16746 |                                                              0.000
  739.38643 |                                                              0.000
  753.60540 |                                                              0.000
  767.82437 |                                                              0.000
  782.04334 |****************************************                      0.059
  796.26231 |                                                              0.000
  810.48128 |                                                              0.000
  824.70025 |                                                              0.000
  838.91922 |                                                              0.000
  853.13819 |                                                              0.000
  867.35716 |                                                              0.000
  881.57613 |                                                              0.000
  895.79510 |********************                                          0.029
--------------------------------------------------------------------------------



  Time to end of optimisation =       0.0357 seconds


  Peak dynamic memory used =       0.65 MB 


  Timing analysis for GULP :

--------------------------------------------------------------------------------
  Task / Subroutine                                          Time (Seconds)
--------------------------------------------------------------------------------
  Calculation of real space energy and derivatives                0.0024
  Calculation of phonons                                          0.0016
  Calculation and manipulation of Hessian matrix                  0.0016
--------------------------------------------------------------------------------
  Total CPU time                                                  0.0358
--------------------------------------------------------------------------------


  Job Finished at 14:39.59 25th May        2022                               

