12
Properties=species:S:1:pos:R:3:forces:R:3 energy=-187.27329192 pbc="F F F"
Al    1.73017468    0.016142317000000017    2.3258850730000002    1.48678    1.096264    0.379577
Al    1.200457    1.288896    -0.142861    -0.025098    0.134425    -0.231976
Al    -0.645247562    0.7253052499999999    -2.167331773    -1.260812    -1.351999    0.527189
F    -1.833620172    -0.559535453    -1.878688606    0.600264    0.605526    -0.159133
F    2.4785372530000003    -0.089061953    0.5886714519999999    0.007717    -0.178459    0.080172
F    -0.41001986100000004    1.64211329    -3.767306333    0.173773    0.513759    -0.768247
F    -0.52796981    1.925623753    -0.708988049    0.069986    0.168113    0.105525
F    2.3137985569999997    2.7055445120000003    -0.46758844299999996    0.149422    0.141917    -0.024865
F    1.104410239    0.062930405    -1.6097962540000001    0.222894    0.006619    0.039635
F    0.38703611699999996    1.305234429    1.624594039    -0.129852    -0.005447    0.087919
F    2.683596969    0.999300076    3.576282437    -0.489888    -0.276675    -0.34391
F    0.690147675    -1.5128083520000002    2.745944071    -0.805184    -0.854045    0.308114
