********************************************************************************
*                       GENERAL UTILITY LATTICE PROGRAM                        *
*                                 Julian Gale                                  *
*                       Curtin Institute for Computation                       *
*                           Department of Chemistry                            *
*                    Curtin University, Western Australia                      *
********************************************************************************
* Version = 5.1.1 * Last modified =  24th November 2018                        *
********************************************************************************
*  optimise     - perform optimisation run                                     *
*  conp         - constant pressure calculation                                *
*  shell        - only shells and radii to be optimised                        *
*  phonon       - calculate phonons for final geometry                         *
*  eigenvectors - output phonon eigenvectors                                   *
********************************************************************************

  Job Started  at 11:00.02 24th May        2022                               

  Number of CPUs =     1

  Host name      = login03                                 


  Total number of configurations input =      1

********************************************************************************
*  Input for Configuration =   1                                               *
********************************************************************************

  Formula = Al3F9                                                       

  Number of irreducible atoms/shells =      21


  Total number atoms/shells =      21

  Dimensionality = 0               :  Cluster


  Charge on cluster =  -0.000000


  Initial cluster dipoles : x =     -0.204328 e.Angs
                            y =     -0.214463 e.Angs
                            z =      0.071864 e.Angs

  Temperature of configuration =  0.000     K 

  Symmetry number =      1

  Cartesian coordinates of cluster :

--------------------------------------------------------------------------------
   No.  Atomic       x           y          z         Charge      Occupancy
        Label      (Angs)      (Angs)     (Angs)        (e)         (Frac)  
--------------------------------------------------------------------------------
      1 Al    c      1.5313      0.2570      2.4470     3.00000    1.000000    
      2 Al    c      1.2413      1.2116     -0.1630     3.00000    1.000000    
      3 Al    c     -0.5289      0.6032     -2.2378     3.00000    1.000000    
      4 F     c     -1.7815     -0.6232     -1.9752     0.59000    1.000000    
      5 F     c      2.1681     -0.2441      0.7264     0.59000    1.000000    
      6 F     c     -0.2809      1.5522     -3.8143     0.59000    1.000000    
      7 F     c     -0.4742      1.8311     -0.7621     0.59000    1.000000    
      8 F     c      2.4820      2.4877     -0.5588     0.59000    1.000000    
      9 F     c      1.1754     -0.0358     -1.6211     0.59000    1.000000    
     10 F     c      0.5184      1.6227      1.5854     0.59000    1.000000    
     11 F     c      2.8125      0.9028      3.5015     0.59000    1.000000    
     12 F     c      0.3158     -1.0635      2.9848     0.59000    1.000000    
     13 F     s     -1.7815 *   -0.6232 *   -1.9752 *  -1.59000    1.000000    
     14 F     s      2.1681 *   -0.2441 *    0.7264 *  -1.59000    1.000000    
     15 F     s     -0.2809 *    1.5522 *   -3.8143 *  -1.59000    1.000000    
     16 F     s     -0.4742 *    1.8311 *   -0.7621 *  -1.59000    1.000000    
     17 F     s      2.4820 *    2.4877 *   -0.5588 *  -1.59000    1.000000    
     18 F     s      1.1754 *   -0.0358 *   -1.6211 *  -1.59000    1.000000    
     19 F     s      0.5184 *    1.6227 *    1.5854 *  -1.59000    1.000000    
     20 F     s      2.8125 *    0.9028 *    3.5015 *  -1.59000    1.000000    
     21 F     s      0.3158 *   -1.0635 *    2.9848 *  -1.59000    1.000000    
--------------------------------------------------------------------------------


  Brillouin zone sampling points :

--------------------------------------------------------------------------------
  Point number          x          y          z            Weight
--------------------------------------------------------------------------------
        1           0.000000   0.000000   0.000000     1.00000000
--------------------------------------------------------------------------------


********************************************************************************
*  General input information                                                   *
********************************************************************************

  Species output for all configurations : 

--------------------------------------------------------------------------------
  Species    Type    Atomic    Atomic    Charge       Radii (Angs)     Library
                     Number     Mass       (e)     Cova   Ionic  VDW   Symbol
--------------------------------------------------------------------------------
    Al       Core       13      26.98   3.000000   1.350  0.000  2.050          
    F        Core        9      19.00   0.590000   0.710  0.000  1.300          
    F        Shell       9       0.00  -1.590000   0.710  0.000  1.300          
--------------------------------------------------------------------------------


  Accuracy factor for short range sums = 12.000

  Time limit = Infinity

  Maximum range for interatomic potentials =    100000.000000 Angstroms

  General interatomic potentials :

--------------------------------------------------------------------------------
Atom  Types   Potential      Parameter       Value         Units   Cutoffs(Ang)
  1     2                                                            Min /  Max 
--------------------------------------------------------------------------------
Al   c F    s Buckingham    Buckingham A     3760.0008    eV        0.000 10.000
                            Buckingham rho  0.22200000    Ang       
                            Buckingham C     0.0000000    eV*Ang^6  
--------------------------------------------------------------------------------
F    s F    s Buck 4 range  Buck4 A          1127.7000    eV        0.000 12.000
                            Buck4 rho       0.27530000    Ang       
                            Buck4 C          15.830000    eV*Ang^6  
                            Buck4 minimum    2.7900000    Ang       
--------------------------------------------------------------------------------
F    c F    s Spring (c-s)  Spring k 2       20.770000    eV*Ang^-2 0.000  0.800
                            Spring k 4       0.0000000    eV*Ang^-4 
--------------------------------------------------------------------------------

********************************************************************************
*  Output for configuration   1                                                *
********************************************************************************


  Components of energy : 

--------------------------------------------------------------------------------
  Interatomic potentials     =          10.20542900 eV    
  Monopole - monopole (real) =        -178.28356367 eV    
--------------------------------------------------------------------------------
  Total lattice energy       =        -168.07813467 eV    
--------------------------------------------------------------------------------
  Total lattice energy       =          -16216.9707 kJ/mol
--------------------------------------------------------------------------------


  Number of variables =       27

  Maximum number of calculations  =          2000
  Maximum Hessian update interval =            10
  Maximum step size               =   1.000000000
  Maximum parameter tolerance     =   0.000001000
  Maximum function  tolerance     =   0.000010000
  Maximum gradient  tolerance     =   0.000000010
  Maximum gradient  component     =   0.010000000

  Symmetry not applied to optimisation

  Newton-Raphson optimiser to be used

  BFGS hessian update to be used

  Lower half triangular hessian to be used

  Minimiser to switch to RFO
  When gradient norm is less than     0.010000

  Shell only optimisation

  Start of cluster optimisation :

  Cycle:      0 Energy:      -168.078135  Gnorm:      1.489075  CPU:    0.004
  ** Hessian calculated **
  Cycle:      1 Energy:      -185.637681  Gnorm:      0.508587  CPU:    0.006
  ** Hessian calculated **
  Cycle:      2 Energy:      -187.262654  Gnorm:      0.044332  CPU:    0.008
  Cycle:      3 Energy:      -187.272920  Gnorm:      0.007961  CPU:    0.009
  ** Hessian has required structure
  Cycle:      4 Energy:      -187.272938  Gnorm:      0.007957  CPU:    0.011
  ** Hessian has required structure
  Cycle:      5 Energy:      -187.272938  Gnorm:      0.007952  CPU:    0.013
  ** Hessian has required structure
  Cycle:      6 Energy:      -187.272940  Gnorm:      0.007923  CPU:    0.014
  ** Hessian has required structure
  Cycle:      7 Energy:      -187.272949  Gnorm:      0.007801  CPU:    0.016
  ** Hessian has required structure
  Cycle:      8 Energy:      -187.273036  Gnorm:      0.006421  CPU:    0.017
  ** Hessian has required structure
  Cycle:      9 Energy:      -187.273283  Gnorm:      0.000920  CPU:    0.019
  ** Hessian has required structure
  Cycle:     10 Energy:      -187.273290  Gnorm:      0.000466  CPU:    0.020
  ** Hessian has required structure
  Cycle:     11 Energy:      -187.273291  Gnorm:      0.000266  CPU:    0.022
  ** Hessian has required structure
  Cycle:     12 Energy:      -187.273292  Gnorm:      0.000000  CPU:    0.024
  ** Hessian has required structure
  Cycle:     13 Energy:      -187.273292  Gnorm:      0.000000  CPU:    0.025
  ** Hessian has required structure
  Cycle:     14 Energy:      -187.273292  Gnorm:      0.000000  CPU:    0.027
  ** Hessian has required structure
  Cycle:     15 Energy:      -187.273292  Gnorm:      0.000000  CPU:    0.028
  ** Hessian has required structure
  Cycle:     16 Energy:      -187.273292  Gnorm:      0.000000  CPU:    0.030
  ** Hessian calculated **

  XYZ File written as 001/1/sp_mod_-100/sp_mod_-100_eig.xyz



  **** Optimisation achieved ****


  Final energy =    -187.27329192 eV
  Final Gnorm  =       0.00000002

  Components of energy : 

--------------------------------------------------------------------------------
  Interatomic potentials     =          38.56366030 eV    
  Monopole - monopole (real) =        -225.83695222 eV    
--------------------------------------------------------------------------------
  Total lattice energy       =        -187.27329192 eV    
--------------------------------------------------------------------------------
  Total lattice energy       =          -18069.0099 kJ/mol
--------------------------------------------------------------------------------

  Final cartesian coordinates of atoms :

--------------------------------------------------------------------------------
   No.  Atomic        x           y          z          Radius
        Label       (Angs)      (Angs)     (Angs)       (Angs) 
--------------------------------------------------------------------------------
     1  Al    c     1.531317    0.257032    2.447014    0.000000
     2  Al    c     1.241282    1.211630   -0.163046    0.000000
     3  Al    c    -0.528860    0.603156   -2.237760    0.000000
     4  F     c    -1.781504   -0.623243   -1.975177    0.000000
     5  F     c     2.168057   -0.244150    0.726432    0.000000
     6  F     c    -0.280927    1.552206   -3.814331    0.000000
     7  F     c    -0.474236    1.831125   -0.762079    0.000000
     8  F     c     2.482018    2.487699   -0.558784    0.000000
     9  F     c     1.175423   -0.035775   -1.621095    0.000000
    10  F     c     0.518396    1.622747    1.585449    0.000000
    11  F     c     2.812520    0.902824    3.501515    0.000000
    12  F     c     0.315798   -1.063514    2.984831    0.000000
    13  F     s    -1.601919   -0.449824   -2.007974    0.000000
    14  F     s     2.005622   -0.039734    0.822984    0.000000
    15  F     s    -0.324986    1.392491   -3.554081    0.000000
    16  F     s    -0.310972    1.625172   -0.857274    0.000000
    17  F     s     2.288584    2.289193   -0.497780    0.000000
    18  F     s     0.988550    0.154040   -1.534591    0.000000
    19  F     s     0.704023    1.433124    1.500798    0.000000
    20  F     s     2.627275    0.811635    3.344598    0.000000
    21  F     s     0.519023   -0.842413    2.894377    0.000000
--------------------------------------------------------------------------------


  Final Cartesian derivatives :

--------------------------------------------------------------------------------
   No.  Atomic          x             y             z           Radius
        Label       (eV/Angs)     (eV/Angs)    (eV/Angs)      (eV/Angs)
--------------------------------------------------------------------------------
      1 Al    c       0.000000      0.000000      0.000000      0.000000
      2 Al    c       0.000000      0.000000      0.000000      0.000000
      3 Al    c       0.000000      0.000000      0.000000      0.000000
      4 F     c       0.000000      0.000000      0.000000      0.000000
      5 F     c       0.000000      0.000000      0.000000      0.000000
      6 F     c       0.000000      0.000000      0.000000      0.000000
      7 F     c       0.000000      0.000000      0.000000      0.000000
      8 F     c       0.000000      0.000000      0.000000      0.000000
      9 F     c       0.000000      0.000000      0.000000      0.000000
     10 F     c       0.000000      0.000000      0.000000      0.000000
     11 F     c       0.000000      0.000000      0.000000      0.000000
     12 F     c       0.000000      0.000000      0.000000      0.000000
     13 F     s       0.000000      0.000000     -0.000000      0.000000
     14 F     s      -0.000000      0.000000      0.000000      0.000000
     15 F     s      -0.000000     -0.000000     -0.000000      0.000000
     16 F     s       0.000000     -0.000000     -0.000000      0.000000
     17 F     s      -0.000000     -0.000000      0.000000      0.000000
     18 F     s      -0.000000      0.000000     -0.000000      0.000000
     19 F     s       0.000000     -0.000000     -0.000000      0.000000
     20 F     s      -0.000000      0.000000     -0.000000      0.000000
     21 F     s      -0.000000      0.000000     -0.000000      0.000000
--------------------------------------------------------------------------------
  Maximum abs         0.000000      0.000000      0.000000      0.000000
--------------------------------------------------------------------------------


  Born effective charge tensors : 

-------------------------------------------------------------------------------
  Atom             x           y             z
-------------------------------------------------------------------------------
    1 Al    x       0.7493     -0.4123     -0.1613
            y      -0.4025      0.9887     -0.0939
            z      -0.1815     -0.1128      1.1821
-------------------------------------------------------------------------------
    2 Al    x       0.9518     -0.3228      0.2850
            y      -0.3242      0.8714      0.0310
            z       0.2876      0.0338      1.6302
-------------------------------------------------------------------------------
    3 Al    x       1.0950     -0.3339      0.2336
            y      -0.3407      0.8880      0.3500
            z       0.2480      0.3627      1.0398
-------------------------------------------------------------------------------
    4 F     x      -0.2512      0.3135     -0.1196
            y       0.2986     -0.2394     -0.0892
            z      -0.0870     -0.0604     -0.5796
-------------------------------------------------------------------------------
    5 F     x      -0.3027      0.0417     -0.0647
            y       0.0264     -0.3134      0.0504
            z      -0.0426      0.0607     -0.3812
-------------------------------------------------------------------------------
    6 F     x      -0.5336      0.0274     -0.0809
            y       0.0449     -0.3752     -0.2314
            z      -0.1187     -0.2653     -0.1764
-------------------------------------------------------------------------------
    7 F     x      -0.3334      0.0041     -0.0557
            y       0.0167     -0.2820      0.0029
            z      -0.0806     -0.0141     -0.3692
-------------------------------------------------------------------------------
    8 F     x      -0.2769      0.2653     -0.1248
            y       0.2671     -0.2452     -0.0699
            z      -0.1282     -0.0733     -0.5989
-------------------------------------------------------------------------------
    9 F     x      -0.3118     -0.0050     -0.0459
            y       0.0039     -0.2855     -0.0148
            z      -0.0664     -0.0392     -0.3888
-------------------------------------------------------------------------------
   10 F     x      -0.2817      0.0085     -0.0142
            y       0.0058     -0.2790     -0.0091
            z      -0.0001      0.0169     -0.4343
-------------------------------------------------------------------------------
   11 F     x      -0.2096      0.1838      0.2440
            y       0.1657     -0.4637      0.1409
            z       0.2837      0.1752     -0.3819
-------------------------------------------------------------------------------
   12 F     x      -0.2953      0.2297     -0.0953
            y       0.2384     -0.2646     -0.0670
            z      -0.1141     -0.0841     -0.5418
-------------------------------------------------------------------------------




  Moment of inertia tensor (10^-46 x kgm^2): 

-------------------------------------------------------------------------------
                x           y           z           Principal axis system
-------------------------------------------------------------------------------
       x        236.26      -11.17      -67.71           80.459760
       y        -11.17      265.09       20.29          247.717453
       z        -67.71       20.29      111.18          284.355837
-------------------------------------------------------------------------------
  Centre of mass (Ang) =     0.763322     0.706780     0.009983
-------------------------------------------------------------------------------


  Vibrational Frequency Calculation : 

--------------------------------------------------------------------------------

  Frequencies (cm-1) and Eigenvectors : 

  Frequency     -22.7486   -0.0000   -0.0000    0.0000   15.8315   20.1813
  IR Intensity    0.0006    0.0000    0.0000    0.0000    0.0020    0.0001
     in X         0.0002    0.0000    0.0000    0.0000    0.0008    0.0000
     in Y         0.0003    0.0000    0.0000    0.0000    0.0010    0.0000
     in Z         0.0001    0.0000    0.0000    0.0000    0.0002    0.0000
  Raman Intsty    0.0000    0.0000    0.0000    0.0000    0.0000    0.0011

     1 x       0.060951  0.005883  0.308970 -0.107665 -0.129802  0.190917
     1 y      -0.063816  0.021778 -0.107813 -0.308206  0.105766  0.219010
     1 z      -0.031282  0.326466  0.001624  0.022501  0.059455 -0.037986
     2 x       0.074384  0.005883  0.308970 -0.107665  0.023822 -0.018654
     2 y      -0.083700  0.021778 -0.107813 -0.308206 -0.021279  0.020567
     2 z      -0.040181  0.326466  0.001624  0.022501 -0.004135 -0.089576
     3 x      -0.106029  0.005883  0.308970 -0.107665  0.161333 -0.176667
     3 y       0.113944  0.021778 -0.107813 -0.308206 -0.145628 -0.246224
     3 z       0.055722  0.326466  0.001624  0.022501 -0.084698  0.117687
     4 x      -0.483653  0.004937  0.259282 -0.090350 -0.006248 -0.047652
     4 y       0.544130  0.018276 -0.090475 -0.258641  0.033972 -0.244700
     4 z       0.258980  0.273964  0.001363  0.018882 -0.017367  0.405425
     5 x       0.015538  0.004937  0.259282 -0.090350  0.143015  0.085793
     5 y      -0.103927  0.018276 -0.090475 -0.258641  0.120874  0.104195
     5 z      -0.021742  0.273964  0.001363  0.018882  0.143539 -0.037222
     6 x       0.062263  0.004937  0.259282 -0.090350  0.295925 -0.305295
     6 y      -0.080178  0.018276 -0.090475 -0.258641 -0.286887 -0.325466
     6 z      -0.035231  0.273964  0.001363  0.018882 -0.145033  0.004467
     7 x       0.185063  0.004937  0.259282 -0.090350  0.108124 -0.067974
     7 y       0.230827  0.018276 -0.090475 -0.258641  0.043024 -0.071413
     7 z      -0.068964  0.273964  0.001363  0.018882 -0.214023 -0.013204
     8 x       0.214881  0.004937  0.259282 -0.090350  0.036871 -0.075683
     8 y      -0.243694  0.018276 -0.090475 -0.258641 -0.031689  0.028625
     8 z      -0.114992  0.273964  0.001363  0.018882  0.005077 -0.225177
     9 x      -0.217764  0.004937  0.259282 -0.090350  0.043340 -0.068366
     9 y      -0.195746  0.018276 -0.090475 -0.258641 -0.177549 -0.083483
     9 z       0.084721  0.273964  0.001363  0.018882  0.140550  0.015423
    10 x       0.099437  0.004937  0.259282 -0.090350 -0.209063  0.067810
    10 y      -0.021744  0.018276 -0.090475 -0.258641 -0.073359  0.098840
    10 z      -0.038821  0.273964  0.001363  0.018882 -0.108501 -0.061575
    11 x       0.075070  0.004937  0.259282 -0.090350 -0.459674  0.195066
    11 y      -0.078634  0.018276 -0.090475 -0.258641  0.465497  0.325485
    11 z      -0.039969  0.273964  0.001363  0.018882  0.245321 -0.161250
    12 x       0.014244  0.004937  0.259282 -0.090350 -0.018250  0.221549
    12 y      -0.011028  0.018276 -0.090475 -0.258641 -0.021025  0.175836
    12 z      -0.005224  0.273964  0.001363  0.018882 -0.014553  0.084881


  Frequency      38.4317   42.4330   76.0696   94.5005  150.8078  158.9642
  IR Intensity    0.0011    0.0043    0.0043    0.0008    0.0099    0.0083
     in X         0.0005    0.0001    0.0015    0.0003    0.0038    0.0008
     in Y         0.0004    0.0015    0.0001    0.0004    0.0051    0.0029
     in Z         0.0003    0.0028    0.0026    0.0001    0.0010    0.0045
  Raman Intsty    0.0000    0.0007    0.0000    0.0000    0.0001    0.1057

     1 x       0.198858  0.163641  0.103991  0.001311  0.000107  0.199464
     1 y      -0.240890  0.056459  0.093726 -0.001022 -0.006556  0.116016
     1 z      -0.121129  0.093887 -0.004028 -0.000225 -0.004493  0.129991
     2 x      -0.040825 -0.137945  0.022502 -0.148824  0.033320 -0.108994
     2 y       0.077266 -0.138934  0.032005  0.167177 -0.034525 -0.094148
     2 z       0.020185  0.061212 -0.023638  0.077354 -0.016083 -0.006541
     3 x      -0.116388 -0.030191 -0.067548  0.112969  0.095513 -0.037055
     3 y       0.122149  0.027114 -0.105093 -0.127642 -0.107759  0.070301
     3 z       0.070428 -0.070515  0.095744 -0.059437 -0.045821 -0.232067
     4 x      -0.052116 -0.178886 -0.190718 -0.110012 -0.264411 -0.018332
     4 y       0.063708  0.088676 -0.029905  0.125253  0.300244  0.059334
     4 z       0.096488 -0.494480 -0.294203  0.058523  0.142804 -0.142301
     5 x       0.310480 -0.034097  0.244943 -0.016685 -0.205854  0.029900
     5 y       0.155088 -0.068093  0.201319  0.155854 -0.166265  0.026767
     5 z      -0.137761  0.044347  0.022722 -0.038068 -0.060051  0.075833
     6 x      -0.129093  0.202876  0.126150  0.349289  0.099502 -0.335387
     6 y       0.089907  0.164961  0.025735 -0.395719 -0.104147 -0.128509
     6 z       0.047025  0.058452  0.175016 -0.183518 -0.043439 -0.367457
     7 x      -0.053734 -0.132007 -0.120503 -0.081016 -0.149988  0.007507
     7 y       0.094499 -0.132084 -0.178264  0.035528 -0.419508  0.052533
     7 z       0.053091  0.066918  0.152608 -0.141941  0.248009 -0.185342
     8 x      -0.168219 -0.154727 -0.133611 -0.301942 -0.086245 -0.050923
     8 y       0.217846 -0.095061  0.061667  0.341709  0.099770 -0.088617
     8 z       0.091196 -0.005524 -0.383623  0.159395  0.043292  0.100906
     9 x      -0.071013 -0.134358 -0.121667  0.044508  0.304346 -0.016911
     9 y       0.098705 -0.136246 -0.177379  0.007573  0.243482  0.099903
     9 z       0.011299  0.067310  0.155206  0.159478 -0.322918 -0.177497
    10 x      -0.131360 -0.082252  0.238244 -0.121534  0.215071  0.067226
    10 y      -0.317513 -0.118297  0.204470 -0.004949  0.154601 -0.004015
    10 z       0.039145  0.058575  0.025239  0.108132  0.052641  0.060193
    11 x      -0.128923  0.231096 -0.059386  0.298097 -0.160027  0.011770
    11 y       0.096476  0.349688 -0.218025 -0.334839  0.182664 -0.221356
    11 z       0.074767 -0.219224  0.356995 -0.156361  0.074962  0.517970
    12 x       0.374350  0.287712 -0.053692 -0.019541  0.093958  0.241498
    12 y      -0.449294  0.012426  0.085789  0.023696 -0.113479  0.094128
    12 z      -0.238887  0.322834 -0.291085  0.013277 -0.056180  0.247127


  Frequency     171.8361  173.7372  205.3623  206.1323  214.9451  219.1898
  IR Intensity    0.0121    0.0001    0.0252    0.0471    0.0016    0.0291
     in X         0.0047    0.0000    0.0116    0.0064    0.0007    0.0024
     in Y         0.0060    0.0001    0.0126    0.0000    0.0008    0.0009
     in Z         0.0013    0.0000    0.0009    0.0407    0.0001    0.0258
  Raman Intsty    0.0000    0.0005    0.0003    0.0320    0.0000    0.0065

     1 x       0.060790 -0.062606 -0.066584 -0.187081 -0.189987 -0.070202
     1 y      -0.074390 -0.089684  0.117604 -0.190755  0.216821  0.025095
     1 z      -0.030134  0.082655  0.033806  0.099481  0.102243 -0.174423
     2 x      -0.178031 -0.070330 -0.178030  0.208230 -0.008816  0.123772
     2 y       0.196513 -0.082605  0.160197  0.168967  0.002771  0.209541
     2 z       0.092315  0.017013  0.068484  0.114888  0.007744 -0.219286
     3 x      -0.027295  0.122132  0.017779  0.097935  0.250049 -0.121553
     3 y       0.040428  0.157146 -0.033047  0.004799 -0.277375 -0.172132
     3 z       0.012920 -0.110878 -0.031080  0.158591 -0.131235  0.119725
     4 x       0.155334  0.260660 -0.014990 -0.097133 -0.093525 -0.172615
     4 y      -0.164094  0.080113  0.018438  0.091847  0.112271 -0.134410
     4 z      -0.066212  0.345235  0.053397 -0.370147  0.051586 -0.031756
     5 x      -0.429584 -0.047495  0.073133  0.049608 -0.164413 -0.154840
     5 y      -0.144391 -0.031076  0.334159  0.070841  0.103891  0.014490
     5 z      -0.146662  0.052331  0.053992  0.100855  0.132325 -0.185691
     6 x       0.140725  0.182931  0.108035 -0.380284 -0.293866  0.189392
     6 y      -0.146874  0.196550 -0.042530 -0.301587  0.329144  0.048256
     6 z      -0.072605 -0.053717 -0.022112 -0.105843  0.148443  0.284946
     7 x      -0.077792 -0.018423 -0.267931  0.143960  0.164555  0.025293
     7 y       0.241030  0.030150 -0.128111  0.063500 -0.082705  0.051200
     7 z      -0.097502 -0.009781  0.109365  0.084269 -0.262491 -0.071458
     8 x       0.106750 -0.348449  0.395291  0.072607 -0.050597  0.189948
     8 y      -0.133248 -0.002266 -0.470065  0.131138  0.049526  0.184171
     8 z      -0.079976 -0.641355 -0.174424 -0.352612  0.025770 -0.023341
     9 x      -0.155147  0.026646  0.098393  0.147329  0.143754  0.025913
     9 y       0.024667 -0.015669  0.262557  0.146304 -0.269682  0.043993
     9 z       0.217408 -0.041087 -0.055677  0.086733  0.103850 -0.065372
    10 x       0.280748 -0.032643 -0.351912  0.042361 -0.108080 -0.095637
    10 y       0.308639 -0.084899 -0.038128 -0.009629  0.209513 -0.042585
    10 z       0.226190  0.021815  0.062915  0.083006  0.016803 -0.217239
    11 x      -0.092952 -0.046708  0.114818 -0.037916  0.091677 -0.191620
    11 y       0.099796 -0.074854 -0.130131  0.030425 -0.095648 -0.236921
    11 z       0.050002  0.060466 -0.036689 -0.198458 -0.048748  0.142969
    12 x       0.244151  0.036357  0.115468 -0.082438  0.249430  0.265179
    12 y      -0.279228 -0.080006 -0.097848 -0.202595 -0.287454 -0.002676
    12 z      -0.120136  0.279452 -0.075622  0.227764 -0.142217  0.493432


  Frequency     240.0355  264.5195  279.4827  351.2426  384.9860  399.9334
  IR Intensity    0.0481    0.0337    0.0342    0.0000    0.0004    0.0014
     in X         0.0187    0.0063    0.0168    0.0000    0.0002    0.0002
     in Y         0.0241    0.0000    0.0164    0.0000    0.0002    0.0000
     in Z         0.0052    0.0273    0.0009    0.0000    0.0000    0.0012
  Raman Intsty    0.0000    0.0123    0.0493    0.5881    0.0003    0.0002

     1 x      -0.269691 -0.196488  0.088398 -0.053137 -0.036589  0.017093
     1 y       0.305378 -0.124703  0.131788  0.087720  0.041727 -0.061359
     1 z       0.140261 -0.104666 -0.117887 -0.294138  0.016706  0.166299
     2 x       0.210505 -0.003126  0.131976 -0.195890 -0.017233 -0.107486
     2 y      -0.238245  0.034890  0.128745 -0.206830  0.018163  0.012037
     2 z      -0.108382 -0.082304 -0.026446  0.069987  0.004724 -0.234579
     3 x      -0.234899  0.001557  0.191798  0.184965  0.029391  0.112314
     3 y       0.266282  0.095758  0.163041  0.055041 -0.032074  0.039435
     3 z       0.123219 -0.204861  0.013551  0.235988 -0.013971  0.129770
     4 x       0.085029  0.116107  0.196626  0.098648 -0.032875  0.089490
     4 y      -0.096468  0.047034  0.176162  0.130519  0.038609  0.097906
     4 z      -0.045033  0.120604 -0.005162 -0.095565  0.016960 -0.040512
     5 x      -0.039264  0.294762 -0.267487  0.223698  0.185159 -0.250411
     5 y      -0.017170  0.251938 -0.181914 -0.086760 -0.378342  0.362002
     5 z       0.267868 -0.019004 -0.159168 -0.214975  0.304880  0.058868
     6 x       0.177151 -0.022027 -0.182988 -0.092990 -0.038090 -0.046826
     6 y      -0.201763  0.084259 -0.074437 -0.146754  0.041898 -0.082656
     6 z      -0.093584 -0.224732 -0.189704  0.137884  0.020280  0.089906
     7 x       0.116189 -0.181107 -0.109650 -0.037023 -0.431234 -0.336054
     7 y       0.052735 -0.258243 -0.224056  0.266923  0.083580  0.273865
     7 z       0.225590  0.110725  0.343971  0.149929 -0.187795  0.092089
     8 x      -0.071600  0.123563  0.132399 -0.253732 -0.002904  0.015510
     8 y       0.081193  0.007723  0.138319 -0.262847  0.002939 -0.021621
     8 z       0.036944  0.221035 -0.046810  0.084252  0.001267  0.077482
     9 x      -0.163319 -0.223139 -0.082012  0.288051  0.101784  0.207796
     9 y       0.002005 -0.211432 -0.255322 -0.106527  0.290188 -0.339914
     9 z      -0.199762  0.132961  0.330261 -0.024780  0.359717 -0.189451
    10 x      -0.086700  0.279552 -0.283319 -0.118441  0.162157  0.291471
    10 y       0.159305  0.269242 -0.162806  0.296548 -0.015491 -0.249704
    10 z      -0.203353 -0.011234 -0.149699 -0.028386 -0.478234 -0.227271
    11 x       0.097063 -0.166717 -0.008289 -0.189246  0.034336  0.108390
    11 y      -0.110007 -0.058648 -0.061418 -0.120748 -0.040756  0.067296
    11 z      -0.050812 -0.194140  0.119377 -0.098077 -0.019756  0.061426
    12 x       0.235893  0.015020  0.113561  0.157374  0.050781 -0.105487
    12 y      -0.267140 -0.138958  0.140726  0.105992 -0.055771 -0.095392
    12 z      -0.122679  0.330707 -0.087220  0.075612 -0.026208  0.004192


  Frequency     466.8462  505.5904  514.2079  523.7431  540.1949  597.7510
  IR Intensity    0.0043    0.0444    0.0040    0.0150    0.0161    0.1402
     in X         0.0011    0.0106    0.0004    0.0056    0.0061    0.0565
     in Y         0.0022    0.0000    0.0016    0.0078    0.0080    0.0713
     in Z         0.0010    0.0339    0.0020    0.0016    0.0020    0.0124
  Raman Intsty    2.3504    0.1465    3.5037    0.0052    0.0031    0.0000

     1 x       0.000814 -0.027210  0.048442 -0.084691 -0.367724  0.153050
     1 y       0.005595  0.046838 -0.069365  0.095873  0.417686 -0.176624
     1 z      -0.010204 -0.117371  0.156556  0.050512  0.196080 -0.075738
     2 x       0.088330 -0.036916  0.007925 -0.081631  0.148220  0.442290
     2 y       0.114484  0.005442 -0.000198  0.091508 -0.165931 -0.496550
     2 z      -0.061591 -0.085189  0.014297  0.040949 -0.071461 -0.208869
     3 x       0.003701 -0.142176 -0.098378  0.379933 -0.020166  0.126740
     3 y      -0.000577 -0.051202 -0.016262 -0.435777  0.022102 -0.141596
     3 z       0.002754 -0.152042 -0.079583 -0.204543  0.010014 -0.063146
     4 x       0.002604 -0.277579 -0.191701 -0.011824 -0.006283 -0.022248
     4 y      -0.001807 -0.269126 -0.188172 -0.005242  0.002188  0.014072
     4 z       0.006945  0.051920  0.040360  0.003302  0.002702  0.010169
     5 x       0.217352 -0.064490  0.113899  0.102853  0.133438 -0.189941
     5 y      -0.356907  0.023941 -0.085009 -0.107746 -0.065794  0.249678
     5 z       0.191387  0.251364 -0.350706 -0.031218 -0.506069  0.021816
     6 x       0.005327  0.055190  0.042375 -0.019022 -0.002035 -0.020075
     6 y       0.005976  0.203180  0.141293  0.029724  0.004771  0.027969
     6 z      -0.004254 -0.334825 -0.228750  0.000429 -0.001291  0.004938
     7 x      -0.405943  0.088760  0.005466  0.054146 -0.155174 -0.278387
     7 y       0.172352  0.229530  0.147605  0.325477  0.029181  0.185253
     7 z      -0.092649  0.330554  0.186864  0.418895 -0.108923 -0.002429
     8 x       0.241349 -0.011467  0.021460 -0.014400  0.016613 -0.016962
     8 y       0.249922 -0.004596  0.021382  0.014520 -0.013545  0.028338
     8 z      -0.080581 -0.014835 -0.004587  0.007461 -0.008132  0.009154
     9 x       0.021092  0.363635  0.243350 -0.450120  0.054440 -0.104771
     9 y      -0.325880 -0.076614 -0.098797  0.142791  0.081438  0.236667
     9 z      -0.331640  0.194011  0.087419 -0.188323  0.157781  0.187205
    10 x      -0.193560  0.118676 -0.218386  0.071087  0.218750 -0.186639
    10 y       0.105654 -0.186725  0.297240 -0.084551 -0.329285  0.176989
    10 z       0.409891  0.171797 -0.202186 -0.085756  0.296445  0.170589
    11 x       0.001038 -0.186123  0.304894  0.016632  0.021084 -0.024007
    11 y       0.003148 -0.093000  0.156310  0.002933  0.001884  0.015689
    11 z      -0.005369 -0.156255  0.247866  0.009020  0.010471  0.003331
    12 x       0.000105  0.159236 -0.271293 -0.003900  0.004766 -0.017427
    12 y       0.005141  0.172126 -0.289580 -0.021909 -0.037177  0.036254
    12 z      -0.011457 -0.071175  0.114957  0.000943 -0.003417  0.009624


  Frequency     637.8211  718.3624  764.6278  779.2581  815.3207  820.3871
  IR Intensity    0.1600    0.0204    0.0002    0.0021    0.0015    0.0031
     in X         0.0178    0.0113    0.0001    0.0005    0.0001    0.0018
     in Y         0.0018    0.0091    0.0001    0.0010    0.0001    0.0013
     in Z         0.1405    0.0000    0.0000    0.0007    0.0013    0.0000
  Raman Intsty    0.0006    0.2448    0.2208    0.1059    0.0939    0.0028

     1 x      -0.025276  0.056954 -0.184940  0.089020  0.448754  0.301659
     1 y      -0.108481  0.220843 -0.324462  0.166983  0.246594  0.137760
     1 z       0.209269 -0.380725  0.357523 -0.195902  0.328535  0.282656
     2 x       0.221812  0.190703  0.264806  0.443580  0.045610 -0.055232
     2 y      -0.050843  0.202538  0.396318  0.237147  0.074390  0.036069
     2 z       0.599942 -0.080239 -0.365358  0.340141 -0.076331 -0.187615
     3 x       0.121491  0.267585 -0.010126 -0.217778 -0.251337  0.389666
     3 y       0.028475  0.038042 -0.023256  0.030014 -0.304884  0.426950
     3 z       0.182040  0.429422  0.029959 -0.481840  0.178936 -0.178857
     4 x      -0.173145 -0.147362  0.017146  0.039597  0.223100 -0.314062
     4 y      -0.170865 -0.138849  0.017369  0.032325  0.219899 -0.309197
     4 z       0.037320  0.019205 -0.004644  0.005590 -0.049890  0.069571
     5 x      -0.063561 -0.036220  0.070866 -0.054924  0.009044  0.022243
     5 y       0.114235 -0.004135 -0.090743  0.029660 -0.034855 -0.038969
     5 z      -0.180057  0.137517 -0.057325  0.030950 -0.055342 -0.038050
     6 x       0.035275  0.028586  0.003448 -0.026805  0.037735 -0.050283
     6 y       0.136356  0.157960  0.014360 -0.143907  0.118133 -0.146707
     6 z      -0.229499 -0.286559 -0.024137  0.259609 -0.183088  0.221002
     7 x      -0.187951 -0.041979 -0.009755 -0.101638  0.006430  0.010166
     7 y       0.023050 -0.082915 -0.015306  0.093565  0.018000 -0.048703
     7 z      -0.138082 -0.120890  0.005499  0.053878  0.006095 -0.011357
     8 x       0.020756 -0.232743 -0.313007 -0.223940 -0.044636 -0.013170
     8 y       0.026397 -0.239575 -0.326179 -0.223084 -0.046972 -0.016516
     8 z      -0.020311  0.074937  0.109537  0.055473  0.016710  0.010809
     9 x      -0.072630 -0.131777 -0.013818  0.082933  0.019625 -0.045564
     9 y      -0.113600  0.019587 -0.009948 -0.115587  0.003092  0.014558
     9 z      -0.205049 -0.073127  0.008449 -0.042439 -0.000846  0.017934
    10 x       0.027170  0.041176 -0.088013  0.026892 -0.050969 -0.044950
    10 y       0.014936 -0.091323  0.087827 -0.061977  0.032416  0.036349
    10 z      -0.235381  0.094356  0.032545 -0.015086 -0.021892 -0.000455
    11 x      -0.151217  0.094170  0.033838 -0.011519 -0.331405 -0.230441
    11 y      -0.077974  0.042258  0.023461 -0.009816 -0.167601 -0.115885
    11 z      -0.122694  0.089195  0.013693 -0.000671 -0.271687 -0.190375
    12 x       0.186330 -0.187834  0.216190 -0.105752 -0.158523 -0.091931
    12 y       0.203390 -0.212855  0.241247 -0.118520 -0.161298 -0.090840
    12 z      -0.087460  0.102952 -0.109981  0.054994  0.046177  0.020800




--------------------------------------------------------------------------------
  Vibrational properties (for cluster):  Temperature  =       0.000 K
--------------------------------------------------------------------------------
  Zero point energy            =        0.704032 eV
--------------------------------------------------------------------------------

  Phonon density of states : 

--------------------------------------------------------------------------------
 Frequency (cm-1) Density of States                                             
--------------------------------------------------------------------------------
    0.00000 |********************                                          0.030
   12.81855 |****************************************                      0.061
   25.63710 |********************                                          0.030
   38.45565 |********************                                          0.030
   51.27420 |                                                              0.000
   64.09275 |********************                                          0.030
   76.91130 |                                                              0.000
   89.72985 |********************                                          0.030
  102.54840 |                                                              0.000
  115.36695 |                                                              0.000
  128.18550 |                                                              0.000
  141.00405 |********************                                          0.030
  153.82260 |********************                                          0.030
  166.64115 |****************************************                      0.061
  179.45970 |                                                              0.000
  192.27825 |                                                              0.000
  205.09680 |************************************************************  0.091
  217.91535 |********************                                          0.030
  230.73390 |********************                                          0.030
  243.55245 |                                                              0.000
  256.37100 |********************                                          0.030
  269.18955 |********************                                          0.030
  282.00810 |                                                              0.000
  294.82665 |                                                              0.000
  307.64520 |                                                              0.000
  320.46375 |                                                              0.000
  333.28230 |                                                              0.000
  346.10085 |********************                                          0.030
  358.91940 |                                                              0.000
  371.73795 |                                                              0.000
  384.55650 |********************                                          0.030
  397.37505 |********************                                          0.030
  410.19360 |                                                              0.000
  423.01215 |                                                              0.000
  435.83070 |                                                              0.000
  448.64925 |                                                              0.000
  461.46780 |********************                                          0.030
  474.28635 |                                                              0.000
  487.10490 |                                                              0.000
  499.92345 |********************                                          0.030
  512.74200 |****************************************                      0.061
  525.56055 |                                                              0.000
  538.37910 |********************                                          0.030
  551.19765 |                                                              0.000
  564.01620 |                                                              0.000
  576.83475 |                                                              0.000
  589.65330 |********************                                          0.030
  602.47185 |                                                              0.000
  615.29040 |                                                              0.000
  628.10895 |********************                                          0.030
  640.92750 |                                                              0.000
  653.74605 |                                                              0.000
  666.56460 |                                                              0.000
  679.38315 |                                                              0.000
  692.20170 |                                                              0.000
  705.02025 |                                                              0.000
  717.83880 |********************                                          0.030
  730.65735 |                                                              0.000
  743.47590 |                                                              0.000
  756.29445 |********************                                          0.030
  769.11300 |********************                                          0.030
  781.93155 |                                                              0.000
  794.75010 |                                                              0.000
  807.56865 |****************************************                      0.061
--------------------------------------------------------------------------------



  Time to end of optimisation =       0.0399 seconds


  Peak dynamic memory used =       0.65 MB 


  Timing analysis for GULP :

--------------------------------------------------------------------------------
  Task / Subroutine                                          Time (Seconds)
--------------------------------------------------------------------------------
  Calculation of real space energy and derivatives                0.0026
  Calculation of phonons                                          0.0017
  Calculation and manipulation of Hessian matrix                  0.0017
  Calculation of matrix inversion                                 0.0001
--------------------------------------------------------------------------------
  Total CPU time                                                  0.0399
--------------------------------------------------------------------------------


  Job Finished at 11:00.02 24th May        2022                               

