********************************************************************************
*                       GENERAL UTILITY LATTICE PROGRAM                        *
*                                 Julian Gale                                  *
*                       Curtin Institute for Computation                       *
*                           Department of Chemistry                            *
*                    Curtin University, Western Australia                      *
********************************************************************************
* Version = 5.1.1 * Last modified =  24th November 2018                        *
********************************************************************************
*  optimise     - perform optimisation run                                     *
*  conp         - constant pressure calculation                                *
*  shell        - only shells and radii to be optimised                        *
*  phonon       - calculate phonons for final geometry                         *
*  eigenvectors - output phonon eigenvectors                                   *
********************************************************************************

  Job Started  at 14:40.15 25th May        2022                               

  Number of CPUs =     1

  Host name      = login03                                 


  Total number of configurations input =      1

********************************************************************************
*  Input for Configuration =   1                                               *
********************************************************************************

  Formula = Al3F9                                                       

  Number of irreducible atoms/shells =      21


  Total number atoms/shells =      21

  Dimensionality = 0               :  Cluster


  Charge on cluster =  -0.000000


  Initial cluster dipoles : x =     -0.000001 e.Angs
                            y =     -0.000000 e.Angs
                            z =     -0.000000 e.Angs

  Temperature of configuration =  0.000     K 

  Symmetry number =      1

  Cartesian coordinates of cluster :

--------------------------------------------------------------------------------
   No.  Atomic       x           y          z         Charge      Occupancy
        Label      (Angs)      (Angs)     (Angs)        (e)         (Frac)  
--------------------------------------------------------------------------------
      1 Al    c      0.3250     -2.3150     -1.9370     3.00000    1.000000    
      2 Al    c      2.0112     -0.5480     -0.7561     3.00000    1.000000    
      3 Al    c     -0.3612      0.3031     -1.7436     3.00000    1.000000    
      4 F     c      3.5827     -0.1928      0.0614     0.59000    1.000000    
      5 F     c     -0.0773     -4.0085     -2.4283     0.59000    1.000000    
      6 F     c      2.1387     -1.7306     -2.3170     0.59000    1.000000    
      7 F     c      1.5078      0.7224     -2.1614     0.59000    1.000000    
      8 F     c     -1.5304      1.6414     -2.0697     0.59000    1.000000    
      9 F     c     -1.1413     -1.3459     -1.0529     0.59000    1.000000    
     10 F     c     -0.0813     -0.9342     -3.2423     0.59000    1.000000    
     11 F     c      0.4477      0.3108      0.0280     0.59000    1.000000    
     12 F     c      1.0786     -2.1422     -0.1277     0.59000    1.000000    
     13 F     s      3.5827 *   -0.1928 *    0.0614 *  -1.59000    1.000000    
     14 F     s     -0.0773 *   -4.0085 *   -2.4283 *  -1.59000    1.000000    
     15 F     s      2.1387 *   -1.7306 *   -2.3170 *  -1.59000    1.000000    
     16 F     s      1.5078 *    0.7224 *   -2.1614 *  -1.59000    1.000000    
     17 F     s     -1.5304 *    1.6414 *   -2.0697 *  -1.59000    1.000000    
     18 F     s     -1.1413 *   -1.3459 *   -1.0529 *  -1.59000    1.000000    
     19 F     s     -0.0813 *   -0.9342 *   -3.2423 *  -1.59000    1.000000    
     20 F     s      0.4477 *    0.3108 *    0.0280 *  -1.59000    1.000000    
     21 F     s      1.0786 *   -2.1422 *   -0.1277 *  -1.59000    1.000000    
--------------------------------------------------------------------------------


  Brillouin zone sampling points :

--------------------------------------------------------------------------------
  Point number          x          y          z            Weight
--------------------------------------------------------------------------------
        1           0.000000   0.000000   0.000000     1.00000000
--------------------------------------------------------------------------------


********************************************************************************
*  General input information                                                   *
********************************************************************************

  Species output for all configurations : 

--------------------------------------------------------------------------------
  Species    Type    Atomic    Atomic    Charge       Radii (Angs)     Library
                     Number     Mass       (e)     Cova   Ionic  VDW   Symbol
--------------------------------------------------------------------------------
    Al       Core       13      26.98   3.000000   1.350  0.000  2.050          
    F        Core        9      19.00   0.590000   0.710  0.000  1.300          
    F        Shell       9       0.00  -1.590000   0.710  0.000  1.300          
--------------------------------------------------------------------------------


  Accuracy factor for short range sums = 12.000

  Time limit = Infinity

  Maximum range for interatomic potentials =    100000.000000 Angstroms

  General interatomic potentials :

--------------------------------------------------------------------------------
Atom  Types   Potential      Parameter       Value         Units   Cutoffs(Ang)
  1     2                                                            Min /  Max 
--------------------------------------------------------------------------------
Al   c F    s Buckingham    Buckingham A     3760.0008    eV        0.000 10.000
                            Buckingham rho  0.22200000    Ang       
                            Buckingham C     0.0000000    eV*Ang^6  
--------------------------------------------------------------------------------
F    s F    s Buck 4 range  Buck4 A          1127.7000    eV        0.000 12.000
                            Buck4 rho       0.27530000    Ang       
                            Buck4 C          15.830000    eV*Ang^6  
                            Buck4 minimum    2.7900000    Ang       
--------------------------------------------------------------------------------
F    c F    s Spring (c-s)  Spring k 2       20.770000    eV*Ang^-2 0.000  0.800
                            Spring k 4       0.0000000    eV*Ang^-4 
--------------------------------------------------------------------------------

********************************************************************************
*  Output for configuration   1                                                *
********************************************************************************


  Components of energy : 

--------------------------------------------------------------------------------
  Interatomic potentials     =          10.19421392 eV    
  Monopole - monopole (real) =        -176.88258705 eV    
--------------------------------------------------------------------------------
  Total lattice energy       =        -166.68837313 eV    
--------------------------------------------------------------------------------
  Total lattice energy       =          -16082.8799 kJ/mol
--------------------------------------------------------------------------------


  Number of variables =       27

  Maximum number of calculations  =          2000
  Maximum Hessian update interval =            10
  Maximum step size               =   1.000000000
  Maximum parameter tolerance     =   0.000001000
  Maximum function  tolerance     =   0.000010000
  Maximum gradient  tolerance     =   0.000000010
  Maximum gradient  component     =   0.010000000

  Symmetry not applied to optimisation

  Newton-Raphson optimiser to be used

  BFGS hessian update to be used

  Lower half triangular hessian to be used

  Minimiser to switch to RFO
  When gradient norm is less than     0.010000

  Shell only optimisation

  Start of cluster optimisation :

  Cycle:      0 Energy:      -166.688373  Gnorm:      1.547325  CPU:    0.004
  ** Hessian calculated **
  Cycle:      1 Energy:      -184.202956  Gnorm:      0.641212  CPU:    0.005
  ** Hessian calculated **
  Cycle:      2 Energy:      -185.767926  Gnorm:      0.029813  CPU:    0.007
  Cycle:      3 Energy:      -185.772796  Gnorm:      0.002740  CPU:    0.009
  ** Hessian has required structure
  Cycle:      4 Energy:      -185.772833  Gnorm:      0.000394  CPU:    0.010
  ** Hessian has required structure
  Cycle:      5 Energy:      -185.772834  Gnorm:      0.000176  CPU:    0.012
  ** Hessian has required structure
  Cycle:      6 Energy:      -185.772835  Gnorm:      0.000098  CPU:    0.013
  ** Hessian has required structure
  Cycle:      7 Energy:      -185.772835  Gnorm:      0.000059  CPU:    0.014
  ** Hessian has required structure
  Cycle:      8 Energy:      -185.772835  Gnorm:      0.000024  CPU:    0.016
  ** Hessian has required structure
  Cycle:      9 Energy:      -185.772835  Gnorm:      0.000015  CPU:    0.017
  ** Hessian has required structure
  Cycle:     10 Energy:      -185.772835  Gnorm:      0.000011  CPU:    0.018
  ** Hessian has required structure
  Cycle:     11 Energy:      -185.772835  Gnorm:      0.000005  CPU:    0.020
  ** Hessian has required structure
  Cycle:     12 Energy:      -185.772835  Gnorm:      0.000000  CPU:    0.021
  ** Hessian has required structure
  Cycle:     13 Energy:      -185.772835  Gnorm:      0.000000  CPU:    0.023
  ** Hessian has required structure
  Cycle:     14 Energy:      -185.772835  Gnorm:      0.000000  CPU:    0.024
  ** Hessian has required structure
  Cycle:     15 Energy:      -185.772835  Gnorm:      0.000000  CPU:    0.026
  ** Hessian has required structure
  Cycle:     16 Energy:      -185.772835  Gnorm:      0.000000  CPU:    0.027
  ** Hessian calculated **

  XYZ File written as 006/0/sp_mod_40/sp_mod_40_eig.xyz



  **** Optimisation achieved ****


  Final energy =    -185.77283475 eV
  Final Gnorm  =       0.00000023

  Components of energy : 

--------------------------------------------------------------------------------
  Interatomic potentials     =          37.37737891 eV    
  Monopole - monopole (real) =        -223.15021366 eV    
--------------------------------------------------------------------------------
  Total lattice energy       =        -185.77283475 eV    
--------------------------------------------------------------------------------
  Total lattice energy       =          -17924.2388 kJ/mol
--------------------------------------------------------------------------------

  Final cartesian coordinates of atoms :

--------------------------------------------------------------------------------
   No.  Atomic        x           y          z          Radius
        Label       (Angs)      (Angs)     (Angs)       (Angs) 
--------------------------------------------------------------------------------
     1  Al    c     0.325045   -2.314955   -1.936982    0.000000
     2  Al    c     2.011237   -0.548016   -0.756062    0.000000
     3  Al    c    -0.361234    0.303094   -1.743592    0.000000
     4  F     c     3.582673   -0.192809    0.061361    0.000000
     5  F     c    -0.077262   -4.008487   -2.428257    0.000000
     6  F     c     2.138650   -1.730610   -2.317021    0.000000
     7  F     c     1.507761    0.722396   -2.161364    0.000000
     8  F     c    -1.530362    1.641418   -2.069739    0.000000
     9  F     c    -1.141330   -1.345859   -1.052925    0.000000
    10  F     c    -0.081264   -0.934247   -3.242276    0.000000
    11  F     c     0.447695    0.310785    0.027987    0.000000
    12  F     c     1.078584   -2.142221   -0.127671    0.000000
    13  F     s     3.336285   -0.248640   -0.066352    0.000000
    14  F     s    -0.013592   -3.741889   -2.351778    0.000000
    15  F     s     1.955205   -1.678919   -2.132910    0.000000
    16  F     s     1.377164    0.563111   -1.984691    0.000000
    17  F     s    -1.347383    1.431502   -2.018225    0.000000
    18  F     s    -0.930572   -1.278111   -1.205573    0.000000
    19  F     s    -0.072383   -0.951741   -2.977813    0.000000
    20  F     s     0.520043    0.232668   -0.213088    0.000000
    21  F     s     1.100654   -2.006761   -0.359214    0.000000
--------------------------------------------------------------------------------


  Final Cartesian derivatives :

--------------------------------------------------------------------------------
   No.  Atomic          x             y             z           Radius
        Label       (eV/Angs)     (eV/Angs)    (eV/Angs)      (eV/Angs)
--------------------------------------------------------------------------------
      1 Al    c       0.000000      0.000000      0.000000      0.000000
      2 Al    c       0.000000      0.000000      0.000000      0.000000
      3 Al    c       0.000000      0.000000      0.000000      0.000000
      4 F     c       0.000000      0.000000      0.000000      0.000000
      5 F     c       0.000000      0.000000      0.000000      0.000000
      6 F     c       0.000000      0.000000      0.000000      0.000000
      7 F     c       0.000000      0.000000      0.000000      0.000000
      8 F     c       0.000000      0.000000      0.000000      0.000000
      9 F     c       0.000000      0.000000      0.000000      0.000000
     10 F     c       0.000000      0.000000      0.000000      0.000000
     11 F     c       0.000000      0.000000      0.000000      0.000000
     12 F     c       0.000000      0.000000      0.000000      0.000000
     13 F     s      -0.000003     -0.000000     -0.000001      0.000000
     14 F     s       0.000000      0.000002      0.000001      0.000000
     15 F     s       0.000000      0.000001     -0.000001      0.000000
     16 F     s       0.000001      0.000000     -0.000002      0.000000
     17 F     s       0.000000     -0.000000      0.000000      0.000000
     18 F     s      -0.000000     -0.000000      0.000002      0.000000
     19 F     s       0.000001      0.000000     -0.000001      0.000000
     20 F     s      -0.000001     -0.000001      0.000001      0.000000
     21 F     s      -0.000001      0.000000      0.000002      0.000000
--------------------------------------------------------------------------------
  Maximum abs         0.000003      0.000002      0.000002      0.000000
--------------------------------------------------------------------------------


  Born effective charge tensors : 

-------------------------------------------------------------------------------
  Atom             x           y             z
-------------------------------------------------------------------------------
    1 Al    x       1.2590     -0.1247      0.0069
            y      -0.1229      0.8551     -0.0931
            z       0.0087     -0.0887      1.2087
-------------------------------------------------------------------------------
    2 Al    x       0.9011     -0.0949     -0.1587
            y      -0.0963      1.2795     -0.0145
            z      -0.1553     -0.0179      1.1430
-------------------------------------------------------------------------------
    3 Al    x       1.0752      0.2247     -0.0262
            y       0.2244      1.0285      0.0986
            z      -0.0312      0.0981      1.2199
-------------------------------------------------------------------------------
    4 F     x      -0.0705      0.1082      0.2422
            y       0.1081     -0.5219      0.0535
            z       0.2422      0.0531     -0.4085
-------------------------------------------------------------------------------
    5 F     x      -0.5131      0.1308      0.0328
            y       0.1308      0.0014      0.1573
            z       0.0328      0.1572     -0.4897
-------------------------------------------------------------------------------
    6 F     x      -0.3821      0.0049     -0.0337
            y      -0.0170     -0.4074     -0.0394
            z      -0.0077     -0.0595     -0.3636
-------------------------------------------------------------------------------
    7 F     x      -0.4280      0.0022     -0.0396
            y       0.0137     -0.4012      0.0034
            z      -0.0301      0.0316     -0.3456
-------------------------------------------------------------------------------
    8 F     x      -0.2814     -0.2991      0.0683
            y      -0.2992     -0.2026     -0.0856
            z       0.0680     -0.0859     -0.5169
-------------------------------------------------------------------------------
    9 F     x      -0.4121      0.0339     -0.0143
            y       0.0275     -0.4302     -0.0254
            z       0.0177     -0.0094     -0.3335
-------------------------------------------------------------------------------
   10 F     x      -0.3581      0.0113     -0.0035
            y       0.0206     -0.4274     -0.0322
            z      -0.0402     -0.0430     -0.3700
-------------------------------------------------------------------------------
   11 F     x      -0.3998      0.0311     -0.0253
            y       0.0170     -0.3748      0.0009
            z      -0.0374     -0.0337     -0.3568
-------------------------------------------------------------------------------
   12 F     x      -0.3902     -0.0285     -0.0488
            y      -0.0067     -0.3992     -0.0235
            z      -0.0674     -0.0018     -0.3869
-------------------------------------------------------------------------------




  Moment of inertia tensor (10^-46 x kgm^2): 

-------------------------------------------------------------------------------
                x           y           z           Principal axis system
-------------------------------------------------------------------------------
       x        130.99        4.43      -23.51          119.185958
       y          4.43      121.01       -9.38          119.596473
       z        -23.51       -9.38      167.96          181.169346
-------------------------------------------------------------------------------
  Centre of mass (Ang) =     0.658350    -0.853293    -1.478878
-------------------------------------------------------------------------------


  Vibrational Frequency Calculation : 

--------------------------------------------------------------------------------

  Frequencies (cm-1) and Eigenvectors : 

  Frequency      -0.0000    0.0000    0.0000   14.6790   15.8528   19.8064
  IR Intensity    0.0000    0.0000    0.0000    0.0000    0.0000    0.0000
     in X         0.0000    0.0000    0.0000    0.0000    0.0000    0.0000
     in Y         0.0000    0.0000    0.0000    0.0000    0.0000    0.0000
     in Z         0.0000    0.0000    0.0000    0.0000    0.0000    0.0000
  Raman Intsty    0.0000    0.0000    0.0000    0.0000    0.0000    0.0000

     1 x       0.144272 -0.271082 -0.113089  0.167045 -0.135127 -0.129057
     1 y      -0.047700  0.102699 -0.307029 -0.061949  0.045525 -0.052938
     1 z       0.289827  0.151843  0.005763  0.075981 -0.046719  0.265564
     2 x       0.144272 -0.271082 -0.113089  0.021455  0.130174  0.060281
     2 y      -0.047700  0.102699 -0.307029  0.214160 -0.107326  0.024597
     2 z       0.289827  0.151843  0.005763 -0.129498 -0.200142 -0.123734
     3 x       0.144272 -0.271082 -0.113089 -0.186781  0.004660  0.067648
     3 y      -0.047700  0.102699 -0.307029 -0.153015  0.061873  0.027134
     3 z       0.289827  0.151843  0.005763  0.054342  0.246919 -0.140348
     4 x       0.121070 -0.227487 -0.094903  0.039040  0.235080  0.112020
     4 y      -0.040029  0.086183 -0.257653  0.392203 -0.200256  0.043559
     4 z       0.243217  0.127424  0.004836 -0.241374 -0.361931 -0.231852
     5 x       0.121070 -0.227487 -0.094903  0.303967 -0.243587 -0.236205
     5 y      -0.040029  0.086183 -0.257653 -0.112540  0.082225 -0.091659
     5 z       0.243217  0.127424  0.004836  0.138369 -0.084349  0.490053
     6 x       0.121070 -0.227487 -0.094903  0.039412 -0.140893 -0.090395
     6 y      -0.040029  0.086183 -0.257653  0.158114 -0.009839 -0.209557
     6 z       0.243217  0.127424  0.004836 -0.090437 -0.249836  0.057685
     7 x       0.121070 -0.227487 -0.094903 -0.237918 -0.035073  0.063288
     7 y      -0.040029  0.086183 -0.257653  0.082669  0.009113 -0.147839
     7 z       0.243217  0.127424  0.004836 -0.104932 -0.022941 -0.260873
     8 x       0.121070 -0.227487 -0.094903 -0.344637  0.011422  0.125854
     8 y      -0.040029  0.086183 -0.257653 -0.278836  0.116889  0.047861
     8 z       0.243217  0.127424  0.004836  0.102055  0.447042 -0.262609
     9 x       0.121070 -0.227487 -0.094903  0.093161  0.032779 -0.010561
     9 y      -0.040029  0.086183 -0.257653 -0.202389  0.039732  0.168192
     9 z       0.243217  0.127424  0.004836  0.150013  0.208656  0.152533
    10 x       0.121070 -0.227487 -0.094903 -0.127725 -0.235165 -0.084800
    10 y      -0.040029  0.086183 -0.257653 -0.136134  0.130767 -0.207215
    10 z       0.243217  0.127424  0.004836  0.057164  0.098256  0.044283
    11 x       0.121070 -0.227487 -0.094903 -0.024221  0.246969  0.139498
    11 y      -0.040029  0.086183 -0.257653  0.014527 -0.080521  0.231369
    11 z       0.243217  0.127424  0.004836 -0.014410  0.096586 -0.156120
    12 x       0.121070 -0.227487 -0.094903  0.256872  0.128816 -0.017355
    12 y      -0.040029  0.086183 -0.257653  0.083343 -0.088196  0.166728
    12 z       0.243217  0.127424  0.004836  0.002570 -0.131552  0.165133


  Frequency     117.7767  118.2044  125.5749  126.1165  132.3316  140.4027
  IR Intensity    0.0000    0.0000    0.0159    0.0156    0.0416    0.0002
     in X         0.0000    0.0000    0.0005    0.0122    0.0077    0.0001
     in Y         0.0000    0.0000    0.0141    0.0012    0.0012    0.0000
     in Z         0.0000    0.0000    0.0013    0.0022    0.0326    0.0000
  Raman Intsty    0.0052    0.0000    0.0000    0.0000    0.0000    0.0000

     1 x      -0.113105 -0.008658 -0.017295  0.056533  0.048018 -0.020063
     1 y      -0.034904  0.005977 -0.086998 -0.016685  0.019428  0.012243
     1 z       0.241088 -0.015508 -0.027299  0.024336 -0.097865 -0.024062
     2 x       0.055130 -0.086843 -0.021310  0.078385  0.066341 -0.169614
     2 y       0.021618 -0.052076 -0.068237 -0.019361  0.025329 -0.081035
     2 z      -0.107587  0.203751 -0.024652  0.039637 -0.135909  0.346002
     3 x       0.060675  0.108246 -0.003947  0.078531  0.063657  0.170200
     3 y       0.025546  0.040534 -0.074264 -0.031193  0.024870  0.077771
     3 z      -0.126371 -0.183520 -0.017991  0.026994 -0.132925 -0.332256
     4 x       0.071722 -0.107959 -0.191504 -0.005851 -0.217481  0.193134
     4 y      -0.025777 -0.005945  0.643946  0.365509 -0.091589  0.059651
     4 z      -0.119865  0.222636  0.004268  0.013334  0.460122 -0.410792
     5 x      -0.117002 -0.052709 -0.065738 -0.657438 -0.205867  0.042439
     5 y      -0.034032  0.021784 -0.075965  0.240060 -0.073673 -0.020733
     5 z       0.238031 -0.033685  0.013976 -0.277534  0.429699  0.038235
     6 x      -0.168989 -0.231577  0.001869  0.109078  0.045967 -0.096772
     6 y       0.205362  0.319138 -0.095185 -0.116543  0.043473  0.054938
     6 z      -0.093779 -0.136370 -0.011540  0.083430 -0.155434  0.212656
     7 x       0.076035  0.029331 -0.019445  0.087189  0.074132  0.128116
     7 y       0.460802 -0.031537 -0.116361 -0.027642  0.016181 -0.050426
     7 z       0.220534  0.003482 -0.043442  0.036750 -0.166290  0.060275
     8 x       0.030261  0.087609  0.436684 -0.230626 -0.227304 -0.191131
     8 y      -0.009378  0.015649  0.388060 -0.324022 -0.086919 -0.060519
     8 z      -0.158901 -0.216143  0.267591 -0.116721  0.452430  0.400143
     9 x      -0.181101  0.361395 -0.053975  0.105597  0.043448  0.134894
     9 y      -0.013845  0.074489 -0.083485 -0.023316  0.026770  0.115277
     9 z      -0.128747  0.279876 -0.071840  0.053359 -0.156883 -0.173041
    10 x       0.230903 -0.407863 -0.030163  0.177428  0.099076  0.054622
    10 y       0.042724 -0.101657 -0.076648  0.019730  0.024560 -0.030393
    10 z       0.076225 -0.128427 -0.028894  0.037794 -0.131151 -0.239718
    11 x      -0.145450 -0.009295 -0.061147  0.060243  0.083701 -0.138367
    11 y      -0.473714  0.025162 -0.194493 -0.011696  0.047431  0.050046
    11 z      -0.061845 -0.004389 -0.012384  0.024123 -0.157140 -0.049789
    12 x       0.200405  0.315879  0.034127  0.100027  0.092197 -0.103725
    12 y      -0.166750 -0.310450 -0.116391 -0.041956  0.010798 -0.128542
    12 z       0.019852  0.007392 -0.034389  0.037065 -0.138379  0.174325


  Frequency     141.4819  172.9940  217.7983  244.8709  245.3361  271.9476
  IR Intensity    0.0002    0.0000    0.0008    0.0260    0.0262    0.0112
     in X         0.0000    0.0000    0.0006    0.0203    0.0010    0.0020
     in Y         0.0001    0.0000    0.0001    0.0021    0.0236    0.0002
     in Z         0.0000    0.0000    0.0001    0.0037    0.0016    0.0090
  Raman Intsty    0.0046    0.0000    0.0000    0.0000    0.0000    0.0000

     1 x       0.195909  0.274468 -0.034574  0.009578 -0.066794 -0.051779
     1 y       0.078482 -0.098331  0.012908 -0.013977 -0.282918 -0.012995
     1 z      -0.401019  0.113583 -0.015247  0.001768 -0.084362  0.113348
     2 x      -0.086078 -0.084380  0.003043 -0.230730 -0.128097 -0.049912
     2 y      -0.026614  0.299251  0.020279 -0.057429 -0.020236 -0.022917
     2 z       0.184160  0.035786 -0.001282 -0.125480 -0.058855  0.113094
     3 x      -0.096036 -0.187390 -0.011810 -0.165084  0.106808 -0.058535
     3 y      -0.030441 -0.202123 -0.019038  0.194792 -0.113732 -0.019438
     3 z       0.206130 -0.148295 -0.002812 -0.040131  0.036913  0.109511
     4 x       0.104980  0.096925  0.006306 -0.232160 -0.147215  0.021268
     4 y       0.007016 -0.346544 -0.012134 -0.097677  0.051587  0.005471
     4 z      -0.198411 -0.032550  0.006538 -0.126547 -0.064818 -0.035295
     5 x      -0.235588 -0.327128  0.024774  0.079252 -0.073041  0.019455
     5 y      -0.078520  0.116949 -0.008855 -0.039503 -0.293120  0.013815
     5 z       0.489978 -0.135815  0.011174  0.031300 -0.085568 -0.034531
     6 x       0.165112  0.139203 -0.251719  0.155478 -0.217235 -0.222330
     6 y       0.081710  0.154505 -0.278089 -0.347824  0.107164  0.300130
     6 z      -0.070436  0.099558 -0.172543  0.103849 -0.150345 -0.112344
     7 x      -0.126517 -0.186796  0.346491 -0.143987  0.054566 -0.065912
     7 y      -0.096641  0.066547 -0.125227  0.066033  0.384847 -0.371823
     7 z       0.207173 -0.077833  0.144702 -0.053112  0.216622 -0.162586
     8 x       0.085590  0.222747  0.015046 -0.141007  0.158637  0.013945
     8 y       0.019892  0.232881  0.005793  0.230956 -0.070529  0.008409
     8 z      -0.237256  0.165417  0.002820 -0.029444  0.060936 -0.038285
     9 x       0.112665  0.063640  0.094187  0.282834  0.186957 -0.326769
     9 y      -0.091149 -0.211859 -0.401665  0.130770 -0.109920 -0.061930
     9 z      -0.113902 -0.011371 -0.021866  0.264903  0.119531 -0.230068
    10 x      -0.001822  0.052690 -0.092804  0.358127  0.247649  0.357125
    10 y       0.141345 -0.222974  0.402829  0.164603 -0.079778  0.093054
    10 z      -0.124226 -0.019585  0.028784  0.106434  0.046161  0.129384
    11 x      -0.089377 -0.207489 -0.347053 -0.129793  0.148699  0.105667
    11 y       0.021444  0.074662  0.125360  0.063088  0.442568  0.362202
    11 z       0.247938 -0.086294 -0.144385 -0.054736  0.038192  0.057221
    12 x      -0.031481  0.142992  0.256420  0.231509 -0.254054  0.288482
    12 y      -0.030632  0.137266  0.275127 -0.317477  0.063956 -0.283370
    12 z      -0.188072  0.097194  0.167825 -0.047406 -0.054035  0.026168


  Frequency     294.8719  341.8283  341.9726  363.0086  363.6001  403.2276
  IR Intensity    0.0000    0.0004    0.0004    0.0030    0.0030    0.0000
     in X         0.0000    0.0000    0.0003    0.0024    0.0002    0.0000
     in Y         0.0000    0.0003    0.0000    0.0002    0.0027    0.0000
     in Z         0.0000    0.0001    0.0000    0.0004    0.0001    0.0000
  Raman Intsty    0.1922    0.0195    0.0000    0.0000    0.0000    1.2526

     1 x      -0.004172 -0.004249  0.076984 -0.293668 -0.049769  0.047310
     1 y      -0.023665 -0.034673 -0.027002  0.111801 -0.184348  0.232890
     1 z      -0.010393 -0.016363  0.032388 -0.120942 -0.067670  0.087877
     2 x       0.021893 -0.014235 -0.019177  0.109531 -0.155560 -0.217631
     2 y       0.005158  0.042135  0.001630  0.194887  0.273148 -0.045941
     2 z       0.013509  0.007375 -0.008431  0.094341 -0.026226 -0.123797
     3 x      -0.017570  0.026786 -0.019360 -0.003968  0.250619  0.170774
     3 y       0.019292  0.031644  0.010144 -0.246160  0.111608 -0.185003
     3 z      -0.002675  0.027105 -0.008731 -0.053126  0.139246  0.036899
     4 x       0.025647 -0.017169  0.006676  0.227751 -0.105356 -0.383572
     4 y       0.005441 -0.015260  0.017613  0.030226 -0.064930 -0.086746
     4 z       0.015308  0.037673 -0.079782  0.107373 -0.066147 -0.198851
     5 x      -0.005042  0.026498 -0.003552  0.044395 -0.067041  0.098105
     5 y      -0.027493 -0.033096  0.001972 -0.006249 -0.274101  0.410669
     5 z      -0.011595 -0.093571 -0.000774  0.019582 -0.070602  0.117841
     6 x       0.155105 -0.170833  0.290748 -0.142376 -0.018435  0.139113
     6 y      -0.306764 -0.243994  0.152751 -0.100389  0.040755 -0.054984
     6 z       0.209469 -0.302542 -0.192589  0.293097  0.285229 -0.134838
     7 x       0.006925 -0.126553  0.440278 -0.072812  0.200844  0.086143
     7 y       0.322122 -0.101968 -0.157781  0.021132  0.060172  0.114704
     7 z       0.262266  0.224622  0.183281 -0.012501 -0.430982 -0.107649
     8 x      -0.020599 -0.025443 -0.057935  0.169781  0.073829  0.284741
     8 y       0.021951 -0.011277  0.002413 -0.166277 -0.136524 -0.326416
     8 z      -0.003802  0.035341  0.058279  0.060302  0.008288  0.080092
     9 x      -0.253388 -0.001426 -0.210829 -0.189343  0.048349 -0.152743
     9 y      -0.028922  0.431531  0.186735  0.027356  0.083881 -0.039668
     9 z      -0.324308 -0.115710  0.215198  0.390106 -0.171245  0.090248
    10 x      -0.386631  0.148999 -0.052143  0.177370 -0.139965 -0.018717
    10 y      -0.113190 -0.364321 -0.234439  0.082959  0.093373  0.001441
    10 z      -0.016328 -0.164392  0.292522 -0.298907  0.213974 -0.199058
    11 x       0.150344 -0.156208 -0.376078 -0.117705 -0.184190 -0.055458
    11 y       0.363623 -0.027229  0.135548  0.047290 -0.095780  0.073897
    11 z      -0.049064  0.340810 -0.159741 -0.060417  0.343334  0.196567
    12 x       0.327460  0.312244 -0.082980  0.127093  0.137995  0.001848
    12 y      -0.237703  0.319013 -0.086665 -0.008173  0.054343 -0.095214
    12 z      -0.082472  0.016179 -0.334536 -0.403628 -0.165890  0.154480


  Frequency     448.4245  448.6007  468.4704  478.6307  483.3126  487.7498
  IR Intensity    0.0387    0.0357    0.0009    0.0007    0.0005    0.0001
     in X         0.0000    0.0284    0.0007    0.0000    0.0004    0.0000
     in Y         0.0343    0.0007    0.0001    0.0005    0.0001    0.0001
     in Z         0.0044    0.0066    0.0001    0.0001    0.0001    0.0000
  Raman Intsty    0.0034    0.0002    0.0004    3.1564    0.0000    5.0902

     1 x       0.039955 -0.120534  0.325055  0.179898 -0.140393 -0.154770
     1 y      -0.137653  0.021552 -0.113131  0.042587  0.054855 -0.122856
     1 z      -0.137087 -0.080567  0.131087 -0.388589 -0.070365  0.270014
     2 x      -0.045666 -0.091005 -0.192624 -0.043141 -0.166621  0.118804
     2 y      -0.105338 -0.023065  0.349181 -0.007892 -0.216189  0.033752
     2 z       0.013340 -0.145895  0.171287  0.215271  0.378387 -0.114313
     3 x       0.005337 -0.137412 -0.187145 -0.125703  0.267307  0.031183
     3 y      -0.138070  0.057712 -0.212780  0.014206  0.177969  0.066751
     3 z      -0.014061  0.058227 -0.323336  0.196766 -0.323437 -0.167463
     4 x      -0.108968 -0.296027 -0.052860  0.157199 -0.041103  0.173402
     4 y      -0.022729 -0.069096 -0.000075  0.035073 -0.012876  0.039285
     4 z      -0.053598 -0.153054 -0.026436  0.077588 -0.029605  0.092883
     5 x      -0.081479 -0.015148  0.011550 -0.020933 -0.001739 -0.056330
     5 y      -0.336157 -0.060909  0.001373 -0.076709  0.003904 -0.245007
     5 z      -0.093087 -0.017090  0.005732 -0.015766  0.000015 -0.075430
     6 x       0.259118  0.042368 -0.149000 -0.100789  0.201786  0.365873
     6 y       0.168483  0.240403 -0.202024 -0.123511 -0.046085  0.034087
     6 z       0.010292  0.317090 -0.140978 -0.146805 -0.161269 -0.217856
     7 x      -0.153235  0.365285  0.186830  0.260698 -0.211757  0.026183
     7 y      -0.049142 -0.147711 -0.065973  0.308384  0.082885  0.007264
     7 z       0.111850  0.181289  0.077068 -0.356510 -0.095356 -0.058791
     8 x       0.151052 -0.176464 -0.045951 -0.110668 -0.035948 -0.133581
     8 y      -0.173382  0.205786  0.036134  0.128134  0.042139  0.151443
     8 z       0.045196 -0.049129 -0.014772 -0.035013 -0.002461 -0.034633
     9 x      -0.208782 -0.089985 -0.124475 -0.282736 -0.204182 -0.113785
     9 y       0.387204 -0.173211  0.134459  0.010967 -0.299025 -0.136035
     9 z       0.117354  0.126453  0.062345  0.211076  0.155089  0.127657
    10 x      -0.082912  0.069643 -0.055421  0.078413  0.034421 -0.037905
    10 y       0.368719 -0.172704  0.263076 -0.185585 -0.051393  0.182636
    10 z      -0.017070 -0.285195  0.061388 -0.078191  0.265979 -0.379634
    11 x       0.037502  0.308038  0.395187 -0.010903  0.149374 -0.124979
    11 y      -0.042587 -0.116306 -0.142305 -0.044518 -0.055092  0.127551
    11 z      -0.279941  0.072689  0.163025 -0.029981  0.056342  0.432251
    12 x       0.188150  0.208113 -0.100659  0.016546  0.156465 -0.093178
    12 y       0.153678  0.226781 -0.052393 -0.110509  0.315722 -0.134588
    12 z       0.323220  0.007421 -0.162393  0.345660 -0.170364  0.127568


  Frequency     593.4659  622.2280  623.0304  801.8204  802.5407  904.7821
  IR Intensity    0.1917    0.1156    0.1164    0.0090    0.0088    0.0000
     in X         0.0323    0.0902    0.0066    0.0070    0.0003    0.0000
     in Y         0.0012    0.0092    0.1068    0.0007    0.0079    0.0000
     in Z         0.1582    0.0162    0.0031    0.0013    0.0005    0.0000
  Raman Intsty    0.0000    0.0000    0.0001    0.0000    0.0001    3.0547

     1 x      -0.186093  0.557211 -0.008346 -0.114052 -0.149918 -0.116102
     1 y      -0.061301 -0.198235 -0.055134  0.064359 -0.587628 -0.476743
     1 z       0.388941  0.232594  0.030168 -0.043958 -0.159247 -0.131896
     2 x      -0.195020  0.107009  0.100137  0.466061 -0.284325  0.448848
     2 y      -0.020721 -0.282212 -0.551448  0.169660  0.062235  0.098863
     2 z       0.391073  0.003128 -0.002252  0.248036 -0.120225  0.229308
     3 x      -0.158791  0.236796 -0.340650  0.295369  0.285646 -0.332480
     3 y      -0.034866  0.192048 -0.376305 -0.438765 -0.166461  0.378684
     3 z       0.406049  0.145666 -0.183262  0.070830  0.114133 -0.097217
     4 x      -0.003276 -0.120356  0.060176 -0.375983  0.197640 -0.228603
     4 y      -0.001366 -0.011426  0.043145 -0.086253  0.042093 -0.051650
     4 z      -0.039857 -0.059959  0.033200 -0.195583  0.102204 -0.118669
     5 x       0.004956 -0.030195  0.033986 -0.001528  0.108917  0.057795
     5 y      -0.035755  0.005633  0.142969 -0.017688  0.457241  0.242547
     5 z      -0.042373 -0.013507  0.038420 -0.003828  0.132213  0.069935
     6 x       0.186717 -0.252752 -0.017688  0.013133  0.070676  0.028366
     6 y      -0.039226 -0.001512  0.111576 -0.030646  0.037062  0.002510
     6 z      -0.206254  0.135652  0.134886 -0.051043 -0.000396 -0.030118
     7 x       0.111077 -0.135476  0.151216 -0.063682 -0.031614  0.017664
     7 y       0.116115  0.040646  0.203006  0.024533 -0.033645  0.015207
     7 z      -0.165815 -0.048325 -0.203252 -0.028554  0.040027 -0.029693
     8 x       0.028215 -0.093785 -0.036683 -0.267610 -0.167822  0.169732
     8 y      -0.013855  0.083443  0.081912  0.308378  0.188844 -0.194384
     8 z      -0.026959 -0.030201 -0.006496 -0.074529 -0.047571  0.047602
     9 x       0.179325 -0.228206  0.104397  0.033945 -0.033193 -0.022496
     9 y       0.054908 -0.014686  0.180054  0.053443  0.053986 -0.014066
     9 z      -0.157863  0.140198 -0.084190 -0.031655  0.017952  0.027700
    10 x       0.010565 -0.046736 -0.018349 -0.007397 -0.017819  0.005412
    10 y       0.024234  0.102512  0.117014  0.023563  0.070564  0.011071
    10 z      -0.277520 -0.270410  0.117557  0.054953 -0.033309 -0.039332
    11 x       0.090448 -0.135298 -0.075523 -0.068382  0.016616 -0.014836
    11 y      -0.071638  0.045807  0.102832  0.024811 -0.016870  0.005032
    11 z      -0.280095 -0.067417  0.258226 -0.026436 -0.063201  0.040875
    12 x       0.035342 -0.030878  0.095019 -0.033936  0.033673 -0.013350
    12 y       0.105869  0.093250  0.188737 -0.056155  0.025165 -0.017226
    12 z      -0.216623 -0.240505 -0.103233  0.029085  0.049106  0.031467




--------------------------------------------------------------------------------
  Vibrational properties (for cluster):  Temperature  =       0.000 K
--------------------------------------------------------------------------------
  Zero point energy            =        0.702152 eV
--------------------------------------------------------------------------------

  Phonon density of states : 

--------------------------------------------------------------------------------
 Frequency (cm-1) Density of States                                             
--------------------------------------------------------------------------------
    0.00000 |******************************                                0.057
   14.13722 |*********************************************                 0.086
   28.27444 |                                                              0.000
   42.41166 |                                                              0.000
   56.54888 |                                                              0.000
   70.68610 |                                                              0.000
   84.82332 |                                                              0.000
   98.96054 |                                                              0.000
  113.09776 |************************************************************  0.114
  127.23498 |******************************                                0.057
  141.37221 |***************                                               0.029
  155.50943 |                                                              0.000
  169.64665 |***************                                               0.029
  183.78387 |                                                              0.000
  197.92109 |                                                              0.000
  212.05831 |***************                                               0.029
  226.19553 |                                                              0.000
  240.33275 |******************************                                0.057
  254.46997 |                                                              0.000
  268.60719 |***************                                               0.029
  282.74441 |***************                                               0.029
  296.88163 |                                                              0.000
  311.01885 |                                                              0.000
  325.15607 |                                                              0.000
  339.29329 |******************************                                0.057
  353.43051 |******************************                                0.057
  367.56773 |                                                              0.000
  381.70495 |                                                              0.000
  395.84218 |***************                                               0.029
  409.97940 |                                                              0.000
  424.11662 |                                                              0.000
  438.25384 |******************************                                0.057
  452.39106 |                                                              0.000
  466.52828 |******************************                                0.057
  480.66550 |******************************                                0.057
  494.80272 |                                                              0.000
  508.93994 |                                                              0.000
  523.07716 |                                                              0.000
  537.21438 |                                                              0.000
  551.35160 |                                                              0.000
  565.48882 |                                                              0.000
  579.62604 |***************                                               0.029
  593.76326 |                                                              0.000
  607.90048 |                                                              0.000
  622.03770 |******************************                                0.057
  636.17492 |                                                              0.000
  650.31215 |                                                              0.000
  664.44937 |                                                              0.000
  678.58659 |                                                              0.000
  692.72381 |                                                              0.000
  706.86103 |                                                              0.000
  720.99825 |                                                              0.000
  735.13547 |                                                              0.000
  749.27269 |                                                              0.000
  763.40991 |                                                              0.000
  777.54713 |                                                              0.000
  791.68435 |******************************                                0.057
  805.82157 |                                                              0.000
  819.95879 |                                                              0.000
  834.09601 |                                                              0.000
  848.23323 |                                                              0.000
  862.37045 |                                                              0.000
  876.50767 |                                                              0.000
  890.64489 |***************                                               0.029
--------------------------------------------------------------------------------



  Time to end of optimisation =       0.0374 seconds


  Peak dynamic memory used =       0.65 MB 


  Timing analysis for GULP :

--------------------------------------------------------------------------------
  Task / Subroutine                                          Time (Seconds)
--------------------------------------------------------------------------------
  Calculation of real space energy and derivatives                0.0027
  Calculation of phonons                                          0.0017
  Calculation and manipulation of Hessian matrix                  0.0016
--------------------------------------------------------------------------------
  Total CPU time                                                  0.0374
--------------------------------------------------------------------------------


  Job Finished at 14:40.15 25th May        2022                               

