------------------------------------------------------------
          Invoking FHI-aims ...

          When using FHI-aims, please cite the following reference:

            Volker Blum, Ralf Gehrke, Felix Hanke, Paula Havu,
            Ville Havu, Xinguo Ren, Karsten Reuter, and Matthias Scheffler,
            'Ab Initio Molecular Simulations with Numeric Atom-Centered Orbitals',
            Computer Physics Communications 180, 2175-2196 (2009)

          In addition, many other developments in FHI-aims are likely important for
          your particular application. A partial list of references is given at the end of
          this file. Thank you for giving credit to the authors of these developments.

          For any questions about FHI-aims, please visit our slack channel at

            https://fhi-aims.slack.com

          and our main development and support site at

            https://aims-git.rz-berlin.mpg.de .

          The latter site, in particular, has a wiki to collect information, as well
          as an issue tracker to log discussions, suggest improvements, and report issues
          or bugs. https://aims-git.rz-berlin.mpg.de is also the main development site
          of the project and all new and updated code versions can be obtained there.
          Please send an email to aims-coordinators@fhi-berlin.mpg.de and we will add
          you to these sites. They are for you and everyone is welcome there.

------------------------------------------------------------



  Date     :  20220517, Time     :  111919.505
  Time zero on CPU 1             :   0.418170000000000E-01  s.
  Internal wall clock time zero  :           422018359.505  s.

  FHI-aims created a unique identifier for this run for later identification
  aims_uuid : D9BD4F15-3558-4254-AC12-49D4D241FED2

  Build configuration of the current instance of FHI-aims
  -------------------------------------------------------
  FHI-aims version      : 210914
  Commit number         : GITDIR-NOTFOUND
  CMake host system     : Linux-3.10.0-693.17.1.el7.x86_64
  CMake version         : 3.21.1
  Fortran compiler      : /shared/ucl/apps/intel/2018.Update3/impi/2018.3.222/intel64/bin/mpiifort (Intel) version 18.0.3.20180410
  Fortran compiler flags: -O3 -ip -fp-model precise
  C compiler            : /shared/ucl/apps/intel/2018.Update3/compilers_and_libraries_2018.3.222/linux/bin/intel64/icc (Intel) version 18.0.3.20180410
  C compiler flags      : -O3 -ip -fp-model precise -std=gnu99
  ELPA2 kernel          : AVX2
  Using MPI
  Using ScaLAPACK
  Using LibXC
  Using i-PI
  Using RLSY
  Linking against: /shared/ucl/apps/intel/2019.Update5/compilers_and_libraries_2019.5.281/linux/mkl/lib/intel64/libmkl_intel_lp64.so
                   /shared/ucl/apps/intel/2019.Update5/compilers_and_libraries_2019.5.281/linux/mkl/lib/intel64/libmkl_sequential.so
                   /shared/ucl/apps/intel/2019.Update5/compilers_and_libraries_2019.5.281/linux/mkl/lib/intel64/libmkl_core.so
                   /shared/ucl/apps/intel/2019.Update5/compilers_and_libraries_2019.5.281/linux/mkl/lib/intel64/libmkl_blacs_intelmpi_lp64.so
                   /shared/ucl/apps/intel/2019.Update5/compilers_and_libraries_2019.5.281/linux/mkl/lib/intel64/libmkl_scalapack_lp64.so

  Using       24 parallel tasks.
  Task        0 on host node-k98a-025 reporting.
  Task        1 on host node-k98a-025 reporting.
  Task        2 on host node-k98a-025 reporting.
  Task        3 on host node-k98a-025 reporting.
  Task        4 on host node-k98a-025 reporting.
  Task        5 on host node-k98a-025 reporting.
  Task        6 on host node-k98a-025 reporting.
  Task        7 on host node-k98a-025 reporting.
  Task        8 on host node-k98a-025 reporting.
  Task        9 on host node-k98a-025 reporting.
  Task       10 on host node-k98a-025 reporting.
  Task       11 on host node-k98a-025 reporting.
  Task       12 on host node-k98a-025 reporting.
  Task       13 on host node-k98a-025 reporting.
  Task       14 on host node-k98a-025 reporting.
  Task       15 on host node-k98a-025 reporting.
  Task       16 on host node-k98a-025 reporting.
  Task       17 on host node-k98a-025 reporting.
  Task       18 on host node-k98a-025 reporting.
  Task       19 on host node-k98a-025 reporting.
  Task       20 on host node-k98a-025 reporting.
  Task       21 on host node-k98a-025 reporting.
  Task       22 on host node-k98a-025 reporting.
  Task       23 on host node-k98a-025 reporting.

  Performing system and environment tests:
  | Environment variable OMP_NUM_THREADS correctly set to 1.
  | Checking for ScaLAPACK...
  | Testing pdtran()...
  | All pdtran() tests passed.

  Obtaining array dimensions for all initial allocations:
  
  -----------------------------------------------------------------------
  Parsing control.in (first pass over file, find array dimensions only).
  The contents of control.in will be repeated verbatim below
  unless switched off by setting 'verbatim_writeout .false.' .
  in the first line of control.in .
  -----------------------------------------------------------------------
  
  #########################################################################################  Physical model
  #########################################################################################
  xc                 pbesol
  spin               none
  relativistic       atomic_zora scalar
  charge             0.0
  #  SCF convergence
  occupation_type    gaussian 0.01
  mixer              pulay
  n_max_pulay        10
  charge_mix_param   0.5
  sc_accuracy_rho    1E-5
  sc_accuracy_eev    1E-3
  sc_accuracy_etot   1E-6
  sc_accuracy_forces 1E-4
  sc_iter_limit      1500
  #  Relaxation
  #relax_geometry   bfgs 1.e-3
  
  ################################################################################
  #
  #  FHI-aims code project
  #  VB, Fritz-Haber Institut, 2009
  #
  #  Suggested "light" defaults for Al atom (to be pasted into control.in file)
  #  Be sure to double-check any results obtained with these settings for post-processing,
  #  e.g., with the "tight" defaults and larger basis sets.
  #
  ################################################################################
    species        Al
  #     global species definitions
      nucleus             13
      mass                26.9815386
  #
      l_hartree           4
  #
      cut_pot             3.5          1.5  1.0
      basis_dep_cutoff    1e-4
  #
      radial_base         41 5.0
      radial_multiplier   1
      angular_grids       specified
        division   0.6594  110
        division   0.8170  194
        division   0.9059  302
  #      division   1.0363  434
  #      division   1.1443  590
  #      division   1.2621  770
  #      division   2.8177  974
  #      outer_grid   974
        outer_grid   302
  ################################################################################
  #
  #  Definition of "minimal" basis
  #
  ################################################################################
  #     valence basis states
      valence      3  s   2.
      valence      3  p   1.
  #     ion occupancy
      ion_occ      3  s   1.
      ion_occ      2  p   6.
  ################################################################################
  #
  #  Suggested additional basis functions. For production calculations,
  #  uncomment them one after another (the most important basis functions are
  #  listed first).
  #
  #  Constructed for dimers: 2.0 A, 2.5 A, 3.0 A, 3.75 A, 4.5 A
  #
  ################################################################################
  #  "First tier" - improvements: -199.47 meV to -10.63 meV
       ionic 3 d auto
       ionic 3 p auto
  #     hydro 4 f 4.7
       ionic 3 s auto
  #  "Second tier" - improvements: -5.35 meV to -1.57 meV
  #     hydro 5 g 7
  #     hydro 3 d 6
  #     hydro 2 s 11.6
  #     hydro 2 p 0.9
  #  "Third tier" - improvements: -0.63 meV to -0.20 meV
  #     hydro 5 f 7.6
  #     hydro 4 p 7.2
  #     hydro 4 s 3.7
  #     hydro 4 d 7.6
  #  "Fourth tier" - improvements: -0.17 meV to -0.08 meV
  #     hydro 4 d 13.6
  #     hydro 5 g 11.2
  #     hydro 4 d 0.9
  #     hydro 1 s 0.4
  #     hydro 4 p 0.1
  #     hydro 5 f 9.8
  #  Further basis functions that fell out of the optimization - noise level...
  #     hydro 4 p 5
  
  ################################################################################
  #
  #  FHI-aims code project
  #  VB, Fritz-Haber Institut, 2009
  #
  #  Suggested "light" defaults for F atom (to be pasted into control.in file)
  #  Be sure to double-check any results obtained with these settings for post-processing,
  #  e.g., with the "tight" defaults and larger basis sets.
  #
  ################################################################################
    species        F
  #     global species definitions
      nucleus             9
      mass                18.9984032
  #
      l_hartree           4
  #
      cut_pot             3.5  1.5  1.0
      basis_dep_cutoff    1e-4
  #
      radial_base         37 5.0
      radial_multiplier   1
      angular_grids specified
        division   0.4014  110
        division   0.5291  194
        division   0.6019  302
  #      division   0.6814  434
  #      division   0.7989  590
  #      division   0.8965  770
  #      division   1.3427  974
  #      outer_grid   974
        outer_grid   302
  ################################################################################
  #
  #  Definition of "minimal" basis
  #
  ################################################################################
  #     valence basis states
      valence      2  s   2.
      valence      2  p   5.
  #     ion occupancy
      ion_occ      2  s   1.
      ion_occ      2  p   4.
  ################################################################################
  #
  #  Suggested additional basis functions. For production calculations,
  #  uncomment them one after another (the most important basis functions are
  #  listed first).
  #
  #  Constructed for dimers: 1.2 A, 1.418 A, 1.75 A, 2.25 A, 3.25 A
  #
  ################################################################################
  #  "First tier" - improvements: -149.44 meV to -45.88 meV
       hydro 2 p 1.7
       hydro 3 d 7.4
       hydro 3 s 6.8
  #  "Second tier" - improvements: -12.96 meV to -1.56 meV
  #     hydro 4 f 11.2
  #     ionic 2 p auto
  #     hydro 1 s 0.75
  #     hydro 4 d 8.8
  #     hydro 5 g 16.8
  #  "Third tier" - improvements: -0.58 meV to -0.05 meV
  #     hydro 3 p 6.2
  #     hydro 3 s 3.2
  #     hydro 4 f 9.6
  #     hydro 3 s 19.6
  #     hydro 4 d 8.6
  #     hydro 5 g 14.4
  # Further basis functions: -0.05 meV and below
  #     hydro 3 p 4.2
  
  -----------------------------------------------------------------------
  Completed first pass over input file control.in .
  -----------------------------------------------------------------------
  
  
  -----------------------------------------------------------------------
  Parsing geometry.in (first pass over file, find array dimensions only).
  The contents of geometry.in will be repeated verbatim below
  unless switched off by setting 'verbatim_writeout .false.' .
  in the first line of geometry.in .
  -----------------------------------------------------------------------
  
  atom 1.131157262 -0.071738284 2.443539237 Al
  atom 1.301286800 1.172018800 -0.037100200 Al
  atom -0.194486185 0.975354364 -2.372364673 Al
  atom -1.611845804 -0.209899744 -2.360160677 F
  atom 1.994761592 -0.422344154 0.775450713 F
  atom 0.251344984 1.975699054 -3.790213194 F
  atom -0.283526026 1.997823281 -0.774545095 F
  atom 2.660937953 2.369588309 -0.183247044 F
  atom 1.310147023 0.079975328 -1.627063977 F
  atom 0.401086871 1.495502223 1.627969902 F
  atom 2.384876930 0.410266419 3.696997209 F
  atom -0.165348041 -1.271235859 2.716030186 F
  
  -----------------------------------------------------------------------
  Completed first pass over input file geometry.in .
  -----------------------------------------------------------------------
  

  Basic array size parameters:
  | Number of species                 :        2
  | Number of atoms                   :       12
  | Max. basis fn. angular momentum   :        2
  | Max. atomic/ionic basis occupied n:        3
  | Max. number of basis fn. types    :        3
  | Max. radial fns per species/type  :        5
  | Max. logarithmic grid size        :     1340
  | Max. radial integration grid size :       41
  | Max. angular integration grid size:      302
  | Max. angular grid division number :        8
  | Radial grid for Hartree potential :     1340
  | Number of spin channels           :        1

------------------------------------------------------------
          Reading file control.in.
------------------------------------------------------------
  XC: Using PBEsol gradient-corrected functionals.
  Spin treatment: No spin polarisation.
  Scalar relativistic treatment of kinetic energy: on-site free-atom approximation to ZORA.
  Charge =   0.000000E+00: Neutral system requested explicitly.
  Occupation type: Gaussian broadening, width =   0.100000E-01 eV.
  Using pulay charge density mixing.
  Pulay mixing - number of memorized iterations:   10
  Charge density mixing - mixing parameter:     0.5000
  Convergence accuracy of self-consistent charge density:  0.1000E-04
  Convergence accuracy of sum of eigenvalues:  0.1000E-02
  Convergence accuracy of total energy:  0.1000E-05
  Convergence accuracy of forces:  0.1000E-03
  Maximum number of s.-c. iterations  :  1500
 
  Reading configuration options for species Al                  .
  | Found nuclear charge :  13.0000
  | Found atomic mass :    26.9815386000000      amu
  | Found l_max for Hartree potential  :   4
  | Found cutoff potl. onset [A], width [A], scale factor :    3.50000    1.50000    1.00000
  | Threshold for basis-dependent cutoff potential is   0.100000E-03
  | Found data for basic radial integration grid :    41 points, outermost radius =    5.000 A
  | Found multiplier for basic radial grid :   1
  | Found angular grid specification: user-specified.
  | Specified grid contains     4 separate shells.
  | Check grid settings after all constraints further below.
  | Found free-atom valence shell :  3 s   2.000
  | Found free-atom valence shell :  3 p   1.000
  | Found free-ion valence shell :  3 s   1.000
  | Found free-ion valence shell :  2 p   6.000
  | Found ionic basis function :  3 d , default cutoff radius.
  | Found ionic basis function :  3 p , default cutoff radius.
  | Found ionic basis function :  3 s , default cutoff radius.
  Species Al                  : Missing cutoff potential type.
  Defaulting to exp(1/x)/(1-x)^2 type cutoff potential.
  Species Al: No 'logarithmic' tag. Using default grid for free atom:
  | Default logarithmic grid data [bohr] : 0.1000E-03 0.1000E+03 0.1012E+01
  | Will include ionic basis functions of  2.0-fold positive Al                   ion.
  Species Al: On-site basis accuracy parameter (for Gram-Schmidt orthonormalisation) not specified.
  Using default value basis_acc =  0.1000000E-03.
  Species Al                  : Using default innermost maximum threshold i_radial=  2 for radial functions.
  Species Al                  : Default cutoff onset for free atom density etc. : 0.35000000E+01 AA.
  Species Al                  : Basic radial grid will be enhanced according to radial_multiplier =   1, to contain    41 grid points.
 
  Reading configuration options for species F                   .
  | Found nuclear charge :   9.0000
  | Found atomic mass :    18.9984032000000      amu
  | Found l_max for Hartree potential  :   4
  | Found cutoff potl. onset [A], width [A], scale factor :    3.50000    1.50000    1.00000
  | Threshold for basis-dependent cutoff potential is   0.100000E-03
  | Found data for basic radial integration grid :    37 points, outermost radius =    5.000 A
  | Found multiplier for basic radial grid :   1
  | Found angular grid specification: user-specified.
  | Specified grid contains     4 separate shells.
  | Check grid settings after all constraints further below.
  | Found free-atom valence shell :  2 s   2.000
  | Found free-atom valence shell :  2 p   5.000
  | Found free-ion valence shell :  2 s   1.000
  | Found free-ion valence shell :  2 p   4.000
  | Found hydrogenic basis function :  2 p   1.700
  | Found hydrogenic basis function :  3 d   7.400
  | Found hydrogenic basis function :  3 s   6.800
  Species F                   : Missing cutoff potential type.
  Defaulting to exp(1/x)/(1-x)^2 type cutoff potential.
  Species F : No 'logarithmic' tag. Using default grid for free atom:
  | Default logarithmic grid data [bohr] : 0.1000E-03 0.1000E+03 0.1012E+01
  Species F : On-site basis accuracy parameter (for Gram-Schmidt orthonormalisation) not specified.
  Using default value basis_acc =  0.1000000E-03.
  Species F                   : Using default innermost maximum threshold i_radial=  2 for radial functions.
  Species F                   : Default cutoff onset for free atom density etc. : 0.35000000E+01 AA.
  Species F                   : Basic radial grid will be enhanced according to radial_multiplier =   1, to contain    37 grid points.
 
  Finished reading input file 'control.in'.
 
------------------------------------------------------------


------------------------------------------------------------
          Reading geometry description geometry.in.
------------------------------------------------------------
  | The smallest distance between any two atoms is         1.78716864 AA.
  | The first atom of this pair is atom number                      1 .
  | The second atom of this pair is atom number                    12 .
  Input structure read successfully.
  The structure contains       12 atoms,  and a total of        120.000 electrons.

  Input geometry:
  | No unit cell requested.
  | Atomic structure:
  |       Atom                x [A]            y [A]            z [A]
  |    1: Species Al            1.13115726       -0.07173828        2.44353924
  |    2: Species Al            1.30128680        1.17201880       -0.03710020
  |    3: Species Al           -0.19448619        0.97535436       -2.37236467
  |    4: Species F            -1.61184580       -0.20989974       -2.36016068
  |    5: Species F             1.99476159       -0.42234415        0.77545071
  |    6: Species F             0.25134498        1.97569905       -3.79021319
  |    7: Species F            -0.28352603        1.99782328       -0.77454510
  |    8: Species F             2.66093795        2.36958831       -0.18324704
  |    9: Species F             1.31014702        0.07997533       -1.62706398
  |   10: Species F             0.40108687        1.49550222        1.62796990
  |   11: Species F             2.38487693        0.41026642        3.69699721
  |   12: Species F            -0.16534804       -1.27123586        2.71603019

 
  Finished reading input file 'control.in'.
 

------------------------------------------------------------
          Reading geometry description geometry.in.
------------------------------------------------------------
 
  Consistency checks for stacksize environment parameter are next.
 
  | Maximum stacksize for task 0: unlimited
  | Maximum stacksize for task 1: unlimited
  | Maximum stacksize for task 2: unlimited
  | Maximum stacksize for task 3: unlimited
  | Maximum stacksize for task 4: unlimited
  | Maximum stacksize for task 5: unlimited
  | Maximum stacksize for task 6: unlimited
  | Maximum stacksize for task 7: unlimited
  | Maximum stacksize for task 8: unlimited
  | Maximum stacksize for task 9: unlimited
  | Maximum stacksize for task 10: unlimited
  | Maximum stacksize for task 11: unlimited
  | Maximum stacksize for task 12: unlimited
  | Maximum stacksize for task 13: unlimited
  | Maximum stacksize for task 14: unlimited
  | Maximum stacksize for task 15: unlimited
  | Maximum stacksize for task 16: unlimited
  | Maximum stacksize for task 17: unlimited
  | Maximum stacksize for task 18: unlimited
  | Maximum stacksize for task 19: unlimited
  | Maximum stacksize for task 20: unlimited
  | Maximum stacksize for task 21: unlimited
  | Maximum stacksize for task 22: unlimited
  | Maximum stacksize for task 23: unlimited
  | Current stacksize for task 0: unlimited
  | Current stacksize for task 1: unlimited
  | Current stacksize for task 2: unlimited
  | Current stacksize for task 3: unlimited
  | Current stacksize for task 4: unlimited
  | Current stacksize for task 5: unlimited
  | Current stacksize for task 6: unlimited
  | Current stacksize for task 7: unlimited
  | Current stacksize for task 8: unlimited
  | Current stacksize for task 9: unlimited
  | Current stacksize for task 10: unlimited
  | Current stacksize for task 11: unlimited
  | Current stacksize for task 12: unlimited
  | Current stacksize for task 13: unlimited
  | Current stacksize for task 14: unlimited
  | Current stacksize for task 15: unlimited
  | Current stacksize for task 16: unlimited
  | Current stacksize for task 17: unlimited
  | Current stacksize for task 18: unlimited
  | Current stacksize for task 19: unlimited
  | Current stacksize for task 20: unlimited
  | Current stacksize for task 21: unlimited
  | Current stacksize for task 22: unlimited
  | Current stacksize for task 23: unlimited
 
  Consistency checks for the contents of control.in are next.
 
  MPI_IN_PLACE appears to work with this MPI implementation.
  | Keeping use_mpi_in_place .true. (see manual).
  Target number of points in a grid batch is not set. Defaulting to  100
  Method for grid partitioning is not set. Defaulting to parallel hash+maxmin partitioning.
  Batch size limit is not set. Defaulting to    200
  By default, will store active basis functions for each batch.
  If in need of memory, prune_basis_once .false. can be used to disable this option.
  communication_type for Hartree potential was not specified.
  Defaulting to calc_hartree .
  Pulay mixer: Number of initial linear mixing iterations not set.
  Defaulting to    0 iterations.
  Work space size for distributed Hartree potential not set.
  Defaulting to   0.200000E+03 MB.
  Algorithm-dependent basis array size parameters:
  | n_max_pulay                         :       10
  Presetting      1001 iterations before the initial mixing cycle
  is restarted anyway using the sc_init_iter criterion / keyword.
  Presetting a factor      1.000 between actual scf density residual
  and density convergence criterion sc_accuracy_rho below which sc_init_iter
  takes no effect.
  Geometry relaxation not requested: no relaxation will be performed.
  Forces evaluation will include force correction term due to incomplete self-consistency (default).
  Handling of forces: Unphysical translation and rotation will be removed from forces.
  No accuracy limit for integral partition fn. given. Defaulting to  0.1000E-14.
  No threshold value for u(r) in integrations given. Defaulting to  0.1000E-05.
  No accuracy for occupation numbers given. Defaulting to  0.1000E-12.
  No threshold value for occupation numbers given. Defaulting to  0.0000E+00.
  No accuracy for fermi level given. Defaulting to  0.1000E-19.
  Maximum # of iterations to find E_F not set. Defaulting to  200.
  Preferred method for the eigenvalue solver ('KS_method') not specified in 'control.in'.
  Calling BLACS routine to test compilation state
  Since ScaLAPACK support is enabled, defaulting to ELPA (via ELSI).
  Will not use alltoall communication since running on < 1024 CPUs.
  Threshold for basis singularities not set.
  Default threshold for basis singularities:  0.1000E-04
  partition_type (choice of integration weights) for integrals was not specified.
  | Using a version of the partition function of Stratmann and coworkers ('stratmann_sparse').
  | At each grid point, the set of atoms used to build the partition table is smoothly restricted to
  | only those atoms whose free-atom density would be non-zero at that grid point.
  Partitioning for Hartree potential was not defined. Using partition_type for integrals.
  | Adjusted default value of keyword multip_moments_threshold to:       0.10000000E-11
  | This value may affect high angular momentum components of the Hartree potential in periodic systems.
  No q(lm)/r^(l+1) cutoff set for long-range Hartree potential.
  | Using default value of  0.100000E-09 .
  | Verify using the multipole_threshold keyword.
  Defaulting to new monopole extrapolation.
  Density update method: automatic selection selected.
  Charge integration errors on the 3D integration grid will be compensated
  by explicit normalization and distribution of residual charges.
  Use the "compensate_multipole_errors" flag to change this behaviour.
  Set 'collect_eigenvectors' to be '.true.' for use_density_matrix .false.
 
  Consistency checks for the contents of geometry.in are next.
 
  Number of empty states per atom not set in control.in - providing a guess from actual geometry.
  | Total number of empty states used during s.c.f. cycle:       36
  If you use a very high smearing, use empty_states (per atom!) in control.in to increase this value.

  Structure-dependent array size parameters: 
  | Maximum number of distinct radial functions  :       14
  | Maximum number of basis functions            :      180
  | Number of Kohn-Sham states (occupied + empty):       96
------------------------------------------------------------

------------------------------------------------------------
          Preparing all fixed parts of the calculation.
------------------------------------------------------------
  Determining machine precision:
    2.225073858507201E-308
  Setting up grids for atomic and cluster calculations.

  Creating wave function, potential, and density for free atoms.

  Species: Al

  List of occupied orbitals and eigenvalues:
    n    l              occ      energy [Ha]    energy [eV]
    1    0           2.0000       -55.621123     -1513.5278
    2    0           2.0000        -3.957030      -107.6763
    3    0           2.0000        -0.272233        -7.4078
    2    1           6.0000        -2.540949       -69.1427
    3    1           1.0000        -0.083300        -2.2667


  Species: F

  List of occupied orbitals and eigenvalues:
    n    l              occ      energy [Ha]    energy [eV]
    1    0           2.0000       -24.399611      -663.9472
    2    0           2.0000        -1.098702       -29.8972
    2    1           5.0000        -0.408210       -11.1080


  Adding cutoff potential to free-atom effective potential.
  Creating fixed part of basis set: Ionic, confined, hydrogenic.
 
  Al                   ion:

  List of free ionic orbitals and eigenvalues:
    n    l      energy [Ha]    energy [eV]
    1    0       -56.418846     -1535.2349
    2    0        -4.732717      -128.7838
    3    0        -0.872690       -23.7471
    2    1        -3.317230       -90.2664


  List of ionic basis orbitals and eigenvalues:
    n    l      energy [Ha]    energy [eV]    outer radius [A]
    3    2        -0.346815        -9.4373       4.594041
    3    1        -0.631870       -17.1940       4.538221
    3    0        -0.872657       -23.7462       4.538221

 
  F                    hydrogenic:
 
  List of hydrogenic basis orbitals: 
    n    l      effective z      eigenvalue [eV]  inner max. [A]     outer max. [A]     outer radius [A]   
    2    1         1.700000        -9.7616           1.243167           1.243167           4.598524
    3    2         7.400000       -82.7828           0.642437           0.642437           3.305741
    3    0         6.800000       -69.9026           0.057798           1.022307           3.781556
 
  Creating atomic-like basis functions for current effective potential.

  Species Al                  :

  List of atomic basis orbitals and eigenvalues:
    n    l      energy [Ha]    energy [eV]    outer radius [A]
    1    0       -55.621123     -1513.5278       0.850197
    2    0        -3.957030      -107.6763       3.144911
    3    0        -0.272233        -7.4078       4.594041
    2    1        -2.540949       -69.1427       3.731966
    3    1        -0.083300        -2.2667       4.594041


  Species F                   :

  List of atomic basis orbitals and eigenvalues:
    n    l      energy [Ha]    energy [eV]    outer radius [A]
    1    0       -24.399611      -663.9472       1.258458
    2    0        -1.098702       -29.8972       4.325857
    2    1        -0.408210       -11.1080       4.487453

  Assembling full basis from fixed parts.
  | Species Al :   atomic orbital   1 s accepted.
  | Species Al :   atomic orbital   2 s accepted.
  | Species Al :    ionic orbital   3 s accepted.
  | Species Al :   atomic orbital   3 s accepted.
  | Species Al :   atomic orbital   2 p accepted.
  | Species Al :    ionic orbital   3 p accepted.
  | Species Al :   atomic orbital   3 p accepted.
  | Species Al :    ionic orbital   3 d accepted.
  | Species F :   atomic orbital   1 s accepted.
  | Species F :    hydro orbital   3 s accepted.
  | Species F :   atomic orbital   2 s accepted.
  | Species F :   atomic orbital   2 p accepted.
  | Species F :    hydro orbital   2 p accepted.
  | Species F :    hydro orbital   3 d accepted.
 
  Basis size parameters after reduction:
  | Total number of radial functions:       14
  | Total number of basis functions :      180
 
  Per-task memory consumption for arrays in subroutine allocate_ext:
  |           4.807768MB.
  Testing on-site integration grid accuracy.
  |  Species  Function  <phi|h_atom|phi> (log., in eV)  <phi|h_atom|phi> (rad., in eV)
           1        1              -1513.5277717935              -1513.5271881332
           1        2               -107.6762691836               -107.6762662489
           1        3                 -6.9467474784                 -6.9471269649
           1        4                  5.5771951849                  5.4862107220 ***
           1        5                -69.1427313144                -69.1427312731
           1        6                 -1.5197375330                 -1.5230432022
           1        7                  6.8210948310                  6.5529872240 ***
           1        8                  4.3216540965                  4.2851170187 ***
           2        9               -663.9471986398               -663.9470363334
           2       10                 16.8514011578                 16.8512525338
           2       11                -28.4490593856                -28.4490661472
           2       12                -11.1080115307                -11.1080620173
           2       13                  7.1940182175                  7.1685154137
           2       14                 44.8544281765                 44.8543763625
 * Note: Onsite integrals marked "***" above are less accurate than
 * onsite_accuracy_threshold =    0.03000 eV. Usually, this is harmless.
 * When in doubt, tighten the "radial" and/or "radial_multiplier" flags to check.

  Preparing densities etc. for the partition functions (integrals / Hartree potential).

  Preparations completed.
  max(cpu_time)          :      0.184 s.
  Wall clock time (cpu1) :      0.183 s.
------------------------------------------------------------

------------------------------------------------------------
          Begin self-consistency loop: Initialization.

          Date     :  20220517, Time     :  111919.736
------------------------------------------------------------

  Initializing index lists of integration centers etc. from given atomic structure:
  | Number of centers in hartree potential         :        12
  | Number of centers in hartree multipole         :        12
  | Number of centers in electron density summation:        12
  | Number of centers in basis integrals           :        12
  | Number of centers in integrals                 :        12
  | Number of centers in hamiltonian               :        12
  * Using 24 tasks for Scalapack Eigenvalue solver.
  Detailed listing of tasks and assigned k-points:
  (for non-periodic systems, the "k-point" denotes an internal label only)
   Task     0 k-point     1 on node-k98a-025
   Task     1 k-point     1 on node-k98a-025
   Task     2 k-point     1 on node-k98a-025
   Task     3 k-point     1 on node-k98a-025
   Task     4 k-point     1 on node-k98a-025
   Task     5 k-point     1 on node-k98a-025
   Task     6 k-point     1 on node-k98a-025
   Task     7 k-point     1 on node-k98a-025
   Task     8 k-point     1 on node-k98a-025
   Task     9 k-point     1 on node-k98a-025
   Task    10 k-point     1 on node-k98a-025
   Task    11 k-point     1 on node-k98a-025
   Task    12 k-point     1 on node-k98a-025
   Task    13 k-point     1 on node-k98a-025
   Task    14 k-point     1 on node-k98a-025
   Task    15 k-point     1 on node-k98a-025
   Task    16 k-point     1 on node-k98a-025
   Task    17 k-point     1 on node-k98a-025
   Task    18 k-point     1 on node-k98a-025
   Task    19 k-point     1 on node-k98a-025
   Task    20 k-point     1 on node-k98a-025
   Task    21 k-point     1 on node-k98a-025
   Task    22 k-point     1 on node-k98a-025
   Task    23 k-point     1 on node-k98a-025
  Tasks:    24 split into      6 X      4 BLACS grid
  Calculating block size based on n_basis =          180  max_nprow =            6  max_npcol =            4
  ScaLAPACK block size set to:           16
  Allocating        0.012 MB for ovlp
  Allocating        0.012 MB for ham
  Allocating        0.012 MB for eigenvec
  Required Scalapack workspace - INTEGER:            1  REAL:             1
  Partitioning the integration grid into batches with parallel hashing+maxmin method.
  | Number of batches:     1074
  | Maximal batch size:     200
  | Minimal batch size:      24
  | Average batch size:      85.587
  | Standard deviation of batch sizes:      26.344

  Integration load balanced across    24 MPI tasks.
  Work distribution over tasks is as follows:
  Task     0 has       3817 integration points.
  Task     1 has       3822 integration points.
  Task     2 has       3913 integration points.
  Task     3 has       3823 integration points.
  Task     4 has       3762 integration points.
  Task     5 has       3816 integration points.
  Task     6 has       3822 integration points.
  Task     7 has       3915 integration points.
  Task     8 has       3751 integration points.
  Task     9 has       3806 integration points.
  Task    10 has       3810 integration points.
  Task    11 has       3863 integration points.
  Task    12 has       3929 integration points.
  Task    13 has       3801 integration points.
  Task    14 has       3750 integration points.
  Task    15 has       3874 integration points.
  Task    16 has       3800 integration points.
  Task    17 has       3888 integration points.
  Task    18 has       3904 integration points.
  Task    19 has       3816 integration points.
  Task    20 has       3806 integration points.
  Task    21 has       3814 integration points.
  Task    22 has       3792 integration points.
  Task    23 has       3826 integration points.
  Initializing partition tables, free-atom densities, potentials, etc. across the integration grid (initialize_grid_storage).
  | initialize_grid_storage: Actual outermost partition radius vs. multipole_radius_free
  | (-- VB: in principle, multipole_radius_free should be larger, hence this output)
  | Species        1: Confinement radius =              4.999999999999999 AA, multipole_radius_free =              5.004487022111096 AA.
  | Species        1: outer_partition_radius set to              5.004487022111096 AA .
  | Species        2: Confinement radius =              4.999999999999999 AA, multipole_radius_free =              5.009370088163274 AA.
  | Species        2: outer_partition_radius set to              5.009370088163274 AA .
  | The sparse table of interatomic distances needs          1.64 kbyte instead of         1.15 kbyte of memory.
  | Using the partition_type stratmann_smoother will reduce your memory usage.
  | Net number of integration points:    91920
  | of which are non-zero points    :    85886
  Renormalizing the initial density to the exact electron count on the 3D integration grid.
  | Initial density: Formal number of electrons (from input files) :     120.0000000000
  | Integrated number of electrons on 3D grid     :     119.9999020225
  | Charge integration error                      :      -0.0000979775
  | Normalization factor for density and gradient :       1.0000008165
  Renormalizing the free-atom superposition density to the exact electron count on the 3D integration grid.
  | Formal number of electrons (from input files) :     120.0000000000
  | Integrated number of electrons on 3D grid     :     119.9999020225
  | Charge integration error                      :      -0.0000979775
  | Normalization factor for density and gradient :       1.0000008165
  Obtaining max. number of non-zero basis functions in each batch (get_n_compute_maxes).
  | Maximal number of non-zero basis functions:      163 in task     0
  | Maximal number of non-zero basis functions:      166 in task     1
  | Maximal number of non-zero basis functions:      160 in task     2
  | Maximal number of non-zero basis functions:      166 in task     3
  | Maximal number of non-zero basis functions:      161 in task     4
  | Maximal number of non-zero basis functions:      162 in task     5
  | Maximal number of non-zero basis functions:      160 in task     6
  | Maximal number of non-zero basis functions:      165 in task     7
  | Maximal number of non-zero basis functions:      165 in task     8
  | Maximal number of non-zero basis functions:      161 in task     9
  | Maximal number of non-zero basis functions:      158 in task    10
  | Maximal number of non-zero basis functions:      164 in task    11
  | Maximal number of non-zero basis functions:      165 in task    12
  | Maximal number of non-zero basis functions:      161 in task    13
  | Maximal number of non-zero basis functions:      159 in task    14
  | Maximal number of non-zero basis functions:      160 in task    15
  | Maximal number of non-zero basis functions:      160 in task    16
  | Maximal number of non-zero basis functions:      161 in task    17
  | Maximal number of non-zero basis functions:      160 in task    18
  | Maximal number of non-zero basis functions:      164 in task    19
  | Maximal number of non-zero basis functions:      159 in task    20
  | Maximal number of non-zero basis functions:      151 in task    21
  | Maximal number of non-zero basis functions:      163 in task    22
  | Maximal number of non-zero basis functions:      163 in task    23
  Selecting the method for density update.
  Loop over occupied states selected for charge density update.
  Allocating        0.132 MB for KS_eigenvector
  Integrating Hamiltonian matrix: batch-based integration.
  Time summed over all CPUs for integration: real work        0.679 s, elapsed        0.715 s
  Integrating overlap matrix.
  Time summed over all CPUs for integration: real work        0.263 s, elapsed        0.278 s
  Deallocating overlap matrix.

  Updating Kohn-Sham eigenvalues and eigenvectors using ELSI and the ELPA eigensolver.
  Overlap matrix is not singular
  | Lowest and highest eigenvalues :  0.3448E-02,  0.4852E+01
  Finished singularity check of overlap matrix
  | Time :     0.004 s
  Starting ELPA eigensolver
  Finished Cholesky decomposition
  | Time :     0.002 s
  Finished transformation to standard eigenproblem
  | Time :     0.000 s
  Finished solving standard eigenproblem
  | Time :     0.004 s
  Finished back-transformation of eigenvectors
  | Time :     0.000 s

  Obtaining occupation numbers and chemical potential using ELSI.
  | Chemical potential (Fermi level):    -7.65213783 eV
  Writing Kohn-Sham eigenvalues.

  State    Occupation    Eigenvalue [Ha]    Eigenvalue [eV]
      1       2.00000         -55.485654        -1509.84146
      2       2.00000         -55.483960        -1509.79537
      3       2.00000         -55.483956        -1509.79526
      4       2.00000         -24.359499         -662.85569
      5       2.00000         -24.359377         -662.85237
      6       2.00000         -24.359366         -662.85209
      7       2.00000         -24.359329         -662.85106
      8       2.00000         -24.344085         -662.43625
      9       2.00000         -24.343525         -662.42103
     10       2.00000         -24.340375         -662.33530
     11       2.00000         -24.338160         -662.27503
     12       2.00000         -24.337027         -662.24421
     13       2.00000          -3.951283         -107.51989
     14       2.00000          -3.949037         -107.45877
     15       2.00000          -3.949030         -107.45857
     16       2.00000          -2.543814          -69.22069
     17       2.00000          -2.543076          -69.20062
     18       2.00000          -2.542640          -69.18875
     19       2.00000          -2.541695          -69.16304
     20       2.00000          -2.541663          -69.16216
     21       2.00000          -2.541245          -69.15081
     22       2.00000          -2.541127          -69.14760
     23       2.00000          -2.539818          -69.11198
     24       2.00000          -2.539758          -69.11033
     25       2.00000          -1.190395          -32.39230
     26       2.00000          -1.180634          -32.12669
     27       2.00000          -1.177845          -32.05079
     28       2.00000          -1.169917          -31.83505
     29       2.00000          -1.154006          -31.40210
     30       2.00000          -1.153217          -31.38064
     31       2.00000          -1.148743          -31.25889
     32       2.00000          -1.145396          -31.16781
     33       2.00000          -1.143791          -31.12415
     34       2.00000          -0.555838          -15.12513
     35       2.00000          -0.548885          -14.93591
     36       2.00000          -0.538581          -14.65555
     37       2.00000          -0.532631          -14.49364
     38       2.00000          -0.515059          -14.01546
     39       2.00000          -0.504000          -13.71452
     40       2.00000          -0.498571          -13.56682
     41       2.00000          -0.495604          -13.48607
     42       2.00000          -0.492635          -13.40528
     43       2.00000          -0.487512          -13.26589
     44       2.00000          -0.484232          -13.17663
     45       2.00000          -0.482366          -13.12586
     46       2.00000          -0.480010          -13.06173
     47       2.00000          -0.476153          -12.95678
     48       2.00000          -0.475162          -12.92981
     49       2.00000          -0.471825          -12.83900
     50       2.00000          -0.465981          -12.67999
     51       2.00000          -0.456742          -12.42857
     52       2.00000          -0.455835          -12.40391
     53       2.00000          -0.455495          -12.39466
     54       2.00000          -0.454037          -12.35497
     55       2.00000          -0.449771          -12.23889
     56       2.00000          -0.449747          -12.23823
     57       2.00000          -0.447469          -12.17625
     58       2.00000          -0.446617          -12.15306
     59       2.00000          -0.446142          -12.14013
     60       2.00000          -0.445090          -12.11151
     61       0.00000          -0.136516           -3.71478
     62       0.00000          -0.107725           -2.93134
     63       0.00000          -0.061534           -1.67443
     64       0.00000          -0.027001           -0.73474
     65       0.00000          -0.021818           -0.59371
     66       0.00000          -0.007350           -0.20001
     67       0.00000          -0.005845           -0.15905
     68       0.00000           0.038973            1.06051
     69       0.00000           0.048630            1.32329
     70       0.00000           0.064842            1.76443
     71       0.00000           0.082829            2.25390
     72       0.00000           0.119396            3.24893
     73       0.00000           0.144439            3.93038
     74       0.00000           0.152981            4.16283
     75       0.00000           0.172765            4.70118
     76       0.00000           0.173946            4.73330
     77       0.00000           0.174852            4.75795
     78       0.00000           0.180762            4.91879
     79       0.00000           0.190553            5.18521
     80       0.00000           0.202021            5.49727
     81       0.00000           0.206433            5.61734
     82       0.00000           0.214612            5.83989
     83       0.00000           0.224676            6.11374
     84       0.00000           0.232549            6.32798
     85       0.00000           0.251090            6.83251
     86       0.00000           0.267295            7.27346
     87       0.00000           0.269508            7.33369
     88       0.00000           0.273103            7.43151
     89       0.00000           0.281338            7.65560
     90       0.00000           0.291993            7.94552
     91       0.00000           0.294184            8.00517
     92       0.00000           0.304144            8.27618
     93       0.00000           0.337813            9.19237
     94       0.00000           0.347851            9.46550
     95       0.00000           0.363101            9.88047
     96       0.00000           0.373387           10.16038

  Highest occupied state (VBM) at    -12.11151003 eV
  | Occupation number:      2.00000000

  Lowest unoccupied state (CBM) at    -3.71477959 eV
  | Occupation number:      0.00000000

  Overall HOMO-LUMO gap:      8.39673044 eV.
  Calculating total energy contributions from superposition of free atom densities.

  Total energy components:
  | Sum of eigenvalues            :        -887.58886915 Ha      -24152.52199648 eV
  | XC energy correction          :        -144.33398160 Ha       -3927.52746986 eV
  | XC potential correction       :         187.93045751 Ha        5113.84793845 eV
  | Free-atom electrostatic energy:        -781.37144208 Ha      -21262.19874788 eV
  | Hartree energy correction     :           0.00000000 Ha           0.00000000 eV
  | Entropy correction            :           0.00000000 Ha           0.00000000 eV
  | ---------------------------
  | Total energy                  :       -1625.36383534 Ha      -44228.40027577 eV
  | Total energy, T -> 0          :       -1625.36383534 Ha      -44228.40027577 eV  <-- do not rely on this value for anything but (periodic) metals
  | Electronic free energy        :       -1625.36383534 Ha      -44228.40027577 eV

  Derived energy quantities:
  | Kinetic energy                :        1627.60646745 Ha       44289.42540048 eV
  | Electrostatic energy          :       -3108.63632118 Ha      -84590.29820639 eV
  | Energy correction for multipole
  | error in Hartree potential    :           0.00000000 Ha           0.00000000 eV
  | Sum of eigenvalues per atom                           :       -2012.71016637 eV
  | Total energy (T->0) per atom                          :       -3685.70002298 eV  <-- do not rely on this value for anything but (periodic) metals
  | Electronic free energy per atom                       :       -3685.70002298 eV
  Initialize hartree_potential_storage
  Max. number of atoms included in rho_multipole:           12

  End scf initialization - timings             :  max(cpu_time)    wall_clock(cpu1)
  | Time for scf. initialization                :        0.109 s           0.109 s
  | Boundary condition initialization           :        0.000 s           0.000 s
  | Integration                                 :        0.043 s           0.043 s
  | Solution of K.-S. eqns.                     :        0.011 s           0.011 s
  | Grid partitioning                           :        0.032 s           0.033 s
  | Preloading free-atom quantities on grid     :        0.015 s           0.015 s
  | Free-atom superposition energy              :        0.005 s           0.005 s
  | Total energy evaluation                     :        0.000 s           0.000 s

  Partial memory accounting:
  | Current value for overall tracked memory usage:
  |   Minimum:        0.273 MB (on task 23)
  |   Maximum:        0.292 MB (on task  0)
  |   Average:        0.287 MB
  | Peak value for overall tracked memory usage:
  |   Minimum:        1.271 MB (on task 21 after allocating wave)
  |   Maximum:        1.390 MB (on task  1 after allocating wave)
  |   Average:        1.354 MB
  | Largest tracked array allocation so far:
  |   Minimum:        0.230 MB (H_times_psi on task 21)
  |   Maximum:        0.422 MB (all_coords on task 10)
  |   Average:        0.270 MB
  Note:  These values currently only include a subset of arrays which are explicitly tracked.
  The "true" memory usage will be greater.
------------------------------------------------------------
  Evaluating new KS density.
  Integration grid: deviation in total charge (<rho> - N_e) =   2.842171E-14

  Time for density update prior                :  max(cpu_time)    wall_clock(cpu1)
  | self-consistency iterative process          :        0.027 s           0.027 s

------------------------------------------------------------
          Begin self-consistency iteration #    1

  Date     :  20220517, Time     :  111919.872
------------------------------------------------------------
  Pulay mixing of updated and previous charge densities.
  Renormalizing the density to the exact electron count on the 3D integration grid.
  | Formal number of electrons (from input files) :     120.0000000000
  | Integrated number of electrons on 3D grid     :     120.0000000000
  | Charge integration error                      :       0.0000000000
  | Normalization factor for density and gradient :       1.0000000000

  Evaluating partitioned Hartree potential by multipole expansion.
  | Original multipole sum: apparent total charge =  -0.177104E-14
  | Sum of charges compensated after spline to logarithmic grids =   0.996781E-04
  | Analytical far-field extrapolation by fixed multipoles:
  | Hartree multipole sum: apparent total charge =  -0.482116E-14
  Summing up the Hartree potential.
  Time summed over all CPUs for potential: real work        0.382 s, elapsed        0.427 s
  | RMS charge density error from multipole expansion :   0.106835E-01

  Integrating Hamiltonian matrix: batch-based integration.
  Time summed over all CPUs for integration: real work        0.636 s, elapsed        0.669 s

  Updating Kohn-Sham eigenvalues and eigenvectors using ELSI and the ELPA eigensolver.
  Starting ELPA eigensolver
  Finished transformation to standard eigenproblem
  | Time :     0.000 s
  Finished solving standard eigenproblem
  | Time :     0.003 s
  Finished back-transformation of eigenvectors
  | Time :     0.001 s

  Obtaining occupation numbers and chemical potential using ELSI.
  | Chemical potential (Fermi level):    -7.76379291 eV
  Writing Kohn-Sham eigenvalues.

  State    Occupation    Eigenvalue [Ha]    Eigenvalue [eV]
      1       2.00000         -55.656303        -1514.48505
      2       2.00000         -55.641986        -1514.09547
      3       2.00000         -55.640755        -1514.06197
      4       2.00000         -24.227552         -659.26523
      5       2.00000         -24.227269         -659.25754
      6       2.00000         -24.226945         -659.24871
      7       2.00000         -24.226761         -659.24371
      8       2.00000         -24.081962         -655.30352
      9       2.00000         -24.077527         -655.18283
     10       2.00000         -24.068552         -654.93863
     11       2.00000         -24.066684         -654.88780
     12       2.00000         -24.065798         -654.86367
     13       2.00000          -4.095748         -111.45098
     14       2.00000          -4.081295         -111.05768
     15       2.00000          -4.080099         -111.02514
     16       2.00000          -2.689982          -73.19813
     17       2.00000          -2.687818          -73.13924
     18       2.00000          -2.687447          -73.12914
     19       2.00000          -2.674846          -72.78627
     20       2.00000          -2.674496          -72.77674
     21       2.00000          -2.673645          -72.75358
     22       2.00000          -2.673293          -72.74399
     23       2.00000          -2.672467          -72.72153
     24       2.00000          -2.671280          -72.68923
     25       2.00000          -1.160691          -31.58400
     26       2.00000          -1.148976          -31.26523
     27       2.00000          -1.143629          -31.11972
     28       2.00000          -1.134262          -30.86485
     29       2.00000          -1.029650          -28.01821
     30       2.00000          -1.024704          -27.88362
     31       2.00000          -1.015621          -27.63644
     32       2.00000          -1.011340          -27.51997
     33       2.00000          -1.010478          -27.49652
     34       2.00000          -0.544431          -14.81473
     35       2.00000          -0.532053          -14.47791
     36       2.00000          -0.519104          -14.12554
     37       2.00000          -0.512292          -13.94017
     38       2.00000          -0.485180          -13.20242
     39       2.00000          -0.469209          -12.76784
     40       2.00000          -0.466568          -12.69595
     41       2.00000          -0.446041          -12.13739
     42       2.00000          -0.445668          -12.12724
     43       2.00000          -0.442994          -12.05447
     44       2.00000          -0.438241          -11.92514
     45       2.00000          -0.425572          -11.58041
     46       2.00000          -0.401241          -10.91833
     47       2.00000          -0.395084          -10.75079
     48       2.00000          -0.375379          -10.21458
     49       2.00000          -0.367239           -9.99307
     50       2.00000          -0.364942           -9.93058
     51       2.00000          -0.339682           -9.24322
     52       2.00000          -0.339111           -9.22768
     53       2.00000          -0.335731           -9.13571
     54       2.00000          -0.334684           -9.10720
     55       2.00000          -0.324891           -8.84075
     56       2.00000          -0.323731           -8.80916
     57       2.00000          -0.321149           -8.73890
     58       2.00000          -0.319861           -8.70387
     59       2.00000          -0.318753           -8.67371
     60       2.00000          -0.317731           -8.64589
     61       0.00000          -0.146185           -3.97790
     62       0.00000          -0.104776           -2.85110
     63       0.00000          -0.069110           -1.88057
     64       0.00000          -0.039868           -1.08486
     65       0.00000          -0.033911           -0.92276
     66       0.00000          -0.015846           -0.43119
     67       0.00000          -0.013350           -0.36328
     68       0.00000           0.026228            0.71371
     69       0.00000           0.033981            0.92467
     70       0.00000           0.060707            1.65193
     71       0.00000           0.063312            1.72281
     72       0.00000           0.106286            2.89218
     73       0.00000           0.137353            3.73755
     74       0.00000           0.144424            3.92998
     75       0.00000           0.168891            4.59577
     76       0.00000           0.173433            4.71936
     77       0.00000           0.176286            4.79697
     78       0.00000           0.180632            4.91525
     79       0.00000           0.193889            5.27599
     80       0.00000           0.197331            5.36966
     81       0.00000           0.202525            5.51098
     82       0.00000           0.215194            5.85572
     83       0.00000           0.215593            5.86657
     84       0.00000           0.226506            6.16355
     85       0.00000           0.240515            6.54476
     86       0.00000           0.248806            6.77036
     87       0.00000           0.252451            6.86953
     88       0.00000           0.256458            6.97859
     89       0.00000           0.264504            7.19753
     90       0.00000           0.272501            7.41514
     91       0.00000           0.296210            8.06028
     92       0.00000           0.306653            8.34447
     93       0.00000           0.322320            8.77078
     94       0.00000           0.359037            9.76990
     95       0.00000           0.369132           10.04459
     96       0.00000           0.371259           10.10247

  Highest occupied state (VBM) at     -8.64589252 eV
  | Occupation number:      2.00000000

  Lowest unoccupied state (CBM) at    -3.97790459 eV
  | Occupation number:      0.00000000

  Overall HOMO-LUMO gap:      4.66798793 eV.

  Total energy components:
  | Sum of eigenvalues            :        -882.31284185 Ha      -24008.95398881 eV
  | XC energy correction          :        -145.65852382 Ha       -3963.57009742 eV
  | XC potential correction       :         189.67167900 Ha        5161.22898598 eV
  | Free-atom electrostatic energy:        -781.37144208 Ha      -21262.19874788 eV
  | Hartree energy correction     :          -5.48520707 Ha        -149.26007857 eV
  | Entropy correction            :           0.00000000 Ha           0.00000000 eV
  | ---------------------------
  | Total energy                  :       -1625.15633582 Ha      -44222.75392671 eV
  | Total energy, T -> 0          :       -1625.15633582 Ha      -44222.75392671 eV  <-- do not rely on this value for anything but (periodic) metals
  | Electronic free energy        :       -1625.15633582 Ha      -44222.75392671 eV

  Derived energy quantities:
  | Kinetic energy                :        1633.92795975 Ha       44461.44195816 eV
  | Electrostatic energy          :       -3113.42577176 Ha      -84720.62578744 eV
  | Energy correction for multipole
  | error in Hartree potential    :           0.04159608 Ha           1.13188694 eV
  | Sum of eigenvalues per atom                           :       -2000.74616573 eV
  | Total energy (T->0) per atom                          :       -3685.22949389 eV  <-- do not rely on this value for anything but (periodic) metals
  | Electronic free energy per atom                       :       -3685.22949389 eV
  Evaluating new KS density.
  Integration grid: deviation in total charge (<rho> - N_e) =   0.000000E+00

  Self-consistency convergence accuracy:
  | Change of charge density      :  0.5962E+00
  | Change of sum of eigenvalues  :  0.1436E+03 eV
  | Change of total energy        :  0.5646E+01 eV


------------------------------------------------------------
  End self-consistency iteration #     1       :  max(cpu_time)    wall_clock(cpu1)
  | Time for this iteration                     :        0.079 s           0.080 s
  | Charge density update                       :        0.026 s           0.025 s
  | Density mixing                              :        0.001 s           0.001 s
  | Hartree multipole update                    :        0.001 s           0.001 s
  | Hartree multipole summation                 :        0.018 s           0.018 s
  | Integration                                 :        0.028 s           0.029 s
  | Solution of K.-S. eqns.                     :        0.004 s           0.004 s
  | Total energy evaluation                     :        0.000 s           0.001 s

  Partial memory accounting:
  | Current value for overall tracked memory usage:
  |   Minimum:        0.273 MB (on task 23)
  |   Maximum:        0.292 MB (on task  0)
  |   Average:        0.287 MB
  | Peak value for overall tracked memory usage:
  |   Minimum:        1.271 MB (on task 21 after allocating wave)
  |   Maximum:        1.390 MB (on task  1 after allocating wave)
  |   Average:        1.354 MB
  | Largest tracked array allocation so far:
  |   Minimum:        0.691 MB (gradient_basis_wave on task 21)
  |   Maximum:        0.760 MB (gradient_basis_wave on task  1)
  |   Average:        0.739 MB
  Note:  These values currently only include a subset of arrays which are explicitly tracked.
  The "true" memory usage will be greater.
------------------------------------------------------------

------------------------------------------------------------
          Begin self-consistency iteration #    2

  Date     :  20220517, Time     :  111919.957
------------------------------------------------------------
  Pulay mixing of updated and previous charge densities.
  Renormalizing the density to the exact electron count on the 3D integration grid.
  | Formal number of electrons (from input files) :     120.0000000000
  | Integrated number of electrons on 3D grid     :     120.0000000000
  | Charge integration error                      :       0.0000000000
  | Normalization factor for density and gradient :       1.0000000000

  Evaluating partitioned Hartree potential by multipole expansion.
  | Original multipole sum: apparent total charge =   0.442759E-14
  | Sum of charges compensated after spline to logarithmic grids =   0.618151E-04
  | Analytical far-field extrapolation by fixed multipoles:
  | Hartree multipole sum: apparent total charge =   0.528851E-14
  Summing up the Hartree potential.
  Time summed over all CPUs for potential: real work        0.380 s, elapsed        0.419 s
  | RMS charge density error from multipole expansion :   0.125508E-01

  Integrating Hamiltonian matrix: batch-based integration.
  Time summed over all CPUs for integration: real work        0.636 s, elapsed        0.667 s

  Updating Kohn-Sham eigenvalues and eigenvectors using ELSI and the ELPA eigensolver.
  Starting ELPA eigensolver
  Finished transformation to standard eigenproblem
  | Time :     0.001 s
  Finished solving standard eigenproblem
  | Time :     0.003 s
  Finished back-transformation of eigenvectors
  | Time :     0.000 s

  Obtaining occupation numbers and chemical potential using ELSI.
  | Chemical potential (Fermi level):    -7.81341112 eV
  Highest occupied state (VBM) at     -9.83847849 eV
  | Occupation number:      2.00000000

  Lowest unoccupied state (CBM) at    -4.18507215 eV
  | Occupation number:      0.00000000

  Overall HOMO-LUMO gap:      5.65340634 eV.

  Checking to see if s.c.f. parameters should be adjusted.

  Total energy components:
  | Sum of eigenvalues            :        -885.43113437 Ha      -24093.80704556 eV
  | XC energy correction          :        -145.16730694 Ha       -3950.20340608 eV
  | XC potential correction       :         189.02537682 Ha        5143.64220886 eV
  | Free-atom electrostatic energy:        -781.37144208 Ha      -21262.19874788 eV
  | Hartree energy correction     :          -2.14843519 Ha         -58.46189602 eV
  | Entropy correction            :           0.00000000 Ha           0.00000000 eV
  | ---------------------------
  | Total energy                  :       -1625.09294177 Ha      -44221.02888669 eV
  | Total energy, T -> 0          :       -1625.09294177 Ha      -44221.02888669 eV  <-- do not rely on this value for anything but (periodic) metals
  | Electronic free energy        :       -1625.09294177 Ha      -44221.02888669 eV

  Derived energy quantities:
  | Kinetic energy                :        1630.06281473 Ha       44356.26601077 eV
  | Electrostatic energy          :       -3109.98844955 Ha      -84627.09149137 eV
  | Energy correction for multipole
  | error in Hartree potential    :           0.04575835 Ha           1.24514804 eV
  | Sum of eigenvalues per atom                           :       -2007.81725380 eV
  | Total energy (T->0) per atom                          :       -3685.08574056 eV  <-- do not rely on this value for anything but (periodic) metals
  | Electronic free energy per atom                       :       -3685.08574056 eV
  Evaluating new KS density.
  Integration grid: deviation in total charge (<rho> - N_e) =   0.000000E+00

  Self-consistency convergence accuracy:
  | Change of charge density      :  0.4729E+00
  | Change of sum of eigenvalues  : -0.8485E+02 eV
  | Change of total energy        :  0.1725E+01 eV


------------------------------------------------------------
  End self-consistency iteration #     2       :  max(cpu_time)    wall_clock(cpu1)
  | Time for this iteration                     :        0.081 s           0.079 s
  | Charge density update                       :        0.026 s           0.025 s
  | Density mixing                              :        0.004 s           0.002 s
  | Hartree multipole update                    :        0.001 s           0.001 s
  | Hartree multipole summation                 :        0.018 s           0.018 s
  | Integration                                 :        0.028 s           0.028 s
  | Solution of K.-S. eqns.                     :        0.004 s           0.004 s
  | Total energy evaluation                     :        0.000 s           0.001 s

  Partial memory accounting:
  | Current value for overall tracked memory usage:
  |   Minimum:        0.274 MB (on task 23)
  |   Maximum:        0.293 MB (on task  0)
  |   Average:        0.288 MB
  | Peak value for overall tracked memory usage:
  |   Minimum:        1.271 MB (on task 21 after allocating wave)
  |   Maximum:        1.390 MB (on task  1 after allocating wave)
  |   Average:        1.354 MB
  | Largest tracked array allocation so far:
  |   Minimum:        0.691 MB (gradient_basis_wave on task 21)
  |   Maximum:        0.760 MB (gradient_basis_wave on task  1)
  |   Average:        0.739 MB
  Note:  These values currently only include a subset of arrays which are explicitly tracked.
  The "true" memory usage will be greater.
------------------------------------------------------------

------------------------------------------------------------
          Begin self-consistency iteration #    3

  Date     :  20220517, Time     :  111920.043
------------------------------------------------------------
  Pulay mixing of updated and previous charge densities.
  Renormalizing the density to the exact electron count on the 3D integration grid.
  | Formal number of electrons (from input files) :     120.0000000000
  | Integrated number of electrons on 3D grid     :     120.0000000000
  | Charge integration error                      :       0.0000000000
  | Normalization factor for density and gradient :       1.0000000000

  Evaluating partitioned Hartree potential by multipole expansion.
  | Original multipole sum: apparent total charge =   0.137747E-14
  | Sum of charges compensated after spline to logarithmic grids =   0.797553E-04
  | Analytical far-field extrapolation by fixed multipoles:
  | Hartree multipole sum: apparent total charge =  -0.836323E-15
  Summing up the Hartree potential.
  Time summed over all CPUs for potential: real work        0.381 s, elapsed        0.426 s
  | RMS charge density error from multipole expansion :   0.173668E-01

  Integrating Hamiltonian matrix: batch-based integration.
  Time summed over all CPUs for integration: real work        0.636 s, elapsed        0.668 s

  Updating Kohn-Sham eigenvalues and eigenvectors using ELSI and the ELPA eigensolver.
  Starting ELPA eigensolver
  Finished transformation to standard eigenproblem
  | Time :     0.000 s
  Finished solving standard eigenproblem
  | Time :     0.003 s
  Finished back-transformation of eigenvectors
  | Time :     0.000 s

  Obtaining occupation numbers and chemical potential using ELSI.
  | Chemical potential (Fermi level):    -8.01566922 eV
  Highest occupied state (VBM) at     -9.51513939 eV
  | Occupation number:      2.00000000

  Lowest unoccupied state (CBM) at    -4.39224364 eV
  | Occupation number:      0.00000000

  Overall HOMO-LUMO gap:      5.12289576 eV.

  Total energy components:
  | Sum of eigenvalues            :        -886.41883934 Ha      -24120.68386544 eV
  | XC energy correction          :        -145.13266997 Ha       -3949.26088603 eV
  | XC potential correction       :         188.97853126 Ha        5142.36747641 eV
  | Free-atom electrostatic energy:        -781.37144208 Ha      -21262.19874788 eV
  | Hartree energy correction     :          -1.14795979 Ha         -31.23757529 eV
  | Entropy correction            :           0.00000000 Ha           0.00000000 eV
  | ---------------------------
  | Total energy                  :       -1625.09237993 Ha      -44221.01359823 eV
  | Total energy, T -> 0          :       -1625.09237993 Ha      -44221.01359823 eV  <-- do not rely on this value for anything but (periodic) metals
  | Electronic free energy        :       -1625.09237993 Ha      -44221.01359823 eV

  Derived energy quantities:
  | Kinetic energy                :        1628.32919730 Ha       44309.09188036 eV
  | Electrostatic energy          :       -3108.28890726 Ha      -84580.84459256 eV
  | Energy correction for multipole
  | error in Hartree potential    :           0.06177012 Ha           1.68085041 eV
  | Sum of eigenvalues per atom                           :       -2010.05698879 eV
  | Total energy (T->0) per atom                          :       -3685.08446652 eV  <-- do not rely on this value for anything but (periodic) metals
  | Electronic free energy per atom                       :       -3685.08446652 eV
  Evaluating new KS density.
  Integration grid: deviation in total charge (<rho> - N_e) =   0.000000E+00

  Self-consistency convergence accuracy:
  | Change of charge density      :  0.1233E+00
  | Change of sum of eigenvalues  : -0.2688E+02 eV
  | Change of total energy        :  0.1529E-01 eV


------------------------------------------------------------
  End self-consistency iteration #     3       :  max(cpu_time)    wall_clock(cpu1)
  | Time for this iteration                     :        0.082 s           0.079 s
  | Charge density update                       :        0.026 s           0.026 s
  | Density mixing                              :        0.004 s           0.001 s
  | Hartree multipole update                    :        0.001 s           0.001 s
  | Hartree multipole summation                 :        0.018 s           0.018 s
  | Integration                                 :        0.028 s           0.028 s
  | Solution of K.-S. eqns.                     :        0.004 s           0.005 s
  | Total energy evaluation                     :        0.000 s           0.000 s

  Partial memory accounting:
  | Current value for overall tracked memory usage:
  |   Minimum:        0.274 MB (on task 23)
  |   Maximum:        0.293 MB (on task  0)
  |   Average:        0.288 MB
  | Peak value for overall tracked memory usage:
  |   Minimum:        1.271 MB (on task 21 after allocating wave)
  |   Maximum:        1.390 MB (on task  1 after allocating wave)
  |   Average:        1.354 MB
  | Largest tracked array allocation so far:
  |   Minimum:        0.691 MB (gradient_basis_wave on task 21)
  |   Maximum:        0.760 MB (gradient_basis_wave on task  1)
  |   Average:        0.739 MB
  Note:  These values currently only include a subset of arrays which are explicitly tracked.
  The "true" memory usage will be greater.
------------------------------------------------------------

------------------------------------------------------------
          Begin self-consistency iteration #    4

  Date     :  20220517, Time     :  111920.128
------------------------------------------------------------
  Pulay mixing of updated and previous charge densities.
  Renormalizing the density to the exact electron count on the 3D integration grid.
  | Formal number of electrons (from input files) :     120.0000000000
  | Integrated number of electrons on 3D grid     :     120.0000000000
  | Charge integration error                      :       0.0000000000
  | Normalization factor for density and gradient :       1.0000000000

  Evaluating partitioned Hartree potential by multipole expansion.
  | Original multipole sum: apparent total charge =   0.498350E-13
  | Sum of charges compensated after spline to logarithmic grids =   0.860807E-04
  | Analytical far-field extrapolation by fixed multipoles:
  | Hartree multipole sum: apparent total charge =   0.488019E-13
  Summing up the Hartree potential.
  Time summed over all CPUs for potential: real work        0.380 s, elapsed        0.418 s
  | RMS charge density error from multipole expansion :   0.192865E-01

  Integrating Hamiltonian matrix: batch-based integration.
  Time summed over all CPUs for integration: real work        0.636 s, elapsed        0.669 s

  Updating Kohn-Sham eigenvalues and eigenvectors using ELSI and the ELPA eigensolver.
  Starting ELPA eigensolver
  Finished transformation to standard eigenproblem
  | Time :     0.000 s
  Finished solving standard eigenproblem
  | Time :     0.003 s
  Finished back-transformation of eigenvectors
  | Time :     0.000 s

  Obtaining occupation numbers and chemical potential using ELSI.
  | Chemical potential (Fermi level):    -7.96472601 eV
  Highest occupied state (VBM) at     -9.65361393 eV
  | Occupation number:      2.00000000

  Lowest unoccupied state (CBM) at    -4.34235164 eV
  | Occupation number:      0.00000000

  Overall HOMO-LUMO gap:      5.31126228 eV.

  Total energy components:
  | Sum of eigenvalues            :        -886.53837701 Ha      -24123.93665093 eV
  | XC energy correction          :        -145.11797158 Ha       -3948.86092247 eV
  | XC potential correction       :         188.95856861 Ha        5141.82426492 eV
  | Free-atom electrostatic energy:        -781.37144208 Ha      -21262.19874788 eV
  | Hartree energy correction     :          -1.02115014 Ha         -27.78690916 eV
  | Entropy correction            :           0.00000000 Ha           0.00000000 eV
  | ---------------------------
  | Total energy                  :       -1625.09037221 Ha      -44220.95896553 eV
  | Total energy, T -> 0          :       -1625.09037221 Ha      -44220.95896553 eV  <-- do not rely on this value for anything but (periodic) metals
  | Electronic free energy        :       -1625.09037221 Ha      -44220.95896553 eV

  Derived energy quantities:
  | Kinetic energy                :        1627.71132184 Ha       44292.27863348 eV
  | Electrostatic energy          :       -3107.68372247 Ha      -84564.37667654 eV
  | Energy correction for multipole
  | error in Hartree potential    :           0.06767652 Ha           1.84157185 eV
  | Sum of eigenvalues per atom                           :       -2010.32805424 eV
  | Total energy (T->0) per atom                          :       -3685.07991379 eV  <-- do not rely on this value for anything but (periodic) metals
  | Electronic free energy per atom                       :       -3685.07991379 eV
  Evaluating new KS density.
  Integration grid: deviation in total charge (<rho> - N_e) =  -1.421085E-14

  Self-consistency convergence accuracy:
  | Change of charge density      :  0.8005E-01
  | Change of sum of eigenvalues  : -0.3253E+01 eV
  | Change of total energy        :  0.5463E-01 eV


------------------------------------------------------------
  End self-consistency iteration #     4       :  max(cpu_time)    wall_clock(cpu1)
  | Time for this iteration                     :        0.082 s           0.079 s
  | Charge density update                       :        0.026 s           0.026 s
  | Density mixing                              :        0.004 s           0.001 s
  | Hartree multipole update                    :        0.001 s           0.002 s
  | Hartree multipole summation                 :        0.018 s           0.017 s
  | Integration                                 :        0.028 s           0.029 s
  | Solution of K.-S. eqns.                     :        0.004 s           0.004 s
  | Total energy evaluation                     :        0.000 s           0.000 s

  Partial memory accounting:
  | Current value for overall tracked memory usage:
  |   Minimum:        0.274 MB (on task 23)
  |   Maximum:        0.293 MB (on task  0)
  |   Average:        0.288 MB
  | Peak value for overall tracked memory usage:
  |   Minimum:        1.271 MB (on task 21 after allocating wave)
  |   Maximum:        1.390 MB (on task  1 after allocating wave)
  |   Average:        1.354 MB
  | Largest tracked array allocation so far:
  |   Minimum:        0.691 MB (gradient_basis_wave on task 21)
  |   Maximum:        0.760 MB (gradient_basis_wave on task  1)
  |   Average:        0.739 MB
  Note:  These values currently only include a subset of arrays which are explicitly tracked.
  The "true" memory usage will be greater.
------------------------------------------------------------

------------------------------------------------------------
          Begin self-consistency iteration #    5

  Date     :  20220517, Time     :  111920.213
------------------------------------------------------------
  Pulay mixing of updated and previous charge densities.
  Renormalizing the density to the exact electron count on the 3D integration grid.
  | Formal number of electrons (from input files) :     120.0000000000
  | Integrated number of electrons on 3D grid     :     120.0000000000
  | Charge integration error                      :      -0.0000000000
  | Normalization factor for density and gradient :       1.0000000000

  Evaluating partitioned Hartree potential by multipole expansion.
  | Original multipole sum: apparent total charge =   0.447679E-14
  | Sum of charges compensated after spline to logarithmic grids =   0.865883E-04
  | Analytical far-field extrapolation by fixed multipoles:
  | Hartree multipole sum: apparent total charge =   0.398483E-14
  Summing up the Hartree potential.
  Time summed over all CPUs for potential: real work        0.380 s, elapsed        0.418 s
  | RMS charge density error from multipole expansion :   0.190788E-01

  Integrating Hamiltonian matrix: batch-based integration.
  Time summed over all CPUs for integration: real work        0.636 s, elapsed        0.668 s

  Updating Kohn-Sham eigenvalues and eigenvectors using ELSI and the ELPA eigensolver.
  Starting ELPA eigensolver
  Finished transformation to standard eigenproblem
  | Time :     0.001 s
  Finished solving standard eigenproblem
  | Time :     0.003 s
  Finished back-transformation of eigenvectors
  | Time :     0.000 s

  Obtaining occupation numbers and chemical potential using ELSI.
  | Chemical potential (Fermi level):    -7.91460608 eV
  Highest occupied state (VBM) at     -9.69730793 eV
  | Occupation number:      2.00000000

  Lowest unoccupied state (CBM) at    -4.28843941 eV
  | Occupation number:      0.00000000

  Overall HOMO-LUMO gap:      5.40886853 eV.

  Total energy components:
  | Sum of eigenvalues            :        -886.35687692 Ha      -24118.99778220 eV
  | XC energy correction          :        -145.11367741 Ha       -3948.74407221 eV
  | XC potential correction       :         188.95310606 Ha        5141.67562154 eV
  | Free-atom electrostatic energy:        -781.37144208 Ha      -21262.19874788 eV
  | Hartree energy correction     :          -1.20134992 Ha         -32.69039452 eV
  | Entropy correction            :           0.00000000 Ha           0.00000000 eV
[...]
   Total forces(   7)            :  0.133452E+01 -0.158975E+01 -0.907076E+00
  atom #    8
   Hellmann-Feynman              :  0.245888E+01  0.218495E+01 -0.294786E+00
   Ionic forces                  :  0.000000E+00  0.000000E+00  0.000000E+00
   Multipole                     :  0.408696E+00  0.356497E+00 -0.398714E-01
   Hartree pot. SCF incomplete   : -0.237386E-06 -0.226525E-06 -0.188207E-07
   Pulay + GGA                   : -0.537148E+01 -0.474050E+01  0.589619E+00
   ----------------------------------------------------------------
   Total forces(   8)            : -0.250391E+01 -0.219905E+01  0.254961E+00
  atom #    9
   Hellmann-Feynman              :  0.538382E+00 -0.101791E+01  0.138182E+00
   Ionic forces                  :  0.000000E+00  0.000000E+00  0.000000E+00
   Multipole                     :  0.370030E+00 -0.301372E+00 -0.259034E+00
   Hartree pot. SCF incomplete   :  0.262597E-07 -0.429904E-06 -0.154118E-05
   Pulay + GGA                   : -0.231214E+01  0.301502E+01  0.664196E+00
   ----------------------------------------------------------------
   Total forces(   9)            : -0.140373E+01  0.169573E+01  0.543343E+00
  atom #   10
   Hellmann-Feynman              : -0.946531E+00  0.627909E+00  0.112623E-01
   Ionic forces                  :  0.000000E+00  0.000000E+00  0.000000E+00
   Multipole                     : -0.225524E+00  0.422979E+00  0.250212E+00
   Hartree pot. SCF incomplete   : -0.359758E-07  0.387283E-06  0.142758E-05
   Pulay + GGA                   :  0.252688E+01 -0.282424E+01 -0.773509E+00
   ----------------------------------------------------------------
   Total forces(  10)            :  0.135482E+01 -0.177336E+01 -0.512033E+00
  atom #   11
   Hellmann-Feynman              :  0.203824E+01  0.826824E+00  0.194126E+01
   Ionic forces                  :  0.000000E+00  0.000000E+00  0.000000E+00
   Multipole                     :  0.533060E+00  0.248307E+00  0.433628E+00
   Hartree pot. SCF incomplete   :  0.616289E-06  0.582380E-06 -0.199551E-06
   Pulay + GGA                   : -0.494769E+01 -0.197329E+01 -0.478076E+01
   ----------------------------------------------------------------
   Total forces(  11)            : -0.237639E+01 -0.898157E+00 -0.240587E+01
  atom #   12
   Hellmann-Feynman              : -0.250347E+01 -0.223330E+01  0.342317E+00
   Ionic forces                  :  0.000000E+00  0.000000E+00  0.000000E+00
   Multipole                     : -0.590297E+00 -0.502083E+00  0.234142E-01
   Hartree pot. SCF incomplete   : -0.155751E-06 -0.181536E-06  0.833532E-07
   Pulay + GGA                   :  0.516682E+01  0.469341E+01 -0.888964E+00
   ----------------------------------------------------------------
   Total forces(  12)            :  0.207305E+01  0.195803E+01 -0.523233E+00


  Self-consistency convergence accuracy:
  | Change of charge density      :  0.9686E-07
  | Change of sum of eigenvalues  : -0.1666E-06 eV
  | Change of total energy        : -0.2475E-09 eV
  | Change of forces              :  0.1987E-06 eV/A

  Writing Kohn-Sham eigenvalues.

  State    Occupation    Eigenvalue [Ha]    Eigenvalue [eV]
      1       2.00000         -55.642365        -1514.10580
      2       2.00000         -55.622202        -1513.55713
      3       2.00000         -55.620328        -1513.50612
      4       2.00000         -24.305251         -661.37953
      5       2.00000         -24.305102         -661.37547
      6       2.00000         -24.304223         -661.35155
      7       2.00000         -24.304098         -661.34815
      8       2.00000         -24.218134         -659.00895
      9       2.00000         -24.214275         -658.90395
     10       2.00000         -24.208994         -658.76023
     11       2.00000         -24.207841         -658.72888
     12       2.00000         -24.207324         -658.71480
     13       2.00000          -4.094544         -111.41822
     14       2.00000          -4.075456         -110.89880
     15       2.00000          -4.073539         -110.84664
     16       2.00000          -2.687514          -73.13098
     17       2.00000          -2.685766          -73.08341
     18       2.00000          -2.684998          -73.06250
     19       2.00000          -2.669232          -72.63349
     20       2.00000          -2.667714          -72.59218
     21       2.00000          -2.667282          -72.58043
     22       2.00000          -2.665773          -72.53939
     23       2.00000          -2.664037          -72.49214
     24       2.00000          -2.662181          -72.44163
     25       2.00000          -1.183889          -32.21527
     26       2.00000          -1.172629          -31.90885
     27       2.00000          -1.167990          -31.78263
     28       2.00000          -1.158926          -31.53598
     29       2.00000          -1.069297          -29.09707
     30       2.00000          -1.064673          -28.97122
     31       2.00000          -1.054889          -28.70498
     32       2.00000          -1.053675          -28.67196
     33       2.00000          -1.051170          -28.60379
     34       2.00000          -0.564584          -15.36311
     35       2.00000          -0.552189          -15.02582
     36       2.00000          -0.539987          -14.69379
     37       2.00000          -0.534853          -14.55409
     38       2.00000          -0.508074          -13.82539
     39       2.00000          -0.491139          -13.36457
     40       2.00000          -0.489130          -13.30989
     41       2.00000          -0.471931          -12.84189
     42       2.00000          -0.467950          -12.73358
     43       2.00000          -0.465626          -12.67032
     44       2.00000          -0.464687          -12.64479
     45       2.00000          -0.449227          -12.22409
     46       2.00000          -0.435009          -11.83721
     47       2.00000          -0.429253          -11.68056
     48       2.00000          -0.411856          -11.20717
     49       2.00000          -0.406854          -11.07106
     50       2.00000          -0.403646          -10.98376
     51       2.00000          -0.375854          -10.22750
     52       2.00000          -0.375324          -10.21308
     53       2.00000          -0.371535          -10.10998
     54       2.00000          -0.371015          -10.09583
     55       2.00000          -0.360994           -9.82315
     56       2.00000          -0.360311           -9.80457
     57       2.00000          -0.359919           -9.79390
     58       2.00000          -0.357908           -9.73917
     59       2.00000          -0.357441           -9.72648
     60       2.00000          -0.355734           -9.68002
     61       0.00000          -0.157609           -4.28875
     62       0.00000          -0.116570           -3.17202
     63       0.00000          -0.079004           -2.14981
     64       0.00000          -0.045630           -1.24166
     65       0.00000          -0.037489           -1.02014
     66       0.00000          -0.019050           -0.51837
     67       0.00000          -0.018875           -0.51360
     68       0.00000           0.020605            0.56068
     69       0.00000           0.028990            0.78886
     70       0.00000           0.056560            1.53909
     71       0.00000           0.057298            1.55915
     72       0.00000           0.101518            2.76245
     73       0.00000           0.130364            3.54739
     74       0.00000           0.142721            3.88363
     75       0.00000           0.163365            4.44538
     76       0.00000           0.167114            4.54740
     77       0.00000           0.168297            4.57959
     78       0.00000           0.176386            4.79970
     79       0.00000           0.187219            5.09448
     80       0.00000           0.190107            5.17307
     81       0.00000           0.197046            5.36189
     82       0.00000           0.209654            5.70498
     83       0.00000           0.211492            5.75499
     84       0.00000           0.218965            5.95835
     85       0.00000           0.234902            6.39200
     86       0.00000           0.245220            6.67278
     87       0.00000           0.248999            6.77561
     88       0.00000           0.250230            6.80910
     89       0.00000           0.258607            7.03706
     90       0.00000           0.269636            7.33717
     91       0.00000           0.289942            7.88973
     92       0.00000           0.302059            8.21945
     93       0.00000           0.318754            8.67373
     94       0.00000           0.350425            9.53555
     95       0.00000           0.361297            9.83140
     96       0.00000           0.365430            9.94387

  Highest occupied state (VBM) at     -9.68001813 eV
  | Occupation number:      2.00000000

  Lowest unoccupied state (CBM) at    -4.28874705 eV
  | Occupation number:      0.00000000

  Overall HOMO-LUMO gap:      5.39127108 eV.
  | Chemical Potential                          :    -7.91608944 eV

  Self-consistency cycle converged.


------------------------------------------------------------
  End self-consistency iteration #    14       :  max(cpu_time)    wall_clock(cpu1)
  | Time for this iteration                     :        0.262 s           0.259 s
  | Charge density & force component update     :        0.138 s           0.138 s
  | Density mixing                              :        0.006 s           0.002 s
  | Hartree multipole update                    :        0.001 s           0.001 s
  | Hartree multipole summation                 :        0.052 s           0.052 s
  | Hartree pot. SCF incomplete forces          :        0.032 s           0.032 s
  | Integration                                 :        0.028 s           0.029 s
  | Solution of K.-S. eqns.                     :        0.004 s           0.003 s
  | Total energy evaluation                     :        0.000 s           0.000 s

  Partial memory accounting:
  | Current value for overall tracked memory usage:
  |   Minimum:        0.274 MB (on task 23)
  |   Maximum:        0.293 MB (on task  0)
  |   Average:        0.289 MB
  | Peak value for overall tracked memory usage:
  |   Minimum:        2.858 MB (on task 21 after allocating hessian_basis_wave)
  |   Maximum:        3.100 MB (on task  1 after allocating hessian_basis_wave)
  |   Average:        3.028 MB
  | Largest tracked array allocation so far:
  |   Minimum:        1.382 MB (hessian_basis_wave on task 21)
  |   Maximum:        1.520 MB (hessian_basis_wave on task  1)
  |   Average:        1.479 MB
  Note:  These values currently only include a subset of arrays which are explicitly tracked.
  The "true" memory usage will be greater.
------------------------------------------------------------
  Removing unitary transformations (pure translations, rotations) from forces on atoms.
  Atomic forces before filtering:
  | Net force on center of mass :   0.528879E-02  0.372489E-03  0.442655E-02 eV/A
  | Net torque on center of mass:  -0.292897E-01  0.341245E-01  0.170198E-01 eV
  Atomic forces after filtering:
  | Net force on center of mass :  -0.356812E-15 -0.713624E-15 -0.535218E-15 eV/A
  | Net torque on center of mass:  -0.453161E-14 -0.160494E-14  0.000000E+00 eV

  Energy and forces in a compact form:
  | Total energy uncorrected      :         -0.442209552136798E+05 eV
  | Total energy corrected        :         -0.442209552136798E+05 eV  <-- do not rely on this value for anything but (periodic) metals
  | Electronic free energy        :         -0.442209552136798E+05 eV
  Total atomic forces (unitary forces cleaned) [eV/Ang]:
  |    1          0.415855972406310E+00         -0.691314332971767E+00          0.232645244078236E+01
  |    2          0.219045966669249E+01          0.196248293550958E+01         -0.274146109137382E+00
  |    3         -0.170938196886416E+01         -0.585367887890351E+00         -0.190633406314773E+01
  |    4          0.271161525856276E+01          0.223823625279334E+01          0.423982852427111E-01
  |    5         -0.138998820471172E+01          0.153121035702126E+01          0.955440666697199E+00
  |    6         -0.692342207767100E+00         -0.164626363768381E+01          0.240734185350908E+01
  |    7          0.133470893578155E+01         -0.158925614196002E+01         -0.907423896913764E+00
  |    8         -0.250386838481132E+01         -0.219947110235770E+01          0.255914812505175E+00
  |    9         -0.140366649055506E+01          0.169612703958564E+01          0.542977197383440E+00
  |   10          0.135392519837316E+01         -0.177385079058691E+01         -0.512278877053593E+00
  |   11         -0.237837040422762E+01         -0.899836428306603E+00         -0.240569519705258E+01
  |   12          0.207105262912072E+01          0.195730373684734E+01         -0.524647112814917E+00

  ------------------------------------ 
  Start decomposition of the XC Energy 
  ------------------------------------ 
  X and C from original XC functional choice 
  Hartree-Fock Energy :          0.000000000 Ha              0.000000000 eV
  X Energy            :       -140.177071699 Ha          -3814.412196084 eV
  C Energy            :         -4.940650960 Ha           -134.441952941 eV
  Total XC Energy     :       -145.117722659 Ha          -3948.854149025 eV
  ------------------------------------ 
  LDA X and C from self-consistent density 
  X Energy LDA        :       -132.749103251 Ha          -3612.286890600 eV
  C Energy LDA        :         -8.823024282 Ha           -240.086706192 eV
  ------------------------------------ 
  End decomposition of the XC Energy 
  ------------------------------------ 

------------------------------------------------------------

------------------------------------------------------------------------------
  Final output of selected total energy values:

  The following output summarizes some interesting total energy values
  at the end of a run (AFTER all relaxation, molecular dynamics, etc.).

  | Total energy of the DFT / Hartree-Fock s.c.f. calculation      :         -44220.955213680 eV
  | Final zero-broadening corrected energy (caution - metals only) :         -44220.955213680 eV
  | For reference only, the value of 1 Hartree used in FHI-aims is :             27.211384500 eV

  Before relying on these values, please be sure to understand exactly which
  total energy value is referred to by a given number. Different objects may
  all carry the same name 'total energy'. Definitions:

  Total energy of the DFT / Hartree-Fock s.c.f. calculation:
  | Note that this energy does not include ANY quantities calculated after the
  | s.c.f. cycle, in particular not ANY RPA, MP2, etc. many-body perturbation terms.

  Final zero-broadening corrected energy:
  | For metallic systems only, a broadening of the occupation numbers at the Fermi
  | level can be extrapolated back to zero broadening by an electron-gas inspired
  | formula. For all systems that are not real metals, this value can be
  | meaningless and should be avoided.

------------------------------------------------------------------------------
  Methods described in the following list of references were used in this FHI-aims run.
  If you publish the results, please make sure to cite these reference if they apply.
  FHI-aims is an academic code, and for our developers (often, Ph.D. students
  and postdocs), scientific credit in the community is essential.
  Thank you for helping us!

  For any use of FHI-aims, please cite:

    Volker Blum, Ralf Gehrke, Felix Hanke, Paula Havu, Ville Havu,
    Xinguo Ren, Karsten Reuter, and Matthias Scheffler
    'Ab initio molecular simulations with numeric atom-centered orbitals'
    Computer Physics Communications 180, 2175-2196 (2009)
    http://dx.doi.org/10.1016/j.cpc.2009.06.022


  The ELSI infrastructure was used in your run to solve the Kohn-Sham electronic structure.
  Please check out http://elsi-interchange.org to learn more.
  If scalability is important for your project, please acknowledge ELSI by citing:

    V. W-z. Yu, F. Corsetti, A. Garcia, W. P. Huhn, M. Jacquelin, W. Jia,
    B. Lange, L. Lin, J. Lu, W. Mi, A. Seifitokaldani, A. Vazquez-Mayagoitia,
    C. Yang, H. Yang, and V. Blum
    'ELSI: A unified software interface for Kohn-Sham electronic structure solvers'
    Computer Physics Communications 222, 267-285 (2018).
    http://dx.doi.org/10.1016/j.cpc.2017.09.007


  For the real-space grid partitioning and parallelization used in this calculation, please cite:

    Ville Havu, Volker Blum, Paula Havu, and Matthias Scheffler,
    'Efficient O(N) integration for all-electron electronic structure calculation'
    'using numerically tabulated basis functions'
    Journal of Computational Physics 228, 8367-8379 (2009).
    http://dx.doi.org/10.1016/j.jcp.2009.08.008

  Of course, there are many other important community references, e.g., those cited in the
  above references. Our list is limited to references that describe implementations in the
  FHI-aims code. The reason is purely practical (length of this list) - please credit others as well.

------------------------------------------------------------
          Leaving FHI-aims.
          Date     :  20220517, Time     :  111921.442

          Computational steps:
          | Number of self-consistency cycles          :           14
          | Number of SCF (re)initializations          :            1

          Detailed time accounting                     :  max(cpu_time)    wall_clock(cpu1)
          | Total time                                  :        1.869 s           1.937 s
          | Preparation time                            :        0.184 s           0.183 s
          | Boundary condition initalization            :        0.000 s           0.000 s
          | Grid partitioning                           :        0.032 s           0.033 s
          | Preloading free-atom quantities on grid     :        0.015 s           0.015 s
          | Free-atom superposition energy              :        0.005 s           0.005 s
          | Total time for integrations                 :        0.438 s           0.440 s
          | Total time for solution of K.-S. equations  :        0.068 s           0.067 s
          | Total time for density & force components   :        0.613 s           0.612 s
          | Total time for mixing                       :        0.061 s           0.030 s
          | Total time for Hartree multipole update     :        0.018 s           0.017 s
          | Total time for Hartree multipole sum        :        0.318 s           0.318 s
          | Total time for total energy evaluation      :        0.002 s           0.003 s
          | Total time NSC force correction             :        0.064 s           0.064 s
          | Total time for scaled ZORA corrections      :        0.000 s           0.000 s

          Partial memory accounting:
          | Residual value for overall tracked memory usage across tasks:     0.000000 MB (should be 0.000000 MB)
          | Peak values for overall tracked memory usage:
          |   Minimum:        2.858 MB (on task 21 after allocating hessian_basis_wave)
          |   Maximum:        3.100 MB (on task  1 after allocating hessian_basis_wave)
          |   Average:        3.028 MB
          | Largest tracked array allocation:
          |   Minimum:        1.382 MB (hessian_basis_wave on task 21)
          |   Maximum:        1.520 MB (hessian_basis_wave on task  1)
          |   Average:        1.479 MB
          Note:  These values currently only include a subset of arrays which are explicitly tracked.
          The "true" memory usage will be greater.

          Have a nice day.
------------------------------------------------------------
