------------------------------------------------------------
          Invoking FHI-aims ...

          When using FHI-aims, please cite the following reference:

            Volker Blum, Ralf Gehrke, Felix Hanke, Paula Havu,
            Ville Havu, Xinguo Ren, Karsten Reuter, and Matthias Scheffler,
            'Ab Initio Molecular Simulations with Numeric Atom-Centered Orbitals',
            Computer Physics Communications 180, 2175-2196 (2009)

          In addition, many other developments in FHI-aims are likely important for
          your particular application. A partial list of references is given at the end of
          this file. Thank you for giving credit to the authors of these developments.

          For any questions about FHI-aims, please visit our slack channel at

            https://fhi-aims.slack.com

          and our main development and support site at

            https://aims-git.rz-berlin.mpg.de .

          The latter site, in particular, has a wiki to collect information, as well
          as an issue tracker to log discussions, suggest improvements, and report issues
          or bugs. https://aims-git.rz-berlin.mpg.de is also the main development site
          of the project and all new and updated code versions can be obtained there.
          Please send an email to aims-coordinators@fhi-berlin.mpg.de and we will add
          you to these sites. They are for you and everyone is welcome there.

------------------------------------------------------------



  Date     :  20220517, Time     :  120636.609
  Time zero on CPU 1             :   0.414770000000000E-01  s.
  Internal wall clock time zero  :           422021196.609  s.

  FHI-aims created a unique identifier for this run for later identification
  aims_uuid : 5C8513F1-1106-4BA8-AEC4-E281E9E60622

  Build configuration of the current instance of FHI-aims
  -------------------------------------------------------
  FHI-aims version      : 210914
  Commit number         : GITDIR-NOTFOUND
  CMake host system     : Linux-3.10.0-693.17.1.el7.x86_64
  CMake version         : 3.21.1
  Fortran compiler      : /shared/ucl/apps/intel/2018.Update3/impi/2018.3.222/intel64/bin/mpiifort (Intel) version 18.0.3.20180410
  Fortran compiler flags: -O3 -ip -fp-model precise
  C compiler            : /shared/ucl/apps/intel/2018.Update3/compilers_and_libraries_2018.3.222/linux/bin/intel64/icc (Intel) version 18.0.3.20180410
  C compiler flags      : -O3 -ip -fp-model precise -std=gnu99
  ELPA2 kernel          : AVX2
  Using MPI
  Using ScaLAPACK
  Using LibXC
  Using i-PI
  Using RLSY
  Linking against: /shared/ucl/apps/intel/2019.Update5/compilers_and_libraries_2019.5.281/linux/mkl/lib/intel64/libmkl_intel_lp64.so
                   /shared/ucl/apps/intel/2019.Update5/compilers_and_libraries_2019.5.281/linux/mkl/lib/intel64/libmkl_sequential.so
                   /shared/ucl/apps/intel/2019.Update5/compilers_and_libraries_2019.5.281/linux/mkl/lib/intel64/libmkl_core.so
                   /shared/ucl/apps/intel/2019.Update5/compilers_and_libraries_2019.5.281/linux/mkl/lib/intel64/libmkl_blacs_intelmpi_lp64.so
                   /shared/ucl/apps/intel/2019.Update5/compilers_and_libraries_2019.5.281/linux/mkl/lib/intel64/libmkl_scalapack_lp64.so

  Using       24 parallel tasks.
  Task        0 on host node-k98a-019 reporting.
  Task        1 on host node-k98a-019 reporting.
  Task        2 on host node-k98a-019 reporting.
  Task        3 on host node-k98a-019 reporting.
  Task        4 on host node-k98a-019 reporting.
  Task        5 on host node-k98a-019 reporting.
  Task        6 on host node-k98a-019 reporting.
  Task        7 on host node-k98a-019 reporting.
  Task        8 on host node-k98a-019 reporting.
  Task        9 on host node-k98a-019 reporting.
  Task       10 on host node-k98a-019 reporting.
  Task       11 on host node-k98a-019 reporting.
  Task       12 on host node-k98a-019 reporting.
  Task       13 on host node-k98a-019 reporting.
  Task       14 on host node-k98a-019 reporting.
  Task       15 on host node-k98a-019 reporting.
  Task       16 on host node-k98a-019 reporting.
  Task       17 on host node-k98a-019 reporting.
  Task       18 on host node-k98a-019 reporting.
  Task       19 on host node-k98a-019 reporting.
  Task       20 on host node-k98a-019 reporting.
  Task       21 on host node-k98a-019 reporting.
  Task       22 on host node-k98a-019 reporting.
  Task       23 on host node-k98a-019 reporting.

  Performing system and environment tests:
  | Environment variable OMP_NUM_THREADS correctly set to 1.
  | Checking for ScaLAPACK...
  | Testing pdtran()...
  | All pdtran() tests passed.

  Obtaining array dimensions for all initial allocations:
  
  -----------------------------------------------------------------------
  Parsing control.in (first pass over file, find array dimensions only).
  The contents of control.in will be repeated verbatim below
  unless switched off by setting 'verbatim_writeout .false.' .
  in the first line of control.in .
  -----------------------------------------------------------------------
  
  #########################################################################################  Physical model
  #########################################################################################
  xc                 pbesol
  spin               none
  relativistic       atomic_zora scalar
  charge             0.0
  #  SCF convergence
  occupation_type    gaussian 0.01
  mixer              pulay
  n_max_pulay        10
  charge_mix_param   0.5
  sc_accuracy_rho    1E-5
  sc_accuracy_eev    1E-3
  sc_accuracy_etot   1E-6
  sc_accuracy_forces 1E-4
  sc_iter_limit      1500
  #  Relaxation
  #relax_geometry   bfgs 1.e-3
  
  ################################################################################
  #
  #  FHI-aims code project
  #  VB, Fritz-Haber Institut, 2009
  #
  #  Suggested "light" defaults for Al atom (to be pasted into control.in file)
  #  Be sure to double-check any results obtained with these settings for post-processing,
  #  e.g., with the "tight" defaults and larger basis sets.
  #
  ################################################################################
    species        Al
  #     global species definitions
      nucleus             13
      mass                26.9815386
  #
      l_hartree           4
  #
      cut_pot             3.5          1.5  1.0
      basis_dep_cutoff    1e-4
  #
      radial_base         41 5.0
      radial_multiplier   1
      angular_grids       specified
        division   0.6594  110
        division   0.8170  194
        division   0.9059  302
  #      division   1.0363  434
  #      division   1.1443  590
  #      division   1.2621  770
  #      division   2.8177  974
  #      outer_grid   974
        outer_grid   302
  ################################################################################
  #
  #  Definition of "minimal" basis
  #
  ################################################################################
  #     valence basis states
      valence      3  s   2.
      valence      3  p   1.
  #     ion occupancy
      ion_occ      3  s   1.
      ion_occ      2  p   6.
  ################################################################################
  #
  #  Suggested additional basis functions. For production calculations,
  #  uncomment them one after another (the most important basis functions are
  #  listed first).
  #
  #  Constructed for dimers: 2.0 A, 2.5 A, 3.0 A, 3.75 A, 4.5 A
  #
  ################################################################################
  #  "First tier" - improvements: -199.47 meV to -10.63 meV
       ionic 3 d auto
       ionic 3 p auto
  #     hydro 4 f 4.7
       ionic 3 s auto
  #  "Second tier" - improvements: -5.35 meV to -1.57 meV
  #     hydro 5 g 7
  #     hydro 3 d 6
  #     hydro 2 s 11.6
  #     hydro 2 p 0.9
  #  "Third tier" - improvements: -0.63 meV to -0.20 meV
  #     hydro 5 f 7.6
  #     hydro 4 p 7.2
  #     hydro 4 s 3.7
  #     hydro 4 d 7.6
  #  "Fourth tier" - improvements: -0.17 meV to -0.08 meV
  #     hydro 4 d 13.6
  #     hydro 5 g 11.2
  #     hydro 4 d 0.9
  #     hydro 1 s 0.4
  #     hydro 4 p 0.1
  #     hydro 5 f 9.8
  #  Further basis functions that fell out of the optimization - noise level...
  #     hydro 4 p 5
  
  ################################################################################
  #
  #  FHI-aims code project
  #  VB, Fritz-Haber Institut, 2009
  #
  #  Suggested "light" defaults for F atom (to be pasted into control.in file)
  #  Be sure to double-check any results obtained with these settings for post-processing,
  #  e.g., with the "tight" defaults and larger basis sets.
  #
  ################################################################################
    species        F
  #     global species definitions
      nucleus             9
      mass                18.9984032
  #
      l_hartree           4
  #
      cut_pot             3.5  1.5  1.0
      basis_dep_cutoff    1e-4
  #
      radial_base         37 5.0
      radial_multiplier   1
      angular_grids specified
        division   0.4014  110
        division   0.5291  194
        division   0.6019  302
  #      division   0.6814  434
  #      division   0.7989  590
  #      division   0.8965  770
  #      division   1.3427  974
  #      outer_grid   974
        outer_grid   302
  ################################################################################
  #
  #  Definition of "minimal" basis
  #
  ################################################################################
  #     valence basis states
      valence      2  s   2.
      valence      2  p   5.
  #     ion occupancy
      ion_occ      2  s   1.
      ion_occ      2  p   4.
  ################################################################################
  #
  #  Suggested additional basis functions. For production calculations,
  #  uncomment them one after another (the most important basis functions are
  #  listed first).
  #
  #  Constructed for dimers: 1.2 A, 1.418 A, 1.75 A, 2.25 A, 3.25 A
  #
  ################################################################################
  #  "First tier" - improvements: -149.44 meV to -45.88 meV
       hydro 2 p 1.7
       hydro 3 d 7.4
       hydro 3 s 6.8
  #  "Second tier" - improvements: -12.96 meV to -1.56 meV
  #     hydro 4 f 11.2
  #     ionic 2 p auto
  #     hydro 1 s 0.75
  #     hydro 4 d 8.8
  #     hydro 5 g 16.8
  #  "Third tier" - improvements: -0.58 meV to -0.05 meV
  #     hydro 3 p 6.2
  #     hydro 3 s 3.2
  #     hydro 4 f 9.6
  #     hydro 3 s 19.6
  #     hydro 4 d 8.6
  #     hydro 5 g 14.4
  # Further basis functions: -0.05 meV and below
  #     hydro 3 p 4.2
  
  -----------------------------------------------------------------------
  Completed first pass over input file control.in .
  -----------------------------------------------------------------------
  
  
  -----------------------------------------------------------------------
  Parsing geometry.in (first pass over file, find array dimensions only).
  The contents of geometry.in will be repeated verbatim below
  unless switched off by setting 'verbatim_writeout .false.' .
  in the first line of geometry.in .
  -----------------------------------------------------------------------
  
  atom 0.027399787 1.543960372 2.243060820 Al
  atom 2.553909696 2.458582625 1.581160775 Al
  atom 1.196623284 2.876717384 -0.702332854 Al
  atom 1.121318978 3.071138536 2.682033663 F
  atom -1.331425083 2.823291522 2.246173186 F
  atom -0.669993871 -0.051243866 2.812360630 F
  atom 1.871409753 0.713099993 2.055498665 F
  atom 2.818256545 1.924836653 -0.135052816 F
  atom 1.183101809 2.998990133 -2.530513412 F
  atom 1.727958894 4.124596987 0.593147667 F
  atom 3.851496568 3.235001177 2.763557580 F
  atom 0.101925409 1.652635810 0.228928293 F
  
  -----------------------------------------------------------------------
  Completed first pass over input file geometry.in .
  -----------------------------------------------------------------------
  

  Basic array size parameters:
  | Number of species                 :        2
  | Number of atoms                   :       12
  | Max. basis fn. angular momentum   :        2
  | Max. atomic/ionic basis occupied n:        3
  | Max. number of basis fn. types    :        3
  | Max. radial fns per species/type  :        5
  | Max. logarithmic grid size        :     1340
  | Max. radial integration grid size :       41
  | Max. angular integration grid size:      302
  | Max. angular grid division number :        8
  | Radial grid for Hartree potential :     1340
  | Number of spin channels           :        1

------------------------------------------------------------
          Reading file control.in.
------------------------------------------------------------
  XC: Using PBEsol gradient-corrected functionals.
  Spin treatment: No spin polarisation.
  Scalar relativistic treatment of kinetic energy: on-site free-atom approximation to ZORA.
  Charge =   0.000000E+00: Neutral system requested explicitly.
  Occupation type: Gaussian broadening, width =   0.100000E-01 eV.
  Using pulay charge density mixing.
  Pulay mixing - number of memorized iterations:   10
  Charge density mixing - mixing parameter:     0.5000
  Convergence accuracy of self-consistent charge density:  0.1000E-04
  Convergence accuracy of sum of eigenvalues:  0.1000E-02
  Convergence accuracy of total energy:  0.1000E-05
  Convergence accuracy of forces:  0.1000E-03
  Maximum number of s.-c. iterations  :  1500
 
  Reading configuration options for species Al                  .
  | Found nuclear charge :  13.0000
  | Found atomic mass :    26.9815386000000      amu
  | Found l_max for Hartree potential  :   4
  | Found cutoff potl. onset [A], width [A], scale factor :    3.50000    1.50000    1.00000
  | Threshold for basis-dependent cutoff potential is   0.100000E-03
  | Found data for basic radial integration grid :    41 points, outermost radius =    5.000 A
  | Found multiplier for basic radial grid :   1
  | Found angular grid specification: user-specified.
  | Specified grid contains     4 separate shells.
  | Check grid settings after all constraints further below.
  | Found free-atom valence shell :  3 s   2.000
  | Found free-atom valence shell :  3 p   1.000
  | Found free-ion valence shell :  3 s   1.000
  | Found free-ion valence shell :  2 p   6.000
  | Found ionic basis function :  3 d , default cutoff radius.
  | Found ionic basis function :  3 p , default cutoff radius.
  | Found ionic basis function :  3 s , default cutoff radius.
  Species Al                  : Missing cutoff potential type.
  Defaulting to exp(1/x)/(1-x)^2 type cutoff potential.
  Species Al: No 'logarithmic' tag. Using default grid for free atom:
  | Default logarithmic grid data [bohr] : 0.1000E-03 0.1000E+03 0.1012E+01
  | Will include ionic basis functions of  2.0-fold positive Al                   ion.
  Species Al: On-site basis accuracy parameter (for Gram-Schmidt orthonormalisation) not specified.
  Using default value basis_acc =  0.1000000E-03.
  Species Al                  : Using default innermost maximum threshold i_radial=  2 for radial functions.
  Species Al                  : Default cutoff onset for free atom density etc. : 0.35000000E+01 AA.
  Species Al                  : Basic radial grid will be enhanced according to radial_multiplier =   1, to contain    41 grid points.
 
  Reading configuration options for species F                   .
  | Found nuclear charge :   9.0000
  | Found atomic mass :    18.9984032000000      amu
  | Found l_max for Hartree potential  :   4
  | Found cutoff potl. onset [A], width [A], scale factor :    3.50000    1.50000    1.00000
  | Threshold for basis-dependent cutoff potential is   0.100000E-03
  | Found data for basic radial integration grid :    37 points, outermost radius =    5.000 A
  | Found multiplier for basic radial grid :   1
  | Found angular grid specification: user-specified.
  | Specified grid contains     4 separate shells.
  | Check grid settings after all constraints further below.
  | Found free-atom valence shell :  2 s   2.000
  | Found free-atom valence shell :  2 p   5.000
  | Found free-ion valence shell :  2 s   1.000
  | Found free-ion valence shell :  2 p   4.000
  | Found hydrogenic basis function :  2 p   1.700
  | Found hydrogenic basis function :  3 d   7.400
  | Found hydrogenic basis function :  3 s   6.800
  Species F                   : Missing cutoff potential type.
  Defaulting to exp(1/x)/(1-x)^2 type cutoff potential.
  Species F : No 'logarithmic' tag. Using default grid for free atom:
  | Default logarithmic grid data [bohr] : 0.1000E-03 0.1000E+03 0.1012E+01
  Species F : On-site basis accuracy parameter (for Gram-Schmidt orthonormalisation) not specified.
  Using default value basis_acc =  0.1000000E-03.
  Species F                   : Using default innermost maximum threshold i_radial=  2 for radial functions.
  Species F                   : Default cutoff onset for free atom density etc. : 0.35000000E+01 AA.
  Species F                   : Basic radial grid will be enhanced according to radial_multiplier =   1, to contain    37 grid points.
 
  Finished reading input file 'control.in'.
 
------------------------------------------------------------


------------------------------------------------------------
          Reading geometry description geometry.in.
------------------------------------------------------------
  | The smallest distance between any two atoms is         1.81663235 AA.
  | The first atom of this pair is atom number                      2 .
  | The second atom of this pair is atom number                     8 .
  Input structure read successfully.
  The structure contains       12 atoms,  and a total of        120.000 electrons.

  Input geometry:
  | No unit cell requested.
  | Atomic structure:
  |       Atom                x [A]            y [A]            z [A]
  |    1: Species Al            0.02739979        1.54396037        2.24306082
  |    2: Species Al            2.55390970        2.45858263        1.58116078
  |    3: Species Al            1.19662328        2.87671738       -0.70233285
  |    4: Species F             1.12131898        3.07113854        2.68203366
  |    5: Species F            -1.33142508        2.82329152        2.24617319
  |    6: Species F            -0.66999387       -0.05124387        2.81236063
  |    7: Species F             1.87140975        0.71309999        2.05549867
  |    8: Species F             2.81825655        1.92483665       -0.13505282
  |    9: Species F             1.18310181        2.99899013       -2.53051341
  |   10: Species F             1.72795889        4.12459699        0.59314767
  |   11: Species F             3.85149657        3.23500118        2.76355758
  |   12: Species F             0.10192541        1.65263581        0.22892829

 
  Finished reading input file 'control.in'.
 

------------------------------------------------------------
          Reading geometry description geometry.in.
------------------------------------------------------------
 
  Consistency checks for stacksize environment parameter are next.
 
  | Maximum stacksize for task 0: unlimited
  | Maximum stacksize for task 1: unlimited
  | Maximum stacksize for task 2: unlimited
  | Maximum stacksize for task 3: unlimited
  | Maximum stacksize for task 4: unlimited
  | Maximum stacksize for task 5: unlimited
  | Maximum stacksize for task 6: unlimited
  | Maximum stacksize for task 7: unlimited
  | Maximum stacksize for task 8: unlimited
  | Maximum stacksize for task 9: unlimited
  | Maximum stacksize for task 10: unlimited
  | Maximum stacksize for task 11: unlimited
  | Maximum stacksize for task 12: unlimited
  | Maximum stacksize for task 13: unlimited
  | Maximum stacksize for task 14: unlimited
  | Maximum stacksize for task 15: unlimited
  | Maximum stacksize for task 16: unlimited
  | Maximum stacksize for task 17: unlimited
  | Maximum stacksize for task 18: unlimited
  | Maximum stacksize for task 19: unlimited
  | Maximum stacksize for task 20: unlimited
  | Maximum stacksize for task 21: unlimited
  | Maximum stacksize for task 22: unlimited
  | Maximum stacksize for task 23: unlimited
  | Current stacksize for task 0: unlimited
  | Current stacksize for task 1: unlimited
  | Current stacksize for task 2: unlimited
  | Current stacksize for task 3: unlimited
  | Current stacksize for task 4: unlimited
  | Current stacksize for task 5: unlimited
  | Current stacksize for task 6: unlimited
  | Current stacksize for task 7: unlimited
  | Current stacksize for task 8: unlimited
  | Current stacksize for task 9: unlimited
  | Current stacksize for task 10: unlimited
  | Current stacksize for task 11: unlimited
  | Current stacksize for task 12: unlimited
  | Current stacksize for task 13: unlimited
  | Current stacksize for task 14: unlimited
  | Current stacksize for task 15: unlimited
  | Current stacksize for task 16: unlimited
  | Current stacksize for task 17: unlimited
  | Current stacksize for task 18: unlimited
  | Current stacksize for task 19: unlimited
  | Current stacksize for task 20: unlimited
  | Current stacksize for task 21: unlimited
  | Current stacksize for task 22: unlimited
  | Current stacksize for task 23: unlimited
 
  Consistency checks for the contents of control.in are next.
 
  MPI_IN_PLACE appears to work with this MPI implementation.
  | Keeping use_mpi_in_place .true. (see manual).
  Target number of points in a grid batch is not set. Defaulting to  100
  Method for grid partitioning is not set. Defaulting to parallel hash+maxmin partitioning.
  Batch size limit is not set. Defaulting to    200
  By default, will store active basis functions for each batch.
  If in need of memory, prune_basis_once .false. can be used to disable this option.
  communication_type for Hartree potential was not specified.
  Defaulting to calc_hartree .
  Pulay mixer: Number of initial linear mixing iterations not set.
  Defaulting to    0 iterations.
  Work space size for distributed Hartree potential not set.
  Defaulting to   0.200000E+03 MB.
  Algorithm-dependent basis array size parameters:
  | n_max_pulay                         :       10
  Presetting      1001 iterations before the initial mixing cycle
  is restarted anyway using the sc_init_iter criterion / keyword.
  Presetting a factor      1.000 between actual scf density residual
  and density convergence criterion sc_accuracy_rho below which sc_init_iter
  takes no effect.
  Geometry relaxation not requested: no relaxation will be performed.
  Forces evaluation will include force correction term due to incomplete self-consistency (default).
  Handling of forces: Unphysical translation and rotation will be removed from forces.
  No accuracy limit for integral partition fn. given. Defaulting to  0.1000E-14.
  No threshold value for u(r) in integrations given. Defaulting to  0.1000E-05.
  No accuracy for occupation numbers given. Defaulting to  0.1000E-12.
  No threshold value for occupation numbers given. Defaulting to  0.0000E+00.
  No accuracy for fermi level given. Defaulting to  0.1000E-19.
  Maximum # of iterations to find E_F not set. Defaulting to  200.
  Preferred method for the eigenvalue solver ('KS_method') not specified in 'control.in'.
  Calling BLACS routine to test compilation state
  Since ScaLAPACK support is enabled, defaulting to ELPA (via ELSI).
  Will not use alltoall communication since running on < 1024 CPUs.
  Threshold for basis singularities not set.
  Default threshold for basis singularities:  0.1000E-04
  partition_type (choice of integration weights) for integrals was not specified.
  | Using a version of the partition function of Stratmann and coworkers ('stratmann_sparse').
  | At each grid point, the set of atoms used to build the partition table is smoothly restricted to
  | only those atoms whose free-atom density would be non-zero at that grid point.
  Partitioning for Hartree potential was not defined. Using partition_type for integrals.
  | Adjusted default value of keyword multip_moments_threshold to:       0.10000000E-11
  | This value may affect high angular momentum components of the Hartree potential in periodic systems.
  No q(lm)/r^(l+1) cutoff set for long-range Hartree potential.
  | Using default value of  0.100000E-09 .
  | Verify using the multipole_threshold keyword.
  Defaulting to new monopole extrapolation.
  Density update method: automatic selection selected.
  Charge integration errors on the 3D integration grid will be compensated
  by explicit normalization and distribution of residual charges.
  Use the "compensate_multipole_errors" flag to change this behaviour.
  Set 'collect_eigenvectors' to be '.true.' for use_density_matrix .false.
 
  Consistency checks for the contents of geometry.in are next.
 
  Number of empty states per atom not set in control.in - providing a guess from actual geometry.
  | Total number of empty states used during s.c.f. cycle:       36
  If you use a very high smearing, use empty_states (per atom!) in control.in to increase this value.

  Structure-dependent array size parameters: 
  | Maximum number of distinct radial functions  :       14
  | Maximum number of basis functions            :      180
  | Number of Kohn-Sham states (occupied + empty):       96
------------------------------------------------------------

------------------------------------------------------------
          Preparing all fixed parts of the calculation.
------------------------------------------------------------
  Determining machine precision:
    2.225073858507201E-308
  Setting up grids for atomic and cluster calculations.

  Creating wave function, potential, and density for free atoms.

  Species: Al

  List of occupied orbitals and eigenvalues:
    n    l              occ      energy [Ha]    energy [eV]
    1    0           2.0000       -55.621123     -1513.5278
    2    0           2.0000        -3.957030      -107.6763
    3    0           2.0000        -0.272233        -7.4078
    2    1           6.0000        -2.540949       -69.1427
    3    1           1.0000        -0.083300        -2.2667


  Species: F

  List of occupied orbitals and eigenvalues:
    n    l              occ      energy [Ha]    energy [eV]
    1    0           2.0000       -24.399611      -663.9472
    2    0           2.0000        -1.098702       -29.8972
    2    1           5.0000        -0.408210       -11.1080


  Adding cutoff potential to free-atom effective potential.
  Creating fixed part of basis set: Ionic, confined, hydrogenic.
 
  Al                   ion:

  List of free ionic orbitals and eigenvalues:
    n    l      energy [Ha]    energy [eV]
    1    0       -56.418846     -1535.2349
    2    0        -4.732717      -128.7838
    3    0        -0.872690       -23.7471
    2    1        -3.317230       -90.2664


  List of ionic basis orbitals and eigenvalues:
    n    l      energy [Ha]    energy [eV]    outer radius [A]
    3    2        -0.346815        -9.4373       4.594041
    3    1        -0.631870       -17.1940       4.538221
    3    0        -0.872657       -23.7462       4.538221

 
  F                    hydrogenic:
 
  List of hydrogenic basis orbitals: 
    n    l      effective z      eigenvalue [eV]  inner max. [A]     outer max. [A]     outer radius [A]   
    2    1         1.700000        -9.7616           1.243167           1.243167           4.598524
    3    2         7.400000       -82.7828           0.642437           0.642437           3.305741
    3    0         6.800000       -69.9026           0.057798           1.022307           3.781556
 
  Creating atomic-like basis functions for current effective potential.

  Species Al                  :

  List of atomic basis orbitals and eigenvalues:
    n    l      energy [Ha]    energy [eV]    outer radius [A]
    1    0       -55.621123     -1513.5278       0.850197
    2    0        -3.957030      -107.6763       3.144911
    3    0        -0.272233        -7.4078       4.594041
    2    1        -2.540949       -69.1427       3.731966
    3    1        -0.083300        -2.2667       4.594041


  Species F                   :

  List of atomic basis orbitals and eigenvalues:
    n    l      energy [Ha]    energy [eV]    outer radius [A]
    1    0       -24.399611      -663.9472       1.258458
    2    0        -1.098702       -29.8972       4.325857
    2    1        -0.408210       -11.1080       4.487453

  Assembling full basis from fixed parts.
  | Species Al :   atomic orbital   1 s accepted.
  | Species Al :   atomic orbital   2 s accepted.
  | Species Al :    ionic orbital   3 s accepted.
  | Species Al :   atomic orbital   3 s accepted.
  | Species Al :   atomic orbital   2 p accepted.
  | Species Al :    ionic orbital   3 p accepted.
  | Species Al :   atomic orbital   3 p accepted.
  | Species Al :    ionic orbital   3 d accepted.
  | Species F :   atomic orbital   1 s accepted.
  | Species F :    hydro orbital   3 s accepted.
  | Species F :   atomic orbital   2 s accepted.
  | Species F :   atomic orbital   2 p accepted.
  | Species F :    hydro orbital   2 p accepted.
  | Species F :    hydro orbital   3 d accepted.
 
  Basis size parameters after reduction:
  | Total number of radial functions:       14
  | Total number of basis functions :      180
 
  Per-task memory consumption for arrays in subroutine allocate_ext:
  |           4.807768MB.
  Testing on-site integration grid accuracy.
  |  Species  Function  <phi|h_atom|phi> (log., in eV)  <phi|h_atom|phi> (rad., in eV)
           1        1              -1513.5277717935              -1513.5271881332
           1        2               -107.6762691836               -107.6762662489
           1        3                 -6.9467474784                 -6.9471269649
           1        4                  5.5771951849                  5.4862107220 ***
           1        5                -69.1427313144                -69.1427312731
           1        6                 -1.5197375330                 -1.5230432022
           1        7                  6.8210948310                  6.5529872240 ***
           1        8                  4.3216540965                  4.2851170187 ***
           2        9               -663.9471986398               -663.9470363334
           2       10                 16.8514011578                 16.8512525338
           2       11                -28.4490593856                -28.4490661472
           2       12                -11.1080115307                -11.1080620173
           2       13                  7.1940182175                  7.1685154137
           2       14                 44.8544281765                 44.8543763625
 * Note: Onsite integrals marked "***" above are less accurate than
 * onsite_accuracy_threshold =    0.03000 eV. Usually, this is harmless.
 * When in doubt, tighten the "radial" and/or "radial_multiplier" flags to check.

  Preparing densities etc. for the partition functions (integrals / Hartree potential).

  Preparations completed.
  max(cpu_time)          :      0.184 s.
  Wall clock time (cpu1) :      0.184 s.
------------------------------------------------------------

------------------------------------------------------------
          Begin self-consistency loop: Initialization.

          Date     :  20220517, Time     :  120636.837
------------------------------------------------------------

  Initializing index lists of integration centers etc. from given atomic structure:
  | Number of centers in hartree potential         :        12
  | Number of centers in hartree multipole         :        12
  | Number of centers in electron density summation:        12
  | Number of centers in basis integrals           :        12
  | Number of centers in integrals                 :        12
  | Number of centers in hamiltonian               :        12
  * Using 24 tasks for Scalapack Eigenvalue solver.
  Detailed listing of tasks and assigned k-points:
  (for non-periodic systems, the "k-point" denotes an internal label only)
   Task     0 k-point     1 on node-k98a-019
   Task     1 k-point     1 on node-k98a-019
   Task     2 k-point     1 on node-k98a-019
   Task     3 k-point     1 on node-k98a-019
   Task     4 k-point     1 on node-k98a-019
   Task     5 k-point     1 on node-k98a-019
   Task     6 k-point     1 on node-k98a-019
   Task     7 k-point     1 on node-k98a-019
   Task     8 k-point     1 on node-k98a-019
   Task     9 k-point     1 on node-k98a-019
   Task    10 k-point     1 on node-k98a-019
   Task    11 k-point     1 on node-k98a-019
   Task    12 k-point     1 on node-k98a-019
   Task    13 k-point     1 on node-k98a-019
   Task    14 k-point     1 on node-k98a-019
   Task    15 k-point     1 on node-k98a-019
   Task    16 k-point     1 on node-k98a-019
   Task    17 k-point     1 on node-k98a-019
   Task    18 k-point     1 on node-k98a-019
   Task    19 k-point     1 on node-k98a-019
   Task    20 k-point     1 on node-k98a-019
   Task    21 k-point     1 on node-k98a-019
   Task    22 k-point     1 on node-k98a-019
   Task    23 k-point     1 on node-k98a-019
  Tasks:    24 split into      6 X      4 BLACS grid
  Calculating block size based on n_basis =          180  max_nprow =            6  max_npcol =            4
  ScaLAPACK block size set to:           16
  Allocating        0.012 MB for ovlp
  Allocating        0.012 MB for ham
  Allocating        0.012 MB for eigenvec
  Required Scalapack workspace - INTEGER:            1  REAL:             1
  Partitioning the integration grid into batches with parallel hashing+maxmin method.
  | Number of batches:     1083
  | Maximal batch size:     200
  | Minimal batch size:      17
  | Average batch size:      84.875
  | Standard deviation of batch sizes:      23.973

  Integration load balanced across    24 MPI tasks.
  Work distribution over tasks is as follows:
  Task     0 has       3783 integration points.
  Task     1 has       3812 integration points.
  Task     2 has       3804 integration points.
  Task     3 has       3788 integration points.
  Task     4 has       3798 integration points.
  Task     5 has       3949 integration points.
  Task     6 has       3964 integration points.
  Task     7 has       3803 integration points.
  Task     8 has       3855 integration points.
  Task     9 has       3809 integration points.
  Task    10 has       3800 integration points.
  Task    11 has       3835 integration points.
  Task    12 has       3822 integration points.
  Task    13 has       3952 integration points.
  Task    14 has       3822 integration points.
  Task    15 has       3782 integration points.
  Task    16 has       3818 integration points.
  Task    17 has       3844 integration points.
  Task    18 has       3891 integration points.
  Task    19 has       3795 integration points.
  Task    20 has       3818 integration points.
  Task    21 has       3806 integration points.
  Task    22 has       3782 integration points.
  Task    23 has       3788 integration points.
  Initializing partition tables, free-atom densities, potentials, etc. across the integration grid (initialize_grid_storage).
  | initialize_grid_storage: Actual outermost partition radius vs. multipole_radius_free
  | (-- VB: in principle, multipole_radius_free should be larger, hence this output)
  | Species        1: Confinement radius =              4.999999999999999 AA, multipole_radius_free =              5.004487022111096 AA.
  | Species        1: outer_partition_radius set to              5.004487022111096 AA .
  | Species        2: Confinement radius =              4.999999999999999 AA, multipole_radius_free =              5.009370088163274 AA.
  | Species        2: outer_partition_radius set to              5.009370088163274 AA .
  | The sparse table of interatomic distances needs          1.64 kbyte instead of         1.15 kbyte of memory.
  | Using the partition_type stratmann_smoother will reduce your memory usage.
  | Net number of integration points:    91920
  | of which are non-zero points    :    85112
  Renormalizing the initial density to the exact electron count on the 3D integration grid.
  | Initial density: Formal number of electrons (from input files) :     120.0000000000
  | Integrated number of electrons on 3D grid     :     120.0000021485
  | Charge integration error                      :       0.0000021485
  | Normalization factor for density and gradient :       0.9999999821
  Renormalizing the free-atom superposition density to the exact electron count on the 3D integration grid.
  | Formal number of electrons (from input files) :     120.0000000000
  | Integrated number of electrons on 3D grid     :     120.0000021485
  | Charge integration error                      :       0.0000021485
  | Normalization factor for density and gradient :       0.9999999821
  Obtaining max. number of non-zero basis functions in each batch (get_n_compute_maxes).
  | Maximal number of non-zero basis functions:      163 in task     0
  | Maximal number of non-zero basis functions:      170 in task     1
  | Maximal number of non-zero basis functions:      170 in task     2
  | Maximal number of non-zero basis functions:      169 in task     3
  | Maximal number of non-zero basis functions:      163 in task     4
  | Maximal number of non-zero basis functions:      172 in task     5
  | Maximal number of non-zero basis functions:      166 in task     6
  | Maximal number of non-zero basis functions:      171 in task     7
  | Maximal number of non-zero basis functions:      170 in task     8
  | Maximal number of non-zero basis functions:      165 in task     9
  | Maximal number of non-zero basis functions:      165 in task    10
  | Maximal number of non-zero basis functions:      163 in task    11
  | Maximal number of non-zero basis functions:      166 in task    12
  | Maximal number of non-zero basis functions:      165 in task    13
  | Maximal number of non-zero basis functions:      165 in task    14
  | Maximal number of non-zero basis functions:      167 in task    15
  | Maximal number of non-zero basis functions:      167 in task    16
  | Maximal number of non-zero basis functions:      165 in task    17
  | Maximal number of non-zero basis functions:      166 in task    18
  | Maximal number of non-zero basis functions:      164 in task    19
  | Maximal number of non-zero basis functions:      164 in task    20
  | Maximal number of non-zero basis functions:      164 in task    21
  | Maximal number of non-zero basis functions:      169 in task    22
  | Maximal number of non-zero basis functions:      165 in task    23
  Selecting the method for density update.
  Loop over occupied states selected for charge density update.
  Allocating        0.132 MB for KS_eigenvector
  Integrating Hamiltonian matrix: batch-based integration.
  Time summed over all CPUs for integration: real work        0.753 s, elapsed        0.803 s
  Integrating overlap matrix.
  Time summed over all CPUs for integration: real work        0.287 s, elapsed        0.306 s
  Deallocating overlap matrix.

  Updating Kohn-Sham eigenvalues and eigenvectors using ELSI and the ELPA eigensolver.
  Overlap matrix is not singular
  | Lowest and highest eigenvalues :  0.3238E-02,  0.5733E+01
  Finished singularity check of overlap matrix
  | Time :     0.004 s
  Starting ELPA eigensolver
  Finished Cholesky decomposition
  | Time :     0.003 s
  Finished transformation to standard eigenproblem
  | Time :     0.001 s
  Finished solving standard eigenproblem
  | Time :     0.003 s
  Finished back-transformation of eigenvectors
  | Time :     0.000 s

  Obtaining occupation numbers and chemical potential using ELSI.
  | Chemical potential (Fermi level):    -7.66447468 eV
  Writing Kohn-Sham eigenvalues.

  State    Occupation    Eigenvalue [Ha]    Eigenvalue [eV]
      1       2.00000         -55.485990        -1509.85060
      2       2.00000         -55.484086        -1509.79881
      3       2.00000         -55.483775        -1509.79032
      4       2.00000         -24.365481         -663.01848
      5       2.00000         -24.359146         -662.84610
      6       2.00000         -24.355047         -662.73454
      7       2.00000         -24.350423         -662.60873
      8       2.00000         -24.349333         -662.57905
      9       2.00000         -24.338786         -662.29207
     10       2.00000         -24.338695         -662.28958
     11       2.00000         -24.335175         -662.19380
     12       2.00000         -24.330120         -662.05626
     13       2.00000          -3.951554         -107.52725
     14       2.00000          -3.949009         -107.45800
     15       2.00000          -3.948717         -107.45005
     16       2.00000          -2.544379          -69.23607
     17       2.00000          -2.543394          -69.20926
     18       2.00000          -2.542523          -69.18557
     19       2.00000          -2.542204          -69.17689
     20       2.00000          -2.541521          -69.15830
     21       2.00000          -2.540721          -69.13654
     22       2.00000          -2.540413          -69.12816
     23       2.00000          -2.539733          -69.10966
     24       2.00000          -2.539353          -69.09931
     25       2.00000          -1.193311          -32.47164
     26       2.00000          -1.183489          -32.20436
     27       2.00000          -1.172015          -31.89216
     28       2.00000          -1.165854          -31.72451
     29       2.00000          -1.160627          -31.58226
     30       2.00000          -1.146666          -31.20237
     31       2.00000          -1.146286          -31.19202
     32       2.00000          -1.140310          -31.02941
     33       2.00000          -1.133912          -30.85532
     34       2.00000          -0.560204          -15.24393
     35       2.00000          -0.550918          -14.99124
     36       2.00000          -0.545831          -14.85283
     37       2.00000          -0.525830          -14.30856
     38       2.00000          -0.520645          -14.16748
     39       2.00000          -0.509354          -13.86024
     40       2.00000          -0.503117          -13.69050
     41       2.00000          -0.501434          -13.64471
     42       2.00000          -0.495550          -13.48460
     43       2.00000          -0.491787          -13.38221
     44       2.00000          -0.486771          -13.24570
     45       2.00000          -0.478181          -13.01197
     46       2.00000          -0.473578          -12.88670
     47       2.00000          -0.471236          -12.82299
     48       2.00000          -0.467719          -12.72728
     49       2.00000          -0.466039          -12.68156
     50       2.00000          -0.463365          -12.60879
     51       2.00000          -0.457906          -12.46026
     52       2.00000          -0.451092          -12.27485
     53       2.00000          -0.449773          -12.23894
     54       2.00000          -0.449389          -12.22849
     55       2.00000          -0.448846          -12.21373
     56       2.00000          -0.445109          -12.11204
     57       2.00000          -0.441267          -12.00748
     58       2.00000          -0.439522          -11.96001
     59       2.00000          -0.439063          -11.94750
     60       2.00000          -0.433079          -11.78469
     61       0.00000          -0.150365           -4.09164
     62       0.00000          -0.101132           -2.75196
     63       0.00000          -0.083050           -2.25992
     64       0.00000          -0.037953           -1.03274
     65       0.00000          -0.017591           -0.47869
     66       0.00000          -0.007648           -0.20810
     67       0.00000           0.016218            0.44131
     68       0.00000           0.029671            0.80740
     69       0.00000           0.062899            1.71156
     70       0.00000           0.071245            1.93868
     71       0.00000           0.087299            2.37552
     72       0.00000           0.105855            2.88045
     73       0.00000           0.144448            3.93063
     74       0.00000           0.163211            4.44119
     75       0.00000           0.164808            4.48466
     76       0.00000           0.183308            4.98805
     77       0.00000           0.188959            5.14184
     78       0.00000           0.197866            5.38420
     79       0.00000           0.202001            5.49671
     80       0.00000           0.216027            5.87838
     81       0.00000           0.225728            6.14238
     82       0.00000           0.228653            6.22195
     83       0.00000           0.231089            6.28825
     84       0.00000           0.234918            6.39244
     85       0.00000           0.258842            7.04346
     86       0.00000           0.265040            7.21211
     87       0.00000           0.269342            7.32918
     88       0.00000           0.278426            7.57636
     89       0.00000           0.286860            7.80586
     90       0.00000           0.290421            7.90276
     91       0.00000           0.295918            8.05234
     92       0.00000           0.330510            8.99364
     93       0.00000           0.333869            9.08503
     94       0.00000           0.354197            9.63819
     95       0.00000           0.361838            9.84610
     96       0.00000           0.372932           10.14801

  Highest occupied state (VBM) at    -11.78469028 eV
  | Occupation number:      2.00000000

  Lowest unoccupied state (CBM) at    -4.09164161 eV
  | Occupation number:      0.00000000

  Overall HOMO-LUMO gap:      7.69304867 eV.
  Calculating total energy contributions from superposition of free atom densities.

  Total energy components:
  | Sum of eigenvalues            :        -887.41730500 Ha      -24147.85349834 eV
  | XC energy correction          :        -144.36418384 Ha       -3928.34931454 eV
  | XC potential correction       :         187.97218944 Ha        5114.98352211 eV
  | Free-atom electrostatic energy:        -781.52156386 Ha      -21266.28376925 eV
  | Hartree energy correction     :           0.00000000 Ha           0.00000000 eV
  | Entropy correction            :           0.00000000 Ha           0.00000000 eV
  | ---------------------------
  | Total energy                  :       -1625.33086326 Ha      -44227.50306002 eV
  | Total energy, T -> 0          :       -1625.33086326 Ha      -44227.50306002 eV  <-- do not rely on this value for anything but (periodic) metals
  | Electronic free energy        :       -1625.33086326 Ha      -44227.50306002 eV

  Derived energy quantities:
  | Kinetic energy                :        1627.68115550 Ha       44291.45776581 eV
  | Electrostatic energy          :       -3108.64783493 Ha      -84590.61151128 eV
  | Energy correction for multipole
  | error in Hartree potential    :           0.00000000 Ha           0.00000000 eV
  | Sum of eigenvalues per atom                           :       -2012.32112486 eV
  | Total energy (T->0) per atom                          :       -3685.62525500 eV  <-- do not rely on this value for anything but (periodic) metals
  | Electronic free energy per atom                       :       -3685.62525500 eV
  Initialize hartree_potential_storage
  Max. number of atoms included in rho_multipole:           12

  End scf initialization - timings             :  max(cpu_time)    wall_clock(cpu1)
  | Time for scf. initialization                :        0.118 s           0.118 s
  | Boundary condition initialization           :        0.000 s           0.000 s
  | Integration                                 :        0.048 s           0.048 s
  | Solution of K.-S. eqns.                     :        0.012 s           0.012 s
  | Grid partitioning                           :        0.035 s           0.035 s
  | Preloading free-atom quantities on grid     :        0.015 s           0.016 s
  | Free-atom superposition energy              :        0.005 s           0.005 s
  | Total energy evaluation                     :        0.000 s           0.000 s

  Partial memory accounting:
  | Current value for overall tracked memory usage:
  |   Minimum:        0.273 MB (on task 23)
  |   Maximum:        0.292 MB (on task  0)
  |   Average:        0.287 MB
  | Peak value for overall tracked memory usage:
  |   Minimum:        1.360 MB (on task 11 after allocating wave)
  |   Maximum:        1.433 MB (on task  5 after allocating wave)
  |   Average:        1.389 MB
  | Largest tracked array allocation so far:
  |   Minimum:        0.249 MB (H_times_psi on task  0)
  |   Maximum:        0.469 MB (all_coords on task 14)
  |   Average:        0.274 MB
  Note:  These values currently only include a subset of arrays which are explicitly tracked.
  The "true" memory usage will be greater.
------------------------------------------------------------
  Evaluating new KS density.
  Integration grid: deviation in total charge (<rho> - N_e) =   0.000000E+00

  Time for density update prior                :  max(cpu_time)    wall_clock(cpu1)
  | self-consistency iterative process          :        0.029 s           0.029 s

------------------------------------------------------------
          Begin self-consistency iteration #    1

  Date     :  20220517, Time     :  120636.984
------------------------------------------------------------
  Pulay mixing of updated and previous charge densities.
  Renormalizing the density to the exact electron count on the 3D integration grid.
  | Formal number of electrons (from input files) :     120.0000000000
  | Integrated number of electrons on 3D grid     :     120.0000000000
  | Charge integration error                      :       0.0000000000
  | Normalization factor for density and gradient :       1.0000000000

  Evaluating partitioned Hartree potential by multipole expansion.
  | Original multipole sum: apparent total charge =   0.116839E-12
  | Sum of charges compensated after spline to logarithmic grids =   0.121279E-03
  | Analytical far-field extrapolation by fixed multipoles:
  | Hartree multipole sum: apparent total charge =   0.116495E-12
  Summing up the Hartree potential.
  Time summed over all CPUs for potential: real work        0.382 s, elapsed        0.396 s
  | RMS charge density error from multipole expansion :   0.104071E-01

  Integrating Hamiltonian matrix: batch-based integration.
  Time summed over all CPUs for integration: real work        0.702 s, elapsed        0.745 s

  Updating Kohn-Sham eigenvalues and eigenvectors using ELSI and the ELPA eigensolver.
  Starting ELPA eigensolver
  Finished transformation to standard eigenproblem
  | Time :     0.000 s
  Finished solving standard eigenproblem
  | Time :     0.004 s
  Finished back-transformation of eigenvectors
  | Time :     0.000 s

  Obtaining occupation numbers and chemical potential using ELSI.
  | Chemical potential (Fermi level):    -6.13040188 eV
  Writing Kohn-Sham eigenvalues.

  State    Occupation    Eigenvalue [Ha]    Eigenvalue [eV]
      1       2.00000         -55.692241        -1515.46298
      2       2.00000         -55.663474        -1514.68020
      3       2.00000         -55.624136        -1513.60976
      4       2.00000         -24.251509         -659.91713
      5       2.00000         -24.241204         -659.63672
      6       2.00000         -24.205749         -658.67194
      7       2.00000         -24.185301         -658.11554
      8       2.00000         -24.184653         -658.09788
      9       2.00000         -24.094477         -655.64407
     10       2.00000         -24.042891         -654.24036
     11       2.00000         -24.037600         -654.09638
     12       2.00000         -24.023723         -653.71877
     13       2.00000          -4.128604         -112.34503
     14       2.00000          -4.101263         -111.60105
     15       2.00000          -4.061724         -110.52513
     16       2.00000          -2.722308          -74.07778
     17       2.00000          -2.721149          -74.04623
     18       2.00000          -2.720570          -74.03047
     19       2.00000          -2.695036          -73.33566
     20       2.00000          -2.694334          -73.31657
     21       2.00000          -2.692502          -73.26670
     22       2.00000          -2.655733          -72.26616
     23       2.00000          -2.654851          -72.24218
     24       2.00000          -2.652556          -72.17973
     25       2.00000          -1.178318          -32.06365
     26       2.00000          -1.153423          -31.38624
     27       2.00000          -1.130445          -30.76097
     28       2.00000          -1.117012          -30.39545
     29       2.00000          -1.100146          -29.93649
     30       2.00000          -1.037957          -28.24425
     31       2.00000          -0.990342          -26.94858
     32       2.00000          -0.982187          -26.72666
     33       2.00000          -0.974736          -26.52391
     34       2.00000          -0.560268          -15.24568
     35       2.00000          -0.546800          -14.87918
     36       2.00000          -0.526474          -14.32609
     37       2.00000          -0.498597          -13.56751
     38       2.00000          -0.492841          -13.41087
     39       2.00000          -0.480248          -13.06820
     40       2.00000          -0.470014          -12.78972
     41       2.00000          -0.464660          -12.64403
     42       2.00000          -0.450177          -12.24995
     43       2.00000          -0.441940          -12.02581
     44       2.00000          -0.437174          -11.89610
     45       2.00000          -0.424367          -11.54762
     46       2.00000          -0.410216          -11.16253
     47       2.00000          -0.406383          -11.05823
     48       2.00000          -0.400144          -10.88846
     49       2.00000          -0.383123          -10.42530
     50       2.00000          -0.365677           -9.95057
     51       2.00000          -0.348854           -9.49279
     52       2.00000          -0.348217           -9.47547
     53       2.00000          -0.347547           -9.45724
     54       2.00000          -0.326315           -8.87949
     55       2.00000          -0.304840           -8.29512
     56       2.00000          -0.300290           -8.17131
     57       2.00000          -0.296293           -8.06253
     58       2.00000          -0.293598           -7.98921
     59       2.00000          -0.284976           -7.75461
     60       2.00000          -0.276176           -7.51514
     61       0.00000          -0.177425           -4.82797
     62       0.00000          -0.120267           -3.27263
     63       0.00000          -0.082037           -2.23234
     64       0.00000          -0.066988           -1.82285
     65       0.00000          -0.051352           -1.39735
     66       0.00000          -0.036618           -0.99642
     67       0.00000           0.010587            0.28809
     68       0.00000           0.020639            0.56162
     69       0.00000           0.045466            1.23719
     70       0.00000           0.073629            2.00355
     71       0.00000           0.084066            2.28754
     72       0.00000           0.093522            2.54485
     73       0.00000           0.128693            3.50192
     74       0.00000           0.138702            3.77427
     75       0.00000           0.157054            4.27366
     76       0.00000           0.174832            4.75743
     77       0.00000           0.184353            5.01649
     78       0.00000           0.187927            5.11375
     79       0.00000           0.194950            5.30487
     80       0.00000           0.208528            5.67432
     81       0.00000           0.213046            5.79728
     82       0.00000           0.220410            5.99765
     83       0.00000           0.221941            6.03931
     84       0.00000           0.230983            6.28535
     85       0.00000           0.249831            6.79825
     86       0.00000           0.254755            6.93223
     87       0.00000           0.259142            7.05161
     88       0.00000           0.261498            7.11571
     89       0.00000           0.282542            7.68836
     90       0.00000           0.285684            7.77386
     91       0.00000           0.292350            7.95524
     92       0.00000           0.335045            9.11703
     93       0.00000           0.344157            9.36498
     94       0.00000           0.363107            9.88064
     95       0.00000           0.370257           10.07519
     96       0.00000           0.377018           10.25919

  Highest occupied state (VBM) at     -7.51514438 eV
  | Occupation number:      2.00000000

  Lowest unoccupied state (CBM) at    -4.82796999 eV
  | Occupation number:      0.00000000

  Overall HOMO-LUMO gap:      2.68717439 eV.

  Total energy components:
  | Sum of eigenvalues            :        -882.59672368 Ha      -24016.67880657 eV
  | XC energy correction          :        -145.65861323 Ha       -3963.57253023 eV
  | XC potential correction       :         189.67368966 Ha        5161.28369900 eV
  | Free-atom electrostatic energy:        -781.52156386 Ha      -21266.28376925 eV
  | Hartree energy correction     :          -5.00056465 Ha        -136.07228741 eV
  | Entropy correction            :           0.00000000 Ha           0.00000000 eV
  | ---------------------------
  | Total energy                  :       -1625.10377575 Ha      -44221.32369446 eV
  | Total energy, T -> 0          :       -1625.10377575 Ha      -44221.32369446 eV  <-- do not rely on this value for anything but (periodic) metals
  | Electronic free energy        :       -1625.10377575 Ha      -44221.32369446 eV

  Derived energy quantities:
  | Kinetic energy                :        1633.79751543 Ha       44457.89238758 eV
  | Electrostatic energy          :       -3113.24267796 Ha      -84715.64355181 eV
  | Energy correction for multipole
  | error in Hartree potential    :           0.03036356 Ha           0.82623450 eV
  | Sum of eigenvalues per atom                           :       -2001.38990055 eV
  | Total energy (T->0) per atom                          :       -3685.11030787 eV  <-- do not rely on this value for anything but (periodic) metals
  | Electronic free energy per atom                       :       -3685.11030787 eV
  Evaluating new KS density.
  Integration grid: deviation in total charge (<rho> - N_e) =   2.842171E-14

  Self-consistency convergence accuracy:
  | Change of charge density      :  0.5959E+00
  | Change of sum of eigenvalues  :  0.1312E+03 eV
  | Change of total energy        :  0.6179E+01 eV


------------------------------------------------------------
  End self-consistency iteration #     1       :  max(cpu_time)    wall_clock(cpu1)
  | Time for this iteration                     :        0.084 s           0.084 s
  | Charge density update                       :        0.028 s           0.028 s
  | Density mixing                              :        0.001 s           0.001 s
  | Hartree multipole update                    :        0.001 s           0.001 s
  | Hartree multipole summation                 :        0.017 s           0.017 s
  | Integration                                 :        0.032 s           0.032 s
  | Solution of K.-S. eqns.                     :        0.004 s           0.004 s
  | Total energy evaluation                     :        0.000 s           0.000 s

  Partial memory accounting:
  | Current value for overall tracked memory usage:
  |   Minimum:        0.273 MB (on task 23)
  |   Maximum:        0.292 MB (on task  0)
  |   Average:        0.287 MB
  | Peak value for overall tracked memory usage:
  |   Minimum:        1.360 MB (on task 11 after allocating wave)
  |   Maximum:        1.433 MB (on task  5 after allocating wave)
  |   Average:        1.389 MB
  | Largest tracked array allocation so far:
  |   Minimum:        0.746 MB (gradient_basis_wave on task  0)
  |   Maximum:        0.787 MB (gradient_basis_wave on task  5)
  |   Average:        0.762 MB
  Note:  These values currently only include a subset of arrays which are explicitly tracked.
  The "true" memory usage will be greater.
------------------------------------------------------------

------------------------------------------------------------
          Begin self-consistency iteration #    2

  Date     :  20220517, Time     :  120637.074
------------------------------------------------------------
  Pulay mixing of updated and previous charge densities.
  Renormalizing the density to the exact electron count on the 3D integration grid.
  | Formal number of electrons (from input files) :     120.0000000000
  | Integrated number of electrons on 3D grid     :     120.0000000000
  | Charge integration error                      :      -0.0000000000
  | Normalization factor for density and gradient :       1.0000000000

  Evaluating partitioned Hartree potential by multipole expansion.
  | Original multipole sum: apparent total charge =   0.408630E-13
  | Sum of charges compensated after spline to logarithmic grids =   0.871483E-04
  | Analytical far-field extrapolation by fixed multipoles:
  | Hartree multipole sum: apparent total charge =   0.412627E-13
  Summing up the Hartree potential.
  Time summed over all CPUs for potential: real work        0.380 s, elapsed        0.394 s
  | RMS charge density error from multipole expansion :   0.120407E-01

  Integrating Hamiltonian matrix: batch-based integration.
  Time summed over all CPUs for integration: real work        0.702 s, elapsed        0.746 s

  Updating Kohn-Sham eigenvalues and eigenvectors using ELSI and the ELPA eigensolver.
  Starting ELPA eigensolver
  Finished transformation to standard eigenproblem
  | Time :     0.000 s
  Finished solving standard eigenproblem
  | Time :     0.004 s
  Finished back-transformation of eigenvectors
  | Time :     0.000 s

  Obtaining occupation numbers and chemical potential using ELSI.
  | Chemical potential (Fermi level):    -7.88085201 eV
  Highest occupied state (VBM) at     -8.51752916 eV
  | Occupation number:      2.00000000

  Lowest unoccupied state (CBM) at    -5.09584817 eV
  | Occupation number:      0.00000000

  Overall HOMO-LUMO gap:      3.42168099 eV.

  Checking to see if s.c.f. parameters should be adjusted.

  Total energy components:
  | Sum of eigenvalues            :        -885.52885289 Ha      -24096.46610181 eV
  | XC energy correction          :        -145.17037596 Ha       -3950.28691830 eV
  | XC potential correction       :         189.03140770 Ha        5143.80631756 eV
  | Free-atom electrostatic energy:        -781.52156386 Ha      -21266.28376925 eV
  | Hartree energy correction     :          -1.84858122 Ha         -50.30245440 eV
  | Entropy correction            :           0.00000000 Ha           0.00000000 eV
  | ---------------------------
  | Total energy                  :       -1625.03796623 Ha      -44219.53292621 eV
  | Total energy, T -> 0          :       -1625.03796623 Ha      -44219.53292621 eV  <-- do not rely on this value for anything but (periodic) metals
  | Electronic free energy        :       -1625.03796623 Ha      -44219.53292621 eV

  Derived energy quantities:
  | Kinetic energy                :        1629.96661142 Ha       44353.64818557 eV
  | Electrostatic energy          :       -3109.83420169 Ha      -84622.89419347 eV
  | Energy correction for multipole
  | error in Hartree potential    :           0.03363906 Ha           0.91536538 eV
  | Sum of eigenvalues per atom                           :       -2008.03884182 eV
  | Total energy (T->0) per atom                          :       -3684.96107718 eV  <-- do not rely on this value for anything but (periodic) metals
  | Electronic free energy per atom                       :       -3684.96107718 eV
  Evaluating new KS density.
  Integration grid: deviation in total charge (<rho> - N_e) =   4.263256E-14

  Self-consistency convergence accuracy:
  | Change of charge density      :  0.4825E+00
  | Change of sum of eigenvalues  : -0.7979E+02 eV
  | Change of total energy        :  0.1791E+01 eV


------------------------------------------------------------
  End self-consistency iteration #     2       :  max(cpu_time)    wall_clock(cpu1)
  | Time for this iteration                     :        0.086 s           0.084 s
  | Charge density update                       :        0.028 s           0.028 s
  | Density mixing                              :        0.004 s           0.001 s
  | Hartree multipole update                    :        0.001 s           0.002 s
  | Hartree multipole summation                 :        0.017 s           0.016 s
  | Integration                                 :        0.032 s           0.032 s
  | Solution of K.-S. eqns.                     :        0.004 s           0.004 s
  | Total energy evaluation                     :        0.000 s           0.000 s

  Partial memory accounting:
  | Current value for overall tracked memory usage:
  |   Minimum:        0.274 MB (on task 23)
  |   Maximum:        0.293 MB (on task  0)
  |   Average:        0.288 MB
  | Peak value for overall tracked memory usage:
  |   Minimum:        1.360 MB (on task 11 after allocating wave)
  |   Maximum:        1.433 MB (on task  5 after allocating wave)
  |   Average:        1.389 MB
  | Largest tracked array allocation so far:
  |   Minimum:        0.746 MB (gradient_basis_wave on task  0)
  |   Maximum:        0.787 MB (gradient_basis_wave on task  5)
  |   Average:        0.762 MB
  Note:  These values currently only include a subset of arrays which are explicitly tracked.
  The "true" memory usage will be greater.
------------------------------------------------------------

------------------------------------------------------------
          Begin self-consistency iteration #    3

  Date     :  20220517, Time     :  120637.163
------------------------------------------------------------
  Pulay mixing of updated and previous charge densities.
  Renormalizing the density to the exact electron count on the 3D integration grid.
  | Formal number of electrons (from input files) :     120.0000000000
  | Integrated number of electrons on 3D grid     :     120.0000000000
  | Charge integration error                      :      -0.0000000000
  | Normalization factor for density and gradient :       1.0000000000

  Evaluating partitioned Hartree potential by multipole expansion.
  | Original multipole sum: apparent total charge =  -0.180670E-13
  | Sum of charges compensated after spline to logarithmic grids =   0.111300E-03
  | Analytical far-field extrapolation by fixed multipoles:
  | Hartree multipole sum: apparent total charge =  -0.208681E-13
  Summing up the Hartree potential.
  Time summed over all CPUs for potential: real work        0.380 s, elapsed        0.395 s
  | RMS charge density error from multipole expansion :   0.159652E-01

  Integrating Hamiltonian matrix: batch-based integration.
  Time summed over all CPUs for integration: real work        0.703 s, elapsed        0.746 s

  Updating Kohn-Sham eigenvalues and eigenvectors using ELSI and the ELPA eigensolver.
  Starting ELPA eigensolver
  Finished transformation to standard eigenproblem
  | Time :     0.000 s
  Finished solving standard eigenproblem
  | Time :     0.003 s
  Finished back-transformation of eigenvectors
  | Time :     0.001 s

  Obtaining occupation numbers and chemical potential using ELSI.
  | Chemical potential (Fermi level):    -7.91443747 eV
  Highest occupied state (VBM) at     -8.23524058 eV
  | Occupation number:      2.00000000

  Lowest unoccupied state (CBM) at    -5.33516521 eV
  | Occupation number:      0.00000000

  Overall HOMO-LUMO gap:      2.90007536 eV.

  Total energy components:
  | Sum of eigenvalues            :        -886.46621003 Ha      -24121.97288732 eV
  | XC energy correction          :        -145.13358397 Ha       -3949.28575740 eV
  | XC potential correction       :         188.98204687 Ha        5142.46314111 eV
  | Free-atom electrostatic energy:        -781.52156386 Ha      -21266.28376925 eV
  | Hartree energy correction     :          -0.89724601 Ha         -24.41530611 eV
  | Entropy correction            :           0.00000000 Ha           0.00000000 eV
  | ---------------------------
  | Total energy                  :       -1625.03655700 Ha      -44219.49457897 eV
  | Total energy, T -> 0          :       -1625.03655700 Ha      -44219.49457897 eV  <-- do not rely on this value for anything but (periodic) metals
  | Electronic free energy        :       -1625.03655700 Ha      -44219.49457897 eV

  Derived energy quantities:
  | Kinetic energy                :        1628.41146905 Ha       44311.33060842 eV
  | Electrostatic energy          :       -3108.31444207 Ha      -84581.53942999 eV
  | Energy correction for multipole
  | error in Hartree potential    :           0.04431650 Ha           1.20591335 eV
  | Sum of eigenvalues per atom                           :       -2010.16440728 eV
  | Total energy (T->0) per atom                          :       -3684.95788158 eV  <-- do not rely on this value for anything but (periodic) metals
  | Electronic free energy per atom                       :       -3684.95788158 eV
  Evaluating new KS density.
  Integration grid: deviation in total charge (<rho> - N_e) =  -1.421085E-14

  Self-consistency convergence accuracy:
  | Change of charge density      :  0.1294E+00
  | Change of sum of eigenvalues  : -0.2551E+02 eV
  | Change of total energy        :  0.3835E-01 eV


------------------------------------------------------------
  End self-consistency iteration #     3       :  max(cpu_time)    wall_clock(cpu1)
  | Time for this iteration                     :        0.086 s           0.084 s
  | Charge density update                       :        0.028 s           0.028 s
  | Density mixing                              :        0.004 s           0.002 s
  | Hartree multipole update                    :        0.001 s           0.001 s
  | Hartree multipole summation                 :        0.017 s           0.016 s
  | Integration                                 :        0.032 s           0.032 s
  | Solution of K.-S. eqns.                     :        0.004 s           0.004 s
  | Total energy evaluation                     :        0.000 s           0.000 s

  Partial memory accounting:
  | Current value for overall tracked memory usage:
  |   Minimum:        0.274 MB (on task 23)
  |   Maximum:        0.293 MB (on task  0)
  |   Average:        0.288 MB
  | Peak value for overall tracked memory usage:
  |   Minimum:        1.360 MB (on task 11 after allocating wave)
  |   Maximum:        1.433 MB (on task  5 after allocating wave)
  |   Average:        1.389 MB
  | Largest tracked array allocation so far:
  |   Minimum:        0.746 MB (gradient_basis_wave on task  0)
  |   Maximum:        0.787 MB (gradient_basis_wave on task  5)
  |   Average:        0.762 MB
  Note:  These values currently only include a subset of arrays which are explicitly tracked.
  The "true" memory usage will be greater.
------------------------------------------------------------

------------------------------------------------------------
          Begin self-consistency iteration #    4

  Date     :  20220517, Time     :  120637.253
------------------------------------------------------------
  Pulay mixing of updated and previous charge densities.
  Renormalizing the density to the exact electron count on the 3D integration grid.
  | Formal number of electrons (from input files) :     120.0000000000
  | Integrated number of electrons on 3D grid     :     120.0000000000
  | Charge integration error                      :       0.0000000000
  | Normalization factor for density and gradient :       1.0000000000

  Evaluating partitioned Hartree potential by multipole expansion.
  | Original multipole sum: apparent total charge =   0.427263E-13
  | Sum of charges compensated after spline to logarithmic grids =   0.124578E-03
  | Analytical far-field extrapolation by fixed multipoles:
  | Hartree multipole sum: apparent total charge =   0.414226E-13
  Summing up the Hartree potential.
  Time summed over all CPUs for potential: real work        0.380 s, elapsed        0.395 s
  | RMS charge density error from multipole expansion :   0.183664E-01

  Integrating Hamiltonian matrix: batch-based integration.
  Time summed over all CPUs for integration: real work        0.703 s, elapsed        0.746 s

  Updating Kohn-Sham eigenvalues and eigenvectors using ELSI and the ELPA eigensolver.
  Starting ELPA eigensolver
  Finished transformation to standard eigenproblem
  | Time :     0.000 s
  Finished solving standard eigenproblem
  | Time :     0.003 s
  Finished back-transformation of eigenvectors
  | Time :     0.000 s

  Obtaining occupation numbers and chemical potential using ELSI.
  | Chemical potential (Fermi level):    -7.89656507 eV
  Highest occupied state (VBM) at     -8.13218493 eV
  | Occupation number:      2.00000000

  Lowest unoccupied state (CBM) at    -5.36536121 eV
  | Occupation number:      0.00000000

  Overall HOMO-LUMO gap:      2.76682372 eV.

  Total energy components:
  | Sum of eigenvalues            :        -886.67288470 Ha      -24127.59679123 eV
  | XC energy correction          :        -145.11135750 Ha       -3948.68094429 eV
  | XC potential correction       :         188.95204669 Ha        5141.64679450 eV
  | Free-atom electrostatic energy:        -781.52156386 Ha      -21266.28376925 eV
  | Hartree energy correction     :          -0.68010131 Ha         -18.50649825 eV
  | Entropy correction            :          -0.00000000 Ha          -0.00000000 eV
  | ---------------------------
  | Total energy                  :       -1625.03386068 Ha      -44219.42120852 eV
  | Total energy, T -> 0          :       -1625.03386068 Ha      -44219.42120852 eV  <-- do not rely on this value for anything but (periodic) metals
  | Electronic free energy        :       -1625.03386068 Ha      -44219.42120852 eV

  Derived energy quantities:
  | Kinetic energy                :        1627.56252757 Ha       44288.22973549 eV
  | Electrostatic energy          :       -3107.48503075 Ha      -84558.96999971 eV
  | Energy correction for multipole
  | error in Hartree potential    :           0.05030250 Ha           1.36880064 eV
  | Sum of eigenvalues per atom                           :       -2010.63306594 eV
  | Total energy (T->0) per atom                          :       -3684.95176738 eV  <-- do not rely on this value for anything but (periodic) metals
  | Electronic free energy per atom                       :       -3684.95176738 eV
  Evaluating new KS density.
  Integration grid: deviation in total charge (<rho> - N_e) =  -2.842171E-14

  Self-consistency convergence accuracy:
  | Change of charge density      :  0.9707E-01
  | Change of sum of eigenvalues  : -0.5624E+01 eV
  | Change of total energy        :  0.7337E-01 eV


------------------------------------------------------------
  End self-consistency iteration #     4       :  max(cpu_time)    wall_clock(cpu1)
  | Time for this iteration                     :        0.086 s           0.084 s
  | Charge density update                       :        0.028 s           0.028 s
  | Density mixing                              :        0.004 s           0.002 s
  | Hartree multipole update                    :        0.001 s           0.001 s
  | Hartree multipole summation                 :        0.017 s           0.017 s
  | Integration                                 :        0.032 s           0.032 s
  | Solution of K.-S. eqns.                     :        0.004 s           0.004 s
  | Total energy evaluation                     :        0.000 s           0.000 s

  Partial memory accounting:
  | Current value for overall tracked memory usage:
  |   Minimum:        0.274 MB (on task 23)
  |   Maximum:        0.293 MB (on task  0)
  |   Average:        0.288 MB
  | Peak value for overall tracked memory usage:
  |   Minimum:        1.360 MB (on task 11 after allocating wave)
  |   Maximum:        1.433 MB (on task  5 after allocating wave)
  |   Average:        1.389 MB
  | Largest tracked array allocation so far:
  |   Minimum:        0.746 MB (gradient_basis_wave on task  0)
  |   Maximum:        0.787 MB (gradient_basis_wave on task  5)
  |   Average:        0.762 MB
  Note:  These values currently only include a subset of arrays which are explicitly tracked.
  The "true" memory usage will be greater.
------------------------------------------------------------

------------------------------------------------------------
          Begin self-consistency iteration #    5

  Date     :  20220517, Time     :  120637.343
------------------------------------------------------------
  Pulay mixing of updated and previous charge densities.
  Renormalizing the density to the exact electron count on the 3D integration grid.
  | Formal number of electrons (from input files) :     120.0000000000
  | Integrated number of electrons on 3D grid     :     120.0000000000
  | Charge integration error                      :      -0.0000000000
  | Normalization factor for density and gradient :       1.0000000000

  Evaluating partitioned Hartree potential by multipole expansion.
  | Original multipole sum: apparent total charge =   0.285211E-13
  | Sum of charges compensated after spline to logarithmic grids =   0.124832E-03
  | Analytical far-field extrapolation by fixed multipoles:
  | Hartree multipole sum: apparent total charge =   0.279184E-13
  Summing up the Hartree potential.
  Time summed over all CPUs for potential: real work        0.380 s, elapsed        0.395 s
  | RMS charge density error from multipole expansion :   0.181984E-01

  Integrating Hamiltonian matrix: batch-based integration.
  Time summed over all CPUs for integration: real work        0.703 s, elapsed        0.746 s

  Updating Kohn-Sham eigenvalues and eigenvectors using ELSI and the ELPA eigensolver.
  Starting ELPA eigensolver
  Finished transformation to standard eigenproblem
  | Time :     0.000 s
  Finished solving standard eigenproblem
  | Time :     0.003 s
  Finished back-transformation of eigenvectors
  | Time :     0.000 s

  Obtaining occupation numbers and chemical potential using ELSI.
  | Chemical potential (Fermi level):    -7.87922449 eV
  Highest occupied state (VBM) at     -8.22977097 eV
  | Occupation number:      2.00000000

  Lowest unoccupied state (CBM) at    -5.30025205 eV
  | Occupation number:      0.00000000

  Overall HOMO-LUMO gap:      2.92951892 eV.

  Total energy components:
  | Sum of eigenvalues            :        -886.48813578 Ha      -24122.56951727 eV
  | XC energy correction          :        -145.10823140 Ha       -3948.59587887 eV
  | XC potential correction       :         188.94809054 Ha        5141.53914230 eV
  | Free-atom electrostatic energy:        -781.52156386 Ha      -21266.28376925 eV
  | Hartree energy correction     :          -0.86383311 Ha         -23.50609491 eV
  | Entropy correction            :           0.00000000 Ha           0.00000000 eV
[...]
   Total forces(   7)            : -0.357336E+00  0.244483E+01 -0.539174E+00
  atom #    8
   Hellmann-Feynman              :  0.417522E+00 -0.979910E+00 -0.118901E+01
   Ionic forces                  :  0.000000E+00  0.000000E+00  0.000000E+00
   Multipole                     :  0.128000E+00 -0.236484E+00 -0.599984E+00
   Hartree pot. SCF incomplete   :  0.805774E-05 -0.415150E-05 -0.634092E-05
   Pulay + GGA                   : -0.173359E+01  0.220880E+01  0.197538E+01
   ----------------------------------------------------------------
   Total forces(   8)            : -0.118806E+01  0.992399E+00  0.186379E+00
  atom #    9
   Hellmann-Feynman              : -0.145962E+00  0.334460E+00 -0.304145E+01
   Ionic forces                  :  0.000000E+00  0.000000E+00  0.000000E+00
   Multipole                     :  0.148743E+00 -0.952083E-01 -0.863735E+00
   Hartree pot. SCF incomplete   : -0.111584E-05 -0.865118E-06 -0.640704E-05
   Pulay + GGA                   : -0.140812E+00 -0.347593E+00  0.772492E+01
   ----------------------------------------------------------------
   Total forces(   9)            : -0.138033E+00 -0.108342E+00  0.381973E+01
  atom #   10
   Hellmann-Feynman              :  0.145940E+00  0.579496E+00  0.110904E+01
   Ionic forces                  :  0.000000E+00  0.000000E+00  0.000000E+00
   Multipole                     :  0.179565E+00  0.352714E+00  0.433194E+00
   Hartree pot. SCF incomplete   :  0.159039E-06  0.121066E-04  0.136605E-05
   Pulay + GGA                   : -0.563068E+00 -0.321488E+01 -0.328265E+01
   ----------------------------------------------------------------
   Total forces(  10)            : -0.237563E+00 -0.228266E+01 -0.174042E+01
  atom #   11
   Hellmann-Feynman              :  0.177340E+01  0.109963E+01  0.171531E+01
   Ionic forces                  :  0.000000E+00  0.000000E+00  0.000000E+00
   Multipole                     :  0.302641E+00  0.330370E+00  0.443876E+00
   Hartree pot. SCF incomplete   :  0.424993E-05  0.361234E-05  0.606099E-05
   Pulay + GGA                   : -0.431386E+01 -0.325233E+01 -0.503636E+01
   ----------------------------------------------------------------
   Total forces(  11)            : -0.223782E+01 -0.182233E+01 -0.287717E+01
  atom #   12
   Hellmann-Feynman              :  0.419931E+00 -0.355579E+00  0.133199E+00
   Ionic forces                  :  0.000000E+00  0.000000E+00  0.000000E+00
   Multipole                     : -0.248812E+00 -0.458710E+00  0.186983E+00
   Hartree pot. SCF incomplete   : -0.758521E-05 -0.394532E-05 -0.120767E-05
   Pulay + GGA                   :  0.116751E+01  0.228377E+01 -0.763444E+00
   ----------------------------------------------------------------
   Total forces(  12)            :  0.133862E+01  0.146948E+01 -0.443263E+00


  Self-consistency convergence accuracy:
  | Change of charge density      :  0.4900E-06
  | Change of sum of eigenvalues  : -0.9769E-05 eV
  | Change of total energy        :  0.3205E-08 eV
  | Change of forces              :  0.1748E-05 eV/A

  Writing Kohn-Sham eigenvalues.

  State    Occupation    Eigenvalue [Ha]    Eigenvalue [eV]
      1       2.00000         -55.685817        -1515.28818
      2       2.00000         -55.642890        -1514.12006
      3       2.00000         -55.598050        -1512.89992
      4       2.00000         -24.327185         -661.97639
      5       2.00000         -24.312632         -661.58037
      6       2.00000         -24.304966         -661.37177
      7       2.00000         -24.269800         -660.41486
      8       2.00000         -24.263593         -660.24595
      9       2.00000         -24.255369         -660.02217
     10       2.00000         -24.192903         -658.32239
     11       2.00000         -24.174551         -657.82300
     12       2.00000         -24.156859         -657.34158
     13       2.00000          -4.136136         -112.54999
     14       2.00000          -4.094085         -111.40573
     15       2.00000          -4.048133         -110.15530
     16       2.00000          -2.730118          -74.29028
     17       2.00000          -2.727880          -74.22939
     18       2.00000          -2.725293          -74.15899
     19       2.00000          -2.687228          -73.12318
     20       2.00000          -2.686108          -73.09272
     21       2.00000          -2.683646          -73.02572
     22       2.00000          -2.643142          -71.92356
     23       2.00000          -2.639469          -71.82361
     24       2.00000          -2.636447          -71.74136
     25       2.00000          -1.202681          -32.72662
     26       2.00000          -1.174004          -31.94628
     27       2.00000          -1.162583          -31.63548
     28       2.00000          -1.136404          -30.92313
     29       2.00000          -1.120115          -30.47988
     30       2.00000          -1.099010          -29.90559
     31       2.00000          -1.028548          -27.98822
     32       2.00000          -1.020188          -27.76072
     33       2.00000          -1.001095          -27.24117
     34       2.00000          -0.580612          -15.79925
     35       2.00000          -0.567134          -15.43251
     36       2.00000          -0.545871          -14.85391
     37       2.00000          -0.519211          -14.12845
     38       2.00000          -0.518444          -14.10759
     39       2.00000          -0.501978          -13.65952
     40       2.00000          -0.489804          -13.32824
     41       2.00000          -0.486652          -13.24247
     42       2.00000          -0.471827          -12.83906
     43       2.00000          -0.465560          -12.66853
     44       2.00000          -0.461675          -12.56282
     45       2.00000          -0.459443          -12.50209
     46       2.00000          -0.451411          -12.28353
     47       2.00000          -0.429700          -11.69272
     48       2.00000          -0.425523          -11.57907
     49       2.00000          -0.405652          -11.03836
     50       2.00000          -0.404304          -11.00168
     51       2.00000          -0.403090          -10.96864
     52       2.00000          -0.392452          -10.67917
     53       2.00000          -0.384917          -10.47411
     54       2.00000          -0.352756           -9.59899
     55       2.00000          -0.338276           -9.20495
     56       2.00000          -0.335195           -9.12112
     57       2.00000          -0.331094           -9.00952
     58       2.00000          -0.324420           -8.82793
     59       2.00000          -0.310108           -8.43846
     60       2.00000          -0.301426           -8.20221
     61       0.00000          -0.194529           -5.29342
     62       0.00000          -0.132571           -3.60745
     63       0.00000          -0.090237           -2.45549
     64       0.00000          -0.069789           -1.89905
     65       0.00000          -0.062116           -1.69026
     66       0.00000          -0.045480           -1.23757
     67       0.00000           0.005778            0.15722
     68       0.00000           0.019293            0.52498
     69       0.00000           0.040109            1.09143
     70       0.00000           0.070858            1.92814
     71       0.00000           0.082594            2.24750
     72       0.00000           0.092864            2.52695
     73       0.00000           0.119530            3.25257
     74       0.00000           0.131149            3.56874
     75       0.00000           0.149145            4.05845
     76       0.00000           0.164302            4.47090
     77       0.00000           0.178338            4.85283
     78       0.00000           0.184741            5.02706
     79       0.00000           0.193105            5.25467
     80       0.00000           0.200911            5.46708
     81       0.00000           0.208175            5.66474
     82       0.00000           0.215892            5.87473
     83       0.00000           0.220117            5.98969
     84       0.00000           0.229411            6.24260
     85       0.00000           0.242908            6.60987
     86       0.00000           0.247690            6.73999
     87       0.00000           0.256244            6.97277
     88       0.00000           0.257355            7.00298
     89       0.00000           0.281032            7.64728
     90       0.00000           0.284076            7.73010
     91       0.00000           0.288310            7.84530
     92       0.00000           0.332359            9.04394
     93       0.00000           0.335190            9.12098
     94       0.00000           0.350489            9.53730
     95       0.00000           0.363008            9.87794
     96       0.00000           0.367446            9.99871

  Highest occupied state (VBM) at     -8.20221199 eV
  | Occupation number:      2.00000000

  Lowest unoccupied state (CBM) at    -5.29341682 eV
  | Occupation number:      0.00000000

  Overall HOMO-LUMO gap:      2.90879517 eV.
  | Chemical Potential                          :    -7.87574871 eV

  Self-consistency cycle converged.


------------------------------------------------------------
  End self-consistency iteration #    14       :  max(cpu_time)    wall_clock(cpu1)
  | Time for this iteration                     :        0.274 s           0.272 s
  | Charge density & force component update     :        0.150 s           0.149 s
  | Density mixing                              :        0.005 s           0.003 s
  | Hartree multipole update                    :        0.001 s           0.001 s
  | Hartree multipole summation                 :        0.050 s           0.050 s
  | Hartree pot. SCF incomplete forces          :        0.032 s           0.032 s
  | Integration                                 :        0.032 s           0.031 s
  | Solution of K.-S. eqns.                     :        0.004 s           0.004 s
  | Total energy evaluation                     :        0.000 s           0.000 s

  Partial memory accounting:
  | Current value for overall tracked memory usage:
  |   Minimum:        0.274 MB (on task 23)
  |   Maximum:        0.293 MB (on task  0)
  |   Average:        0.289 MB
  | Peak value for overall tracked memory usage:
  |   Minimum:        3.046 MB (on task 11 after allocating hessian_basis_wave)
  |   Maximum:        3.192 MB (on task  5 after allocating hessian_basis_wave)
  |   Average:        3.103 MB
  | Largest tracked array allocation so far:
  |   Minimum:        1.492 MB (hessian_basis_wave on task  0)
  |   Maximum:        1.575 MB (hessian_basis_wave on task  5)
  |   Average:        1.524 MB
  Note:  These values currently only include a subset of arrays which are explicitly tracked.
  The "true" memory usage will be greater.
------------------------------------------------------------
  Removing unitary transformations (pure translations, rotations) from forces on atoms.
  Atomic forces before filtering:
  | Net force on center of mass :  -0.618864E-02  0.889500E-02 -0.495208E-02 eV/A
  | Net torque on center of mass:  -0.628467E-02  0.113144E-01  0.332371E-02 eV
  Atomic forces after filtering:
  | Net force on center of mass :  -0.713624E-15 -0.535218E-15 -0.124884E-14 eV/A
  | Net torque on center of mass:   0.113290E-14  0.217139E-14  0.264344E-14 eV

  Energy and forces in a compact form:
  | Total energy uncorrected      :         -0.442194157305591E+05 eV
  | Total energy corrected        :         -0.442194157305591E+05 eV  <-- do not rely on this value for anything but (periodic) metals
  | Electronic free energy        :         -0.442194157305591E+05 eV
  Total atomic forces (unitary forces cleaned) [eV/Ang]:
  |    1         -0.337149088571491E+01         -0.418627885914263E+00          0.113427433535986E+01
  |    2          0.226987155750796E+01          0.158614592054203E+01          0.455052957052596E+01
  |    3          0.212459263553125E+00         -0.283463124665383E+00         -0.198637562369311E+01
  |    4          0.528710125483726E+00         -0.210075451423922E+01         -0.994365403091887E+00
  |    5          0.186486069788797E+01         -0.218226578697206E+01         -0.169788383076264E+00
  |    6          0.131189568900902E+01          0.270984911640794E+01         -0.943736528362500E+00
  |    7         -0.357083488790550E+00          0.244394279590142E+01         -0.538819207692446E+00
  |    8         -0.118732894579843E+01          0.991704228089633E+00          0.187045045821334E+00
  |    9         -0.136799006809875E+00         -0.108658696989978E+00          0.382022468226009E+01
  |   10         -0.236828308877745E+00         -0.228336602644520E+01         -0.173969968032048E+01
  |   11         -0.223753438029374E+01         -0.182342072429837E+01         -0.287616496270851E+01
  |   12          0.133926768284344E+01          0.146891469858346E+01         -0.443123845022047E+00

  ------------------------------------ 
  Start decomposition of the XC Energy 
  ------------------------------------ 
  X and C from original XC functional choice 
  Hartree-Fock Energy :          0.000000000 Ha              0.000000000 eV
  X Energy            :       -140.160376146 Ha          -3813.957886982 eV
  C Energy            :         -4.952117621 Ha           -134.753976678 eV
  Total XC Energy     :       -145.112493767 Ha          -3948.711863660 eV
  ------------------------------------ 
  LDA X and C from self-consistent density 
  X Energy LDA        :       -132.746043454 Ha          -3612.203629280 eV
  C Energy LDA        :         -8.824810251 Ha           -240.135304892 eV
  ------------------------------------ 
  End decomposition of the XC Energy 
  ------------------------------------ 

------------------------------------------------------------

------------------------------------------------------------------------------
  Final output of selected total energy values:

  The following output summarizes some interesting total energy values
  at the end of a run (AFTER all relaxation, molecular dynamics, etc.).

  | Total energy of the DFT / Hartree-Fock s.c.f. calculation      :         -44219.415730559 eV
  | Final zero-broadening corrected energy (caution - metals only) :         -44219.415730559 eV
  | For reference only, the value of 1 Hartree used in FHI-aims is :             27.211384500 eV

  Before relying on these values, please be sure to understand exactly which
  total energy value is referred to by a given number. Different objects may
  all carry the same name 'total energy'. Definitions:

  Total energy of the DFT / Hartree-Fock s.c.f. calculation:
  | Note that this energy does not include ANY quantities calculated after the
  | s.c.f. cycle, in particular not ANY RPA, MP2, etc. many-body perturbation terms.

  Final zero-broadening corrected energy:
  | For metallic systems only, a broadening of the occupation numbers at the Fermi
  | level can be extrapolated back to zero broadening by an electron-gas inspired
  | formula. For all systems that are not real metals, this value can be
  | meaningless and should be avoided.

------------------------------------------------------------------------------
  Methods described in the following list of references were used in this FHI-aims run.
  If you publish the results, please make sure to cite these reference if they apply.
  FHI-aims is an academic code, and for our developers (often, Ph.D. students
  and postdocs), scientific credit in the community is essential.
  Thank you for helping us!

  For any use of FHI-aims, please cite:

    Volker Blum, Ralf Gehrke, Felix Hanke, Paula Havu, Ville Havu,
    Xinguo Ren, Karsten Reuter, and Matthias Scheffler
    'Ab initio molecular simulations with numeric atom-centered orbitals'
    Computer Physics Communications 180, 2175-2196 (2009)
    http://dx.doi.org/10.1016/j.cpc.2009.06.022


  The ELSI infrastructure was used in your run to solve the Kohn-Sham electronic structure.
  Please check out http://elsi-interchange.org to learn more.
  If scalability is important for your project, please acknowledge ELSI by citing:

    V. W-z. Yu, F. Corsetti, A. Garcia, W. P. Huhn, M. Jacquelin, W. Jia,
    B. Lange, L. Lin, J. Lu, W. Mi, A. Seifitokaldani, A. Vazquez-Mayagoitia,
    C. Yang, H. Yang, and V. Blum
    'ELSI: A unified software interface for Kohn-Sham electronic structure solvers'
    Computer Physics Communications 222, 267-285 (2018).
    http://dx.doi.org/10.1016/j.cpc.2017.09.007


  For the real-space grid partitioning and parallelization used in this calculation, please cite:

    Ville Havu, Volker Blum, Paula Havu, and Matthias Scheffler,
    'Efficient O(N) integration for all-electron electronic structure calculation'
    'using numerically tabulated basis functions'
    Journal of Computational Physics 228, 8367-8379 (2009).
    http://dx.doi.org/10.1016/j.jcp.2009.08.008

  Of course, there are many other important community references, e.g., those cited in the
  above references. Our list is limited to references that describe implementations in the
  FHI-aims code. The reason is purely practical (length of this list) - please credit others as well.

------------------------------------------------------------
          Leaving FHI-aims.
          Date     :  20220517, Time     :  120638.636

          Computational steps:
          | Number of self-consistency cycles          :           14
          | Number of SCF (re)initializations          :            1

          Detailed time accounting                     :  max(cpu_time)    wall_clock(cpu1)
          | Total time                                  :        1.962 s           2.027 s
          | Preparation time                            :        0.184 s           0.184 s
          | Boundary condition initalization            :        0.000 s           0.000 s
          | Grid partitioning                           :        0.035 s           0.035 s
          | Preloading free-atom quantities on grid     :        0.015 s           0.016 s
          | Free-atom superposition energy              :        0.005 s           0.005 s
          | Total time for integrations                 :        0.489 s           0.490 s
          | Total time for solution of K.-S. equations  :        0.068 s           0.068 s
          | Total time for density & force components   :        0.668 s           0.668 s
          | Total time for mixing                       :        0.062 s           0.037 s
          | Total time for Hartree multipole update     :        0.018 s           0.018 s
          | Total time for Hartree multipole sum        :        0.301 s           0.300 s
          | Total time for total energy evaluation      :        0.002 s           0.000 s
          | Total time NSC force correction             :        0.063 s           0.063 s
          | Total time for scaled ZORA corrections      :        0.000 s           0.000 s

          Partial memory accounting:
          | Residual value for overall tracked memory usage across tasks:     0.000000 MB (should be 0.000000 MB)
          | Peak values for overall tracked memory usage:
          |   Minimum:        3.046 MB (on task 11 after allocating hessian_basis_wave)
          |   Maximum:        3.192 MB (on task  5 after allocating hessian_basis_wave)
          |   Average:        3.103 MB
          | Largest tracked array allocation:
          |   Minimum:        1.492 MB (hessian_basis_wave on task  0)
          |   Maximum:        1.575 MB (hessian_basis_wave on task  5)
          |   Average:        1.524 MB
          Note:  These values currently only include a subset of arrays which are explicitly tracked.
          The "true" memory usage will be greater.

          Have a nice day.
------------------------------------------------------------
