------------------------------------------------------------
          Invoking FHI-aims ...

          When using FHI-aims, please cite the following reference:

            Volker Blum, Ralf Gehrke, Felix Hanke, Paula Havu,
            Ville Havu, Xinguo Ren, Karsten Reuter, and Matthias Scheffler,
            'Ab Initio Molecular Simulations with Numeric Atom-Centered Orbitals',
            Computer Physics Communications 180, 2175-2196 (2009)

          In addition, many other developments in FHI-aims are likely important for
          your particular application. A partial list of references is given at the end of
          this file. Thank you for giving credit to the authors of these developments.

          For any questions about FHI-aims, please visit our slack channel at

            https://fhi-aims.slack.com

          and our main development and support site at

            https://aims-git.rz-berlin.mpg.de .

          The latter site, in particular, has a wiki to collect information, as well
          as an issue tracker to log discussions, suggest improvements, and report issues
          or bugs. https://aims-git.rz-berlin.mpg.de is also the main development site
          of the project and all new and updated code versions can be obtained there.
          Please send an email to aims-coordinators@fhi-berlin.mpg.de and we will add
          you to these sites. They are for you and everyone is welcome there.

------------------------------------------------------------



  Date     :  20220517, Time     :  121232.084
  Time zero on CPU 1             :   0.926800000000000E-01  s.
  Internal wall clock time zero  :           422021552.084  s.

  FHI-aims created a unique identifier for this run for later identification
  aims_uuid : 2BCB52EC-43B7-40EA-AD80-1060C4E74214

  Build configuration of the current instance of FHI-aims
  -------------------------------------------------------
  FHI-aims version      : 210914
  Commit number         : GITDIR-NOTFOUND
  CMake host system     : Linux-3.10.0-693.17.1.el7.x86_64
  CMake version         : 3.21.1
  Fortran compiler      : /shared/ucl/apps/intel/2018.Update3/impi/2018.3.222/intel64/bin/mpiifort (Intel) version 18.0.3.20180410
  Fortran compiler flags: -O3 -ip -fp-model precise
  C compiler            : /shared/ucl/apps/intel/2018.Update3/compilers_and_libraries_2018.3.222/linux/bin/intel64/icc (Intel) version 18.0.3.20180410
  C compiler flags      : -O3 -ip -fp-model precise -std=gnu99
  ELPA2 kernel          : AVX2
  Using MPI
  Using ScaLAPACK
  Using LibXC
  Using i-PI
  Using RLSY
  Linking against: /shared/ucl/apps/intel/2019.Update5/compilers_and_libraries_2019.5.281/linux/mkl/lib/intel64/libmkl_intel_lp64.so
                   /shared/ucl/apps/intel/2019.Update5/compilers_and_libraries_2019.5.281/linux/mkl/lib/intel64/libmkl_sequential.so
                   /shared/ucl/apps/intel/2019.Update5/compilers_and_libraries_2019.5.281/linux/mkl/lib/intel64/libmkl_core.so
                   /shared/ucl/apps/intel/2019.Update5/compilers_and_libraries_2019.5.281/linux/mkl/lib/intel64/libmkl_blacs_intelmpi_lp64.so
                   /shared/ucl/apps/intel/2019.Update5/compilers_and_libraries_2019.5.281/linux/mkl/lib/intel64/libmkl_scalapack_lp64.so

  Using       24 parallel tasks.
  Task        0 on host node-k98i-010 reporting.
  Task        1 on host node-k98i-010 reporting.
  Task        2 on host node-k98i-010 reporting.
  Task        3 on host node-k98i-010 reporting.
  Task        4 on host node-k98i-010 reporting.
  Task        5 on host node-k98i-010 reporting.
  Task        6 on host node-k98i-010 reporting.
  Task        7 on host node-k98i-010 reporting.
  Task        8 on host node-k98i-010 reporting.
  Task        9 on host node-k98i-010 reporting.
  Task       10 on host node-k98i-010 reporting.
  Task       11 on host node-k98i-010 reporting.
  Task       12 on host node-k98i-010 reporting.
  Task       13 on host node-k98i-010 reporting.
  Task       14 on host node-k98i-010 reporting.
  Task       15 on host node-k98i-010 reporting.
  Task       16 on host node-k98i-010 reporting.
  Task       17 on host node-k98i-010 reporting.
  Task       18 on host node-k98i-010 reporting.
  Task       19 on host node-k98i-010 reporting.
  Task       20 on host node-k98i-010 reporting.
  Task       21 on host node-k98i-010 reporting.
  Task       22 on host node-k98i-010 reporting.
  Task       23 on host node-k98i-010 reporting.

  Performing system and environment tests:
  | Environment variable OMP_NUM_THREADS correctly set to 1.
  | Checking for ScaLAPACK...
  | Testing pdtran()...
  | All pdtran() tests passed.

  Obtaining array dimensions for all initial allocations:
  
  -----------------------------------------------------------------------
  Parsing control.in (first pass over file, find array dimensions only).
  The contents of control.in will be repeated verbatim below
  unless switched off by setting 'verbatim_writeout .false.' .
  in the first line of control.in .
  -----------------------------------------------------------------------
  
  #########################################################################################  Physical model
  #########################################################################################
  xc                 pbesol
  spin               none
  relativistic       atomic_zora scalar
  charge             0.0
  #  SCF convergence
  occupation_type    gaussian 0.01
  mixer              pulay
  n_max_pulay        10
  charge_mix_param   0.5
  sc_accuracy_rho    1E-5
  sc_accuracy_eev    1E-3
  sc_accuracy_etot   1E-6
  sc_accuracy_forces 1E-4
  sc_iter_limit      1500
  #  Relaxation
  #relax_geometry   bfgs 1.e-3
  
  ################################################################################
  #
  #  FHI-aims code project
  #  VB, Fritz-Haber Institut, 2009
  #
  #  Suggested "light" defaults for Al atom (to be pasted into control.in file)
  #  Be sure to double-check any results obtained with these settings for post-processing,
  #  e.g., with the "tight" defaults and larger basis sets.
  #
  ################################################################################
    species        Al
  #     global species definitions
      nucleus             13
      mass                26.9815386
  #
      l_hartree           4
  #
      cut_pot             3.5          1.5  1.0
      basis_dep_cutoff    1e-4
  #
      radial_base         41 5.0
      radial_multiplier   1
      angular_grids       specified
        division   0.6594  110
        division   0.8170  194
        division   0.9059  302
  #      division   1.0363  434
  #      division   1.1443  590
  #      division   1.2621  770
  #      division   2.8177  974
  #      outer_grid   974
        outer_grid   302
  ################################################################################
  #
  #  Definition of "minimal" basis
  #
  ################################################################################
  #     valence basis states
      valence      3  s   2.
      valence      3  p   1.
  #     ion occupancy
      ion_occ      3  s   1.
      ion_occ      2  p   6.
  ################################################################################
  #
  #  Suggested additional basis functions. For production calculations,
  #  uncomment them one after another (the most important basis functions are
  #  listed first).
  #
  #  Constructed for dimers: 2.0 A, 2.5 A, 3.0 A, 3.75 A, 4.5 A
  #
  ################################################################################
  #  "First tier" - improvements: -199.47 meV to -10.63 meV
       ionic 3 d auto
       ionic 3 p auto
  #     hydro 4 f 4.7
       ionic 3 s auto
  #  "Second tier" - improvements: -5.35 meV to -1.57 meV
  #     hydro 5 g 7
  #     hydro 3 d 6
  #     hydro 2 s 11.6
  #     hydro 2 p 0.9
  #  "Third tier" - improvements: -0.63 meV to -0.20 meV
  #     hydro 5 f 7.6
  #     hydro 4 p 7.2
  #     hydro 4 s 3.7
  #     hydro 4 d 7.6
  #  "Fourth tier" - improvements: -0.17 meV to -0.08 meV
  #     hydro 4 d 13.6
  #     hydro 5 g 11.2
  #     hydro 4 d 0.9
  #     hydro 1 s 0.4
  #     hydro 4 p 0.1
  #     hydro 5 f 9.8
  #  Further basis functions that fell out of the optimization - noise level...
  #     hydro 4 p 5
  
  ################################################################################
  #
  #  FHI-aims code project
  #  VB, Fritz-Haber Institut, 2009
  #
  #  Suggested "light" defaults for F atom (to be pasted into control.in file)
  #  Be sure to double-check any results obtained with these settings for post-processing,
  #  e.g., with the "tight" defaults and larger basis sets.
  #
  ################################################################################
    species        F
  #     global species definitions
      nucleus             9
      mass                18.9984032
  #
      l_hartree           4
  #
      cut_pot             3.5  1.5  1.0
      basis_dep_cutoff    1e-4
  #
      radial_base         37 5.0
      radial_multiplier   1
      angular_grids specified
        division   0.4014  110
        division   0.5291  194
        division   0.6019  302
  #      division   0.6814  434
  #      division   0.7989  590
  #      division   0.8965  770
  #      division   1.3427  974
  #      outer_grid   974
        outer_grid   302
  ################################################################################
  #
  #  Definition of "minimal" basis
  #
  ################################################################################
  #     valence basis states
      valence      2  s   2.
      valence      2  p   5.
  #     ion occupancy
      ion_occ      2  s   1.
      ion_occ      2  p   4.
  ################################################################################
  #
  #  Suggested additional basis functions. For production calculations,
  #  uncomment them one after another (the most important basis functions are
  #  listed first).
  #
  #  Constructed for dimers: 1.2 A, 1.418 A, 1.75 A, 2.25 A, 3.25 A
  #
  ################################################################################
  #  "First tier" - improvements: -149.44 meV to -45.88 meV
       hydro 2 p 1.7
       hydro 3 d 7.4
       hydro 3 s 6.8
  #  "Second tier" - improvements: -12.96 meV to -1.56 meV
  #     hydro 4 f 11.2
  #     ionic 2 p auto
  #     hydro 1 s 0.75
  #     hydro 4 d 8.8
  #     hydro 5 g 16.8
  #  "Third tier" - improvements: -0.58 meV to -0.05 meV
  #     hydro 3 p 6.2
  #     hydro 3 s 3.2
  #     hydro 4 f 9.6
  #     hydro 3 s 19.6
  #     hydro 4 d 8.6
  #     hydro 5 g 14.4
  # Further basis functions: -0.05 meV and below
  #     hydro 3 p 4.2
  
  -----------------------------------------------------------------------
  Completed first pass over input file control.in .
  -----------------------------------------------------------------------
  
  
  -----------------------------------------------------------------------
  Parsing geometry.in (first pass over file, find array dimensions only).
  The contents of geometry.in will be repeated verbatim below
  unless switched off by setting 'verbatim_writeout .false.' .
  in the first line of geometry.in .
  -----------------------------------------------------------------------
  
  atom -0.065852613 1.637779172 2.150790220 Al
  atom 2.501496296 2.713992025 1.716416175 Al
  atom 1.315473084 2.715463984 -0.633433854 Al
  atom 1.005805378 3.082966736 2.833010063 F
  atom -1.606124483 2.702483122 2.177342386 F
  atom -0.490558671 -0.029177266 2.753592030 F
  atom 1.784567153 0.774012593 1.943490465 F
  atom 3.013138145 1.825941253 -0.059018816 F
  atom 1.091680009 3.027433933 -2.379687812 F
  atom 1.758768894 3.949570187 0.631380267 F
  atom 4.146518968 3.132064177 2.476102580 F
  atom 0.002208009 1.803053610 0.206597893 F
  
  -----------------------------------------------------------------------
  Completed first pass over input file geometry.in .
  -----------------------------------------------------------------------
  

  Basic array size parameters:
  | Number of species                 :        2
  | Number of atoms                   :       12
  | Max. basis fn. angular momentum   :        2
  | Max. atomic/ionic basis occupied n:        3
  | Max. number of basis fn. types    :        3
  | Max. radial fns per species/type  :        5
  | Max. logarithmic grid size        :     1340
  | Max. radial integration grid size :       41
  | Max. angular integration grid size:      302
  | Max. angular grid division number :        8
  | Radial grid for Hartree potential :     1340
  | Number of spin channels           :        1

------------------------------------------------------------
          Reading file control.in.
------------------------------------------------------------
  XC: Using PBEsol gradient-corrected functionals.
  Spin treatment: No spin polarisation.
  Scalar relativistic treatment of kinetic energy: on-site free-atom approximation to ZORA.
  Charge =   0.000000E+00: Neutral system requested explicitly.
  Occupation type: Gaussian broadening, width =   0.100000E-01 eV.
  Using pulay charge density mixing.
  Pulay mixing - number of memorized iterations:   10
  Charge density mixing - mixing parameter:     0.5000
  Convergence accuracy of self-consistent charge density:  0.1000E-04
  Convergence accuracy of sum of eigenvalues:  0.1000E-02
  Convergence accuracy of total energy:  0.1000E-05
  Convergence accuracy of forces:  0.1000E-03
  Maximum number of s.-c. iterations  :  1500
 
  Reading configuration options for species Al                  .
  | Found nuclear charge :  13.0000
  | Found atomic mass :    26.9815386000000      amu
  | Found l_max for Hartree potential  :   4
  | Found cutoff potl. onset [A], width [A], scale factor :    3.50000    1.50000    1.00000
  | Threshold for basis-dependent cutoff potential is   0.100000E-03
  | Found data for basic radial integration grid :    41 points, outermost radius =    5.000 A
  | Found multiplier for basic radial grid :   1
  | Found angular grid specification: user-specified.
  | Specified grid contains     4 separate shells.
  | Check grid settings after all constraints further below.
  | Found free-atom valence shell :  3 s   2.000
  | Found free-atom valence shell :  3 p   1.000
  | Found free-ion valence shell :  3 s   1.000
  | Found free-ion valence shell :  2 p   6.000
  | Found ionic basis function :  3 d , default cutoff radius.
  | Found ionic basis function :  3 p , default cutoff radius.
  | Found ionic basis function :  3 s , default cutoff radius.
  Species Al                  : Missing cutoff potential type.
  Defaulting to exp(1/x)/(1-x)^2 type cutoff potential.
  Species Al: No 'logarithmic' tag. Using default grid for free atom:
  | Default logarithmic grid data [bohr] : 0.1000E-03 0.1000E+03 0.1012E+01
  | Will include ionic basis functions of  2.0-fold positive Al                   ion.
  Species Al: On-site basis accuracy parameter (for Gram-Schmidt orthonormalisation) not specified.
  Using default value basis_acc =  0.1000000E-03.
  Species Al                  : Using default innermost maximum threshold i_radial=  2 for radial functions.
  Species Al                  : Default cutoff onset for free atom density etc. : 0.35000000E+01 AA.
  Species Al                  : Basic radial grid will be enhanced according to radial_multiplier =   1, to contain    41 grid points.
 
  Reading configuration options for species F                   .
  | Found nuclear charge :   9.0000
  | Found atomic mass :    18.9984032000000      amu
  | Found l_max for Hartree potential  :   4
  | Found cutoff potl. onset [A], width [A], scale factor :    3.50000    1.50000    1.00000
  | Threshold for basis-dependent cutoff potential is   0.100000E-03
  | Found data for basic radial integration grid :    37 points, outermost radius =    5.000 A
  | Found multiplier for basic radial grid :   1
  | Found angular grid specification: user-specified.
  | Specified grid contains     4 separate shells.
  | Check grid settings after all constraints further below.
  | Found free-atom valence shell :  2 s   2.000
  | Found free-atom valence shell :  2 p   5.000
  | Found free-ion valence shell :  2 s   1.000
  | Found free-ion valence shell :  2 p   4.000
  | Found hydrogenic basis function :  2 p   1.700
  | Found hydrogenic basis function :  3 d   7.400
  | Found hydrogenic basis function :  3 s   6.800
  Species F                   : Missing cutoff potential type.
  Defaulting to exp(1/x)/(1-x)^2 type cutoff potential.
  Species F : No 'logarithmic' tag. Using default grid for free atom:
  | Default logarithmic grid data [bohr] : 0.1000E-03 0.1000E+03 0.1012E+01
  Species F : On-site basis accuracy parameter (for Gram-Schmidt orthonormalisation) not specified.
  Using default value basis_acc =  0.1000000E-03.
  Species F                   : Using default innermost maximum threshold i_radial=  2 for radial functions.
  Species F                   : Default cutoff onset for free atom density etc. : 0.35000000E+01 AA.
  Species F                   : Basic radial grid will be enhanced according to radial_multiplier =   1, to contain    37 grid points.
 
  Finished reading input file 'control.in'.
 
------------------------------------------------------------


------------------------------------------------------------
          Reading geometry description geometry.in.
------------------------------------------------------------
  | The smallest distance between any two atoms is         1.78796294 AA.
  | The first atom of this pair is atom number                      3 .
  | The second atom of this pair is atom number                     9 .
  Input structure read successfully.
  The structure contains       12 atoms,  and a total of        120.000 electrons.

  Input geometry:
  | No unit cell requested.
  | Atomic structure:
  |       Atom                x [A]            y [A]            z [A]
  |    1: Species Al           -0.06585261        1.63777917        2.15079022
  |    2: Species Al            2.50149630        2.71399203        1.71641617
  |    3: Species Al            1.31547308        2.71546398       -0.63343385
  |    4: Species F             1.00580538        3.08296674        2.83301006
  |    5: Species F            -1.60612448        2.70248312        2.17734239
  |    6: Species F            -0.49055867       -0.02917727        2.75359203
  |    7: Species F             1.78456715        0.77401259        1.94349047
  |    8: Species F             3.01313815        1.82594125       -0.05901882
  |    9: Species F             1.09168001        3.02743393       -2.37968781
  |   10: Species F             1.75876889        3.94957019        0.63138027
  |   11: Species F             4.14651897        3.13206418        2.47610258
  |   12: Species F             0.00220801        1.80305361        0.20659789

 
  Finished reading input file 'control.in'.
 

------------------------------------------------------------
          Reading geometry description geometry.in.
------------------------------------------------------------
 
  Consistency checks for stacksize environment parameter are next.
 
  | Maximum stacksize for task 0: unlimited
  | Maximum stacksize for task 1: unlimited
  | Maximum stacksize for task 2: unlimited
  | Maximum stacksize for task 3: unlimited
  | Maximum stacksize for task 4: unlimited
  | Maximum stacksize for task 5: unlimited
  | Maximum stacksize for task 6: unlimited
  | Maximum stacksize for task 7: unlimited
  | Maximum stacksize for task 8: unlimited
  | Maximum stacksize for task 9: unlimited
  | Maximum stacksize for task 10: unlimited
  | Maximum stacksize for task 11: unlimited
  | Maximum stacksize for task 12: unlimited
  | Maximum stacksize for task 13: unlimited
  | Maximum stacksize for task 14: unlimited
  | Maximum stacksize for task 15: unlimited
  | Maximum stacksize for task 16: unlimited
  | Maximum stacksize for task 17: unlimited
  | Maximum stacksize for task 18: unlimited
  | Maximum stacksize for task 19: unlimited
  | Maximum stacksize for task 20: unlimited
  | Maximum stacksize for task 21: unlimited
  | Maximum stacksize for task 22: unlimited
  | Maximum stacksize for task 23: unlimited
  | Current stacksize for task 0: unlimited
  | Current stacksize for task 1: unlimited
  | Current stacksize for task 2: unlimited
  | Current stacksize for task 3: unlimited
  | Current stacksize for task 4: unlimited
  | Current stacksize for task 5: unlimited
  | Current stacksize for task 6: unlimited
  | Current stacksize for task 7: unlimited
  | Current stacksize for task 8: unlimited
  | Current stacksize for task 9: unlimited
  | Current stacksize for task 10: unlimited
  | Current stacksize for task 11: unlimited
  | Current stacksize for task 12: unlimited
  | Current stacksize for task 13: unlimited
  | Current stacksize for task 14: unlimited
  | Current stacksize for task 15: unlimited
  | Current stacksize for task 16: unlimited
  | Current stacksize for task 17: unlimited
  | Current stacksize for task 18: unlimited
  | Current stacksize for task 19: unlimited
  | Current stacksize for task 20: unlimited
  | Current stacksize for task 21: unlimited
  | Current stacksize for task 22: unlimited
  | Current stacksize for task 23: unlimited
 
  Consistency checks for the contents of control.in are next.
 
  MPI_IN_PLACE appears to work with this MPI implementation.
  | Keeping use_mpi_in_place .true. (see manual).
  Target number of points in a grid batch is not set. Defaulting to  100
  Method for grid partitioning is not set. Defaulting to parallel hash+maxmin partitioning.
  Batch size limit is not set. Defaulting to    200
  By default, will store active basis functions for each batch.
  If in need of memory, prune_basis_once .false. can be used to disable this option.
  communication_type for Hartree potential was not specified.
  Defaulting to calc_hartree .
  Pulay mixer: Number of initial linear mixing iterations not set.
  Defaulting to    0 iterations.
  Work space size for distributed Hartree potential not set.
  Defaulting to   0.200000E+03 MB.
  Algorithm-dependent basis array size parameters:
  | n_max_pulay                         :       10
  Presetting      1001 iterations before the initial mixing cycle
  is restarted anyway using the sc_init_iter criterion / keyword.
  Presetting a factor      1.000 between actual scf density residual
  and density convergence criterion sc_accuracy_rho below which sc_init_iter
  takes no effect.
  Geometry relaxation not requested: no relaxation will be performed.
  Forces evaluation will include force correction term due to incomplete self-consistency (default).
  Handling of forces: Unphysical translation and rotation will be removed from forces.
  No accuracy limit for integral partition fn. given. Defaulting to  0.1000E-14.
  No threshold value for u(r) in integrations given. Defaulting to  0.1000E-05.
  No accuracy for occupation numbers given. Defaulting to  0.1000E-12.
  No threshold value for occupation numbers given. Defaulting to  0.0000E+00.
  No accuracy for fermi level given. Defaulting to  0.1000E-19.
  Maximum # of iterations to find E_F not set. Defaulting to  200.
  Preferred method for the eigenvalue solver ('KS_method') not specified in 'control.in'.
  Calling BLACS routine to test compilation state
  Since ScaLAPACK support is enabled, defaulting to ELPA (via ELSI).
  Will not use alltoall communication since running on < 1024 CPUs.
  Threshold for basis singularities not set.
  Default threshold for basis singularities:  0.1000E-04
  partition_type (choice of integration weights) for integrals was not specified.
  | Using a version of the partition function of Stratmann and coworkers ('stratmann_sparse').
  | At each grid point, the set of atoms used to build the partition table is smoothly restricted to
  | only those atoms whose free-atom density would be non-zero at that grid point.
  Partitioning for Hartree potential was not defined. Using partition_type for integrals.
  | Adjusted default value of keyword multip_moments_threshold to:       0.10000000E-11
  | This value may affect high angular momentum components of the Hartree potential in periodic systems.
  No q(lm)/r^(l+1) cutoff set for long-range Hartree potential.
  | Using default value of  0.100000E-09 .
  | Verify using the multipole_threshold keyword.
  Defaulting to new monopole extrapolation.
  Density update method: automatic selection selected.
  Charge integration errors on the 3D integration grid will be compensated
  by explicit normalization and distribution of residual charges.
  Use the "compensate_multipole_errors" flag to change this behaviour.
  Set 'collect_eigenvectors' to be '.true.' for use_density_matrix .false.
 
  Consistency checks for the contents of geometry.in are next.
 
  Number of empty states per atom not set in control.in - providing a guess from actual geometry.
  | Total number of empty states used during s.c.f. cycle:       36
  If you use a very high smearing, use empty_states (per atom!) in control.in to increase this value.

  Structure-dependent array size parameters: 
  | Maximum number of distinct radial functions  :       14
  | Maximum number of basis functions            :      180
  | Number of Kohn-Sham states (occupied + empty):       96
------------------------------------------------------------

------------------------------------------------------------
          Preparing all fixed parts of the calculation.
------------------------------------------------------------
  Determining machine precision:
    2.225073858507201E-308
  Setting up grids for atomic and cluster calculations.

  Creating wave function, potential, and density for free atoms.

  Species: Al

  List of occupied orbitals and eigenvalues:
    n    l              occ      energy [Ha]    energy [eV]
    1    0           2.0000       -55.621123     -1513.5278
    2    0           2.0000        -3.957030      -107.6763
    3    0           2.0000        -0.272233        -7.4078
    2    1           6.0000        -2.540949       -69.1427
    3    1           1.0000        -0.083300        -2.2667


  Species: F

  List of occupied orbitals and eigenvalues:
    n    l              occ      energy [Ha]    energy [eV]
    1    0           2.0000       -24.399611      -663.9472
    2    0           2.0000        -1.098702       -29.8972
    2    1           5.0000        -0.408210       -11.1080


  Adding cutoff potential to free-atom effective potential.
  Creating fixed part of basis set: Ionic, confined, hydrogenic.
 
  Al                   ion:

  List of free ionic orbitals and eigenvalues:
    n    l      energy [Ha]    energy [eV]
    1    0       -56.418846     -1535.2349
    2    0        -4.732717      -128.7838
    3    0        -0.872690       -23.7471
    2    1        -3.317230       -90.2664


  List of ionic basis orbitals and eigenvalues:
    n    l      energy [Ha]    energy [eV]    outer radius [A]
    3    2        -0.346815        -9.4373       4.594041
    3    1        -0.631870       -17.1940       4.538221
    3    0        -0.872657       -23.7462       4.538221

 
  F                    hydrogenic:
 
  List of hydrogenic basis orbitals: 
    n    l      effective z      eigenvalue [eV]  inner max. [A]     outer max. [A]     outer radius [A]   
    2    1         1.700000        -9.7616           1.243167           1.243167           4.598524
    3    2         7.400000       -82.7828           0.642437           0.642437           3.305741
    3    0         6.800000       -69.9026           0.057798           1.022307           3.781556
 
  Creating atomic-like basis functions for current effective potential.

  Species Al                  :

  List of atomic basis orbitals and eigenvalues:
    n    l      energy [Ha]    energy [eV]    outer radius [A]
    1    0       -55.621123     -1513.5278       0.850197
    2    0        -3.957030      -107.6763       3.144911
    3    0        -0.272233        -7.4078       4.594041
    2    1        -2.540949       -69.1427       3.731966
    3    1        -0.083300        -2.2667       4.594041


  Species F                   :

  List of atomic basis orbitals and eigenvalues:
    n    l      energy [Ha]    energy [eV]    outer radius [A]
    1    0       -24.399611      -663.9472       1.258458
    2    0        -1.098702       -29.8972       4.325857
    2    1        -0.408210       -11.1080       4.487453

  Assembling full basis from fixed parts.
  | Species Al :   atomic orbital   1 s accepted.
  | Species Al :   atomic orbital   2 s accepted.
  | Species Al :    ionic orbital   3 s accepted.
  | Species Al :   atomic orbital   3 s accepted.
  | Species Al :   atomic orbital   2 p accepted.
  | Species Al :    ionic orbital   3 p accepted.
  | Species Al :   atomic orbital   3 p accepted.
  | Species Al :    ionic orbital   3 d accepted.
  | Species F :   atomic orbital   1 s accepted.
  | Species F :    hydro orbital   3 s accepted.
  | Species F :   atomic orbital   2 s accepted.
  | Species F :   atomic orbital   2 p accepted.
  | Species F :    hydro orbital   2 p accepted.
  | Species F :    hydro orbital   3 d accepted.
 
  Basis size parameters after reduction:
  | Total number of radial functions:       14
  | Total number of basis functions :      180
 
  Per-task memory consumption for arrays in subroutine allocate_ext:
  |           4.807768MB.
  Testing on-site integration grid accuracy.
  |  Species  Function  <phi|h_atom|phi> (log., in eV)  <phi|h_atom|phi> (rad., in eV)
           1        1              -1513.5277717935              -1513.5271881332
           1        2               -107.6762691836               -107.6762662489
           1        3                 -6.9467474784                 -6.9471269649
           1        4                  5.5771951849                  5.4862107220 ***
           1        5                -69.1427313144                -69.1427312731
           1        6                 -1.5197375330                 -1.5230432022
           1        7                  6.8210948310                  6.5529872240 ***
           1        8                  4.3216540965                  4.2851170187 ***
           2        9               -663.9471986398               -663.9470363334
           2       10                 16.8514011578                 16.8512525338
           2       11                -28.4490593856                -28.4490661472
           2       12                -11.1080115307                -11.1080620173
           2       13                  7.1940182175                  7.1685154137
           2       14                 44.8544281765                 44.8543763625
 * Note: Onsite integrals marked "***" above are less accurate than
 * onsite_accuracy_threshold =    0.03000 eV. Usually, this is harmless.
 * When in doubt, tighten the "radial" and/or "radial_multiplier" flags to check.

  Preparing densities etc. for the partition functions (integrals / Hartree potential).

  Preparations completed.
  max(cpu_time)          :      0.185 s.
  Wall clock time (cpu1) :      0.186 s.
------------------------------------------------------------

------------------------------------------------------------
          Begin self-consistency loop: Initialization.

          Date     :  20220517, Time     :  121239.215
------------------------------------------------------------

  Initializing index lists of integration centers etc. from given atomic structure:
  | Number of centers in hartree potential         :        12
  | Number of centers in hartree multipole         :        12
  | Number of centers in electron density summation:        12
  | Number of centers in basis integrals           :        12
  | Number of centers in integrals                 :        12
  | Number of centers in hamiltonian               :        12
  * Using 24 tasks for Scalapack Eigenvalue solver.
  Detailed listing of tasks and assigned k-points:
  (for non-periodic systems, the "k-point" denotes an internal label only)
   Task     0 k-point     1 on node-k98i-010
   Task     1 k-point     1 on node-k98i-010
   Task     2 k-point     1 on node-k98i-010
   Task     3 k-point     1 on node-k98i-010
   Task     4 k-point     1 on node-k98i-010
   Task     5 k-point     1 on node-k98i-010
   Task     6 k-point     1 on node-k98i-010
   Task     7 k-point     1 on node-k98i-010
   Task     8 k-point     1 on node-k98i-010
   Task     9 k-point     1 on node-k98i-010
   Task    10 k-point     1 on node-k98i-010
   Task    11 k-point     1 on node-k98i-010
   Task    12 k-point     1 on node-k98i-010
   Task    13 k-point     1 on node-k98i-010
   Task    14 k-point     1 on node-k98i-010
   Task    15 k-point     1 on node-k98i-010
   Task    16 k-point     1 on node-k98i-010
   Task    17 k-point     1 on node-k98i-010
   Task    18 k-point     1 on node-k98i-010
   Task    19 k-point     1 on node-k98i-010
   Task    20 k-point     1 on node-k98i-010
   Task    21 k-point     1 on node-k98i-010
   Task    22 k-point     1 on node-k98i-010
   Task    23 k-point     1 on node-k98i-010
  Tasks:    24 split into      6 X      4 BLACS grid
  Calculating block size based on n_basis =          180  max_nprow =            6  max_npcol =            4
  ScaLAPACK block size set to:           16
  Allocating        0.012 MB for ovlp
  Allocating        0.012 MB for ham
  Allocating        0.012 MB for eigenvec
  Required Scalapack workspace - INTEGER:            1  REAL:             1
  Partitioning the integration grid into batches with parallel hashing+maxmin method.
  | Number of batches:     1036
  | Maximal batch size:     196
  | Minimal batch size:      18
  | Average batch size:      88.726
  | Standard deviation of batch sizes:      24.886

  Integration load balanced across    24 MPI tasks.
  Work distribution over tasks is as follows:
  Task     0 has       3774 integration points.
  Task     1 has       3785 integration points.
  Task     2 has       3922 integration points.
  Task     3 has       3870 integration points.
  Task     4 has       3783 integration points.
  Task     5 has       3851 integration points.
  Task     6 has       3787 integration points.
  Task     7 has       3786 integration points.
  Task     8 has       3778 integration points.
  Task     9 has       3855 integration points.
  Task    10 has       3872 integration points.
  Task    11 has       3915 integration points.
  Task    12 has       3876 integration points.
  Task    13 has       3865 integration points.
  Task    14 has       3774 integration points.
  Task    15 has       3860 integration points.
  Task    16 has       3791 integration points.
  Task    17 has       3769 integration points.
  Task    18 has       3867 integration points.
  Task    19 has       3777 integration points.
  Task    20 has       3842 integration points.
  Task    21 has       3869 integration points.
  Task    22 has       3865 integration points.
  Task    23 has       3787 integration points.
  Initializing partition tables, free-atom densities, potentials, etc. across the integration grid (initialize_grid_storage).
  | initialize_grid_storage: Actual outermost partition radius vs. multipole_radius_free
  | (-- VB: in principle, multipole_radius_free should be larger, hence this output)
  | Species        1: Confinement radius =              4.999999999999999 AA, multipole_radius_free =              5.004487022111096 AA.
  | Species        1: outer_partition_radius set to              5.004487022111096 AA .
  | Species        2: Confinement radius =              4.999999999999999 AA, multipole_radius_free =              5.009370088163274 AA.
  | Species        2: outer_partition_radius set to              5.009370088163274 AA .
  | The sparse table of interatomic distances needs          1.64 kbyte instead of         1.15 kbyte of memory.
  | Using the partition_type stratmann_smoother will reduce your memory usage.
  | Net number of integration points:    91920
  | of which are non-zero points    :    85145
  Renormalizing the initial density to the exact electron count on the 3D integration grid.
  | Initial density: Formal number of electrons (from input files) :     120.0000000000
  | Integrated number of electrons on 3D grid     :     119.9998320978
  | Charge integration error                      :      -0.0001679022
  | Normalization factor for density and gradient :       1.0000013992
  Renormalizing the free-atom superposition density to the exact electron count on the 3D integration grid.
  | Formal number of electrons (from input files) :     120.0000000000
  | Integrated number of electrons on 3D grid     :     119.9998320978
  | Charge integration error                      :      -0.0001679022
  | Normalization factor for density and gradient :       1.0000013992
  Obtaining max. number of non-zero basis functions in each batch (get_n_compute_maxes).
  | Maximal number of non-zero basis functions:      166 in task     0
  | Maximal number of non-zero basis functions:      163 in task     1
  | Maximal number of non-zero basis functions:      173 in task     2
  | Maximal number of non-zero basis functions:      164 in task     3
  | Maximal number of non-zero basis functions:      166 in task     4
  | Maximal number of non-zero basis functions:      165 in task     5
  | Maximal number of non-zero basis functions:      163 in task     6
  | Maximal number of non-zero basis functions:      170 in task     7
  | Maximal number of non-zero basis functions:      160 in task     8
  | Maximal number of non-zero basis functions:      166 in task     9
  | Maximal number of non-zero basis functions:      166 in task    10
  | Maximal number of non-zero basis functions:      169 in task    11
  | Maximal number of non-zero basis functions:      163 in task    12
  | Maximal number of non-zero basis functions:      172 in task    13
  | Maximal number of non-zero basis functions:      170 in task    14
  | Maximal number of non-zero basis functions:      167 in task    15
  | Maximal number of non-zero basis functions:      171 in task    16
  | Maximal number of non-zero basis functions:      171 in task    17
  | Maximal number of non-zero basis functions:      165 in task    18
  | Maximal number of non-zero basis functions:      170 in task    19
  | Maximal number of non-zero basis functions:      171 in task    20
  | Maximal number of non-zero basis functions:      163 in task    21
  | Maximal number of non-zero basis functions:      171 in task    22
  | Maximal number of non-zero basis functions:      166 in task    23
  Selecting the method for density update.
  Loop over occupied states selected for charge density update.
  Allocating        0.132 MB for KS_eigenvector
  Integrating Hamiltonian matrix: batch-based integration.
  Time summed over all CPUs for integration: real work        0.756 s, elapsed        0.801 s
  Integrating overlap matrix.
  Time summed over all CPUs for integration: real work        0.287 s, elapsed        0.306 s
  Deallocating overlap matrix.

  Updating Kohn-Sham eigenvalues and eigenvectors using ELSI and the ELPA eigensolver.
  Overlap matrix is not singular
  | Lowest and highest eigenvalues :  0.2891E-02,  0.5724E+01
  Finished singularity check of overlap matrix
  | Time :     0.004 s
  Starting ELPA eigensolver
  Finished Cholesky decomposition
  | Time :     0.002 s
  Finished transformation to standard eigenproblem
  | Time :     0.001 s
  Finished solving standard eigenproblem
  | Time :     0.004 s
  Finished back-transformation of eigenvectors
  | Time :     0.000 s

  Obtaining occupation numbers and chemical potential using ELSI.
  | Chemical potential (Fermi level):    -7.25046486 eV
  Writing Kohn-Sham eigenvalues.

  State    Occupation    Eigenvalue [Ha]    Eigenvalue [eV]
      1       2.00000         -55.486291        -1509.85880
      2       2.00000         -55.485610        -1509.84027
      3       2.00000         -55.483758        -1509.78987
      4       2.00000         -24.380503         -663.42724
      5       2.00000         -24.368073         -663.08901
      6       2.00000         -24.359888         -662.86628
      7       2.00000         -24.343979         -662.43337
      8       2.00000         -24.343050         -662.40808
      9       2.00000         -24.339834         -662.32059
     10       2.00000         -24.338281         -662.27833
     11       2.00000         -24.335777         -662.21019
     12       2.00000         -24.334504         -662.17555
     13       2.00000          -3.951948         -107.53796
     14       2.00000          -3.951260         -107.51926
     15       2.00000          -3.948789         -107.45202
     16       2.00000          -2.545295          -69.26099
     17       2.00000          -2.544646          -69.24333
     18       2.00000          -2.543606          -69.21503
     19       2.00000          -2.542945          -69.19705
     20       2.00000          -2.542839          -69.19417
     21       2.00000          -2.541573          -69.15972
     22       2.00000          -2.541377          -69.15440
     23       2.00000          -2.540745          -69.13719
     24       2.00000          -2.539752          -69.11018
     25       2.00000          -1.212386          -32.99072
     26       2.00000          -1.190409          -32.39267
     27       2.00000          -1.180409          -32.12056
     28       2.00000          -1.158014          -31.51117
     29       2.00000          -1.153772          -31.39572
     30       2.00000          -1.151283          -31.32799
     31       2.00000          -1.143404          -31.11360
     32       2.00000          -1.142107          -31.07832
     33       2.00000          -1.139658          -31.01166
     34       2.00000          -0.567308          -15.43724
     35       2.00000          -0.565454          -15.38679
     36       2.00000          -0.555560          -15.11756
     37       2.00000          -0.529232          -14.40114
     38       2.00000          -0.521205          -14.18271
     39       2.00000          -0.514264          -13.99385
     40       2.00000          -0.509316          -13.85920
     41       2.00000          -0.502588          -13.67610
     42       2.00000          -0.497521          -13.53823
     43       2.00000          -0.493969          -13.44157
     44       2.00000          -0.488518          -13.29325
     45       2.00000          -0.483164          -13.14756
     46       2.00000          -0.478459          -13.01953
     47       2.00000          -0.473261          -12.87810
     48       2.00000          -0.471401          -12.82746
     49       2.00000          -0.465429          -12.66496
     50       2.00000          -0.459432          -12.50178
     51       2.00000          -0.457633          -12.45284
     52       2.00000          -0.455793          -12.40275
     53       2.00000          -0.454466          -12.36666
     54       2.00000          -0.452419          -12.31094
     55       2.00000          -0.448331          -12.19970
     56       2.00000          -0.445317          -12.11770
     57       2.00000          -0.444074          -12.08388
     58       2.00000          -0.441019          -12.00073
     59       2.00000          -0.439097          -11.94844
     60       2.00000          -0.432267          -11.76258
     61       0.00000          -0.145877           -3.96950
     62       0.00000          -0.088971           -2.42102
     63       0.00000          -0.073680           -2.00495
     64       0.00000          -0.037273           -1.01424
     65       0.00000          -0.021951           -0.59731
     66       0.00000           0.001469            0.03998
     67       0.00000           0.019272            0.52443
     68       0.00000           0.028047            0.76319
     69       0.00000           0.050699            1.37958
     70       0.00000           0.074185            2.01868
     71       0.00000           0.076777            2.08921
     72       0.00000           0.115381            3.13967
     73       0.00000           0.149978            4.08110
     74       0.00000           0.161809            4.40305
     75       0.00000           0.167649            4.56197
     76       0.00000           0.179941            4.89643
     77       0.00000           0.191954            5.22333
     78       0.00000           0.197743            5.38086
     79       0.00000           0.211139            5.74539
     80       0.00000           0.214238            5.82972
     81       0.00000           0.221514            6.02771
     82       0.00000           0.228537            6.21882
     83       0.00000           0.237100            6.45182
     84       0.00000           0.243814            6.63451
     85       0.00000           0.260242            7.08154
     86       0.00000           0.267094            7.26799
     87       0.00000           0.272222            7.40753
     88       0.00000           0.275293            7.49111
     89       0.00000           0.279919            7.61697
     90       0.00000           0.292460            7.95823
     91       0.00000           0.299827            8.15872
     92       0.00000           0.338232            9.20376
     93       0.00000           0.342522            9.32050
     94       0.00000           0.359405            9.77991
     95       0.00000           0.370883           10.09224
     96       0.00000           0.388331           10.56703

  Highest occupied state (VBM) at    -11.76258342 eV
  | Occupation number:      2.00000000

  Lowest unoccupied state (CBM) at    -3.96950342 eV
  | Occupation number:      0.00000000

  Overall HOMO-LUMO gap:      7.79308001 eV.
  Calculating total energy contributions from superposition of free atom densities.

  Total energy components:
  | Sum of eigenvalues            :        -887.70452246 Ha      -24155.66908317 eV
  | XC energy correction          :        -144.39510516 Ha       -3929.19072646 eV
  | XC potential correction       :         188.01400274 Ha        5116.12131983 eV
  | Free-atom electrostatic energy:        -781.25259049 Ha      -21258.96463136 eV
  | Hartree energy correction     :           0.00000000 Ha           0.00000000 eV
  | Entropy correction            :           0.00000000 Ha           0.00000000 eV
  | ---------------------------
  | Total energy                  :       -1625.33821538 Ha      -44227.70312116 eV
  | Total energy, T -> 0          :       -1625.33821538 Ha      -44227.70312116 eV  <-- do not rely on this value for anything but (periodic) metals
  | Electronic free energy        :       -1625.33821538 Ha      -44227.70312116 eV

  Derived energy quantities:
  | Kinetic energy                :        1627.75833738 Ha       44293.55799152 eV
  | Electrostatic energy          :       -3108.70144760 Ha      -84592.07038622 eV
  | Energy correction for multipole
  | error in Hartree potential    :           0.00000000 Ha           0.00000000 eV
  | Sum of eigenvalues per atom                           :       -2012.97242360 eV
  | Total energy (T->0) per atom                          :       -3685.64192676 eV  <-- do not rely on this value for anything but (periodic) metals
  | Electronic free energy per atom                       :       -3685.64192676 eV
  Initialize hartree_potential_storage
  Max. number of atoms included in rho_multipole:           12

  End scf initialization - timings             :  max(cpu_time)    wall_clock(cpu1)
  | Time for scf. initialization                :        0.136 s           0.136 s
  | Boundary condition initialization           :        0.000 s           0.000 s
  | Integration                                 :        0.048 s           0.047 s
  | Solution of K.-S. eqns.                     :        0.012 s           0.012 s
  | Grid partitioning                           :        0.047 s           0.047 s
  | Preloading free-atom quantities on grid     :        0.017 s           0.017 s
  | Free-atom superposition energy              :        0.005 s           0.005 s
  | Total energy evaluation                     :        0.000 s           0.000 s

  Partial memory accounting:
  | Current value for overall tracked memory usage:
  |   Minimum:        0.273 MB (on task 23)
  |   Maximum:        0.292 MB (on task  0)
  |   Average:        0.287 MB
  | Peak value for overall tracked memory usage:
  |   Minimum:        1.333 MB (on task  8 after allocating wave)
  |   Maximum:        1.424 MB (on task  2 after allocating wave)
  |   Average:        1.379 MB
  | Largest tracked array allocation so far:
  |   Minimum:        0.239 MB (H_times_psi on task  8)
  |   Maximum:        0.554 MB (all_coords on task 14)
  |   Average:        0.273 MB
  Note:  These values currently only include a subset of arrays which are explicitly tracked.
  The "true" memory usage will be greater.
------------------------------------------------------------
  Evaluating new KS density.
  Integration grid: deviation in total charge (<rho> - N_e) =   4.263256E-14

  Time for density update prior                :  max(cpu_time)    wall_clock(cpu1)
  | self-consistency iterative process          :        0.029 s           0.029 s

------------------------------------------------------------
          Begin self-consistency iteration #    1

  Date     :  20220517, Time     :  121239.381
------------------------------------------------------------
  Pulay mixing of updated and previous charge densities.
  Renormalizing the density to the exact electron count on the 3D integration grid.
  | Formal number of electrons (from input files) :     120.0000000000
  | Integrated number of electrons on 3D grid     :     120.0000000000
  | Charge integration error                      :       0.0000000000
  | Normalization factor for density and gradient :       1.0000000000

  Evaluating partitioned Hartree potential by multipole expansion.
  | Original multipole sum: apparent total charge =   0.136271E-13
  | Sum of charges compensated after spline to logarithmic grids =   0.825783E-04
  | Analytical far-field extrapolation by fixed multipoles:
  | Hartree multipole sum: apparent total charge =   0.134857E-13
  Summing up the Hartree potential.
  Time summed over all CPUs for potential: real work        0.383 s, elapsed        0.403 s
  | RMS charge density error from multipole expansion :   0.109973E-01

  Integrating Hamiltonian matrix: batch-based integration.
  Time summed over all CPUs for integration: real work        0.705 s, elapsed        0.740 s

  Updating Kohn-Sham eigenvalues and eigenvectors using ELSI and the ELPA eigensolver.
  Starting ELPA eigensolver
  Finished transformation to standard eigenproblem
  | Time :     0.001 s
  Finished solving standard eigenproblem
  | Time :     0.003 s
  Finished back-transformation of eigenvectors
  | Time :     0.000 s

  Obtaining occupation numbers and chemical potential using ELSI.
  | Chemical potential (Fermi level):    -7.38812011 eV
  Writing Kohn-Sham eigenvalues.

  State    Occupation    Eigenvalue [Ha]    Eigenvalue [eV]
      1       2.00000         -55.685003        -1515.26602
      2       2.00000         -55.669488        -1514.84384
      3       2.00000         -55.622432        -1513.56337
      4       2.00000         -24.287229         -660.88912
      5       2.00000         -24.258051         -660.09516
      6       2.00000         -24.218716         -659.02479
      7       2.00000         -24.190105         -658.24624
      8       2.00000         -24.144057         -656.99321
      9       2.00000         -24.100908         -655.81908
     10       2.00000         -24.064293         -654.82273
     11       2.00000         -24.033279         -653.97878
     12       2.00000         -24.029411         -653.87354
     13       2.00000          -4.124230         -112.22602
     14       2.00000          -4.107502         -111.77083
     15       2.00000          -4.060715         -110.49767
     16       2.00000          -2.717341          -73.94261
     17       2.00000          -2.716817          -73.92834
     18       2.00000          -2.716592          -73.92224
     19       2.00000          -2.701317          -73.50656
     20       2.00000          -2.699986          -73.47035
     21       2.00000          -2.699265          -73.45074
     22       2.00000          -2.654631          -72.23619
     23       2.00000          -2.654002          -72.21906
     24       2.00000          -2.651398          -72.14822
     25       2.00000          -1.217119          -33.11950
     26       2.00000          -1.176160          -32.00493
     27       2.00000          -1.141302          -31.05641
     28       2.00000          -1.109572          -30.19300
     29       2.00000          -1.067063          -29.03626
     30       2.00000          -1.047109          -28.49330
     31       2.00000          -1.008163          -27.43352
     32       2.00000          -0.984382          -26.78640
     33       2.00000          -0.977572          -26.60110
     34       2.00000          -0.580145          -15.78656
     35       2.00000          -0.576863          -15.69725
     36       2.00000          -0.550494          -14.97970
     37       2.00000          -0.525598          -14.30225
     38       2.00000          -0.500336          -13.61484
     39       2.00000          -0.488461          -13.29170
     40       2.00000          -0.480717          -13.08096
     41       2.00000          -0.471769          -12.83749
     42       2.00000          -0.462382          -12.58204
     43       2.00000          -0.444312          -12.09034
     44       2.00000          -0.432811          -11.77739
     45       2.00000          -0.418657          -11.39224
     46       2.00000          -0.409237          -11.13591
     47       2.00000          -0.402315          -10.94754
     48       2.00000          -0.389218          -10.59117
     49       2.00000          -0.373619          -10.16668
     50       2.00000          -0.363952           -9.90363
     51       2.00000          -0.357979           -9.74109
     52       2.00000          -0.355788           -9.68148
     53       2.00000          -0.354558           -9.64803
     54       2.00000          -0.325610           -8.86031
     55       2.00000          -0.319958           -8.70651
     56       2.00000          -0.318188           -8.65833
     57       2.00000          -0.299460           -8.14873
     58       2.00000          -0.295666           -8.04549
     59       2.00000          -0.286943           -7.80812
     60       2.00000          -0.277347           -7.54700
     61       0.00000          -0.168823           -4.59390
     62       0.00000          -0.108747           -2.95915
     63       0.00000          -0.073262           -1.99357
     64       0.00000          -0.067859           -1.84653
     65       0.00000          -0.055079           -1.49879
     66       0.00000          -0.023071           -0.62779
     67       0.00000           0.010466            0.28480
     68       0.00000           0.024064            0.65481
     69       0.00000           0.031547            0.85843
     70       0.00000           0.058299            1.58640
     71       0.00000           0.084612            2.30241
     72       0.00000           0.096309            2.62069
     73       0.00000           0.137153            3.73212
     74       0.00000           0.151321            4.11766
     75       0.00000           0.158184            4.30441
     76       0.00000           0.161389            4.39162
     77       0.00000           0.177728            4.83623
     78       0.00000           0.191841            5.22026
     79       0.00000           0.194462            5.29158
     80       0.00000           0.208653            5.67775
     81       0.00000           0.217875            5.92867
     82       0.00000           0.219382            5.96967
     83       0.00000           0.226303            6.15802
     84       0.00000           0.235580            6.41045
     85       0.00000           0.243146            6.61635
     86       0.00000           0.249112            6.77868
     87       0.00000           0.259603            7.06417
     88       0.00000           0.269337            7.32903
     89       0.00000           0.280004            7.61930
     90       0.00000           0.285514            7.76923
     91       0.00000           0.293203            7.97846
     92       0.00000           0.336699            9.16206
     93       0.00000           0.351926            9.57639
     94       0.00000           0.365026            9.93286
     95       0.00000           0.379856           10.33640
     96       0.00000           0.385569           10.49186

  Highest occupied state (VBM) at     -7.54699942 eV
  | Occupation number:      2.00000000

  Lowest unoccupied state (CBM) at    -4.59389552 eV
  | Occupation number:      0.00000000

  Overall HOMO-LUMO gap:      2.95310391 eV.

  Total energy components:
  | Sum of eigenvalues            :        -883.19518646 Ha      -24032.96380730 eV
  | XC energy correction          :        -145.68345748 Ha       -3964.24857674 eV
  | XC potential correction       :         189.70736328 Ha        5162.20000461 eV
  | Free-atom electrostatic energy:        -781.25259049 Ha      -21258.96463136 eV
  | Hartree energy correction     :          -4.69218691 Ha        -127.68090208 eV
  | Entropy correction            :          -0.00000000 Ha          -0.00000000 eV
  | ---------------------------
  | Total energy                  :       -1625.11605805 Ha      -44221.65791286 eV
  | Total energy, T -> 0          :       -1625.11605805 Ha      -44221.65791286 eV  <-- do not rely on this value for anything but (periodic) metals
  | Electronic free energy        :       -1625.11605805 Ha      -44221.65791286 eV

  Derived energy quantities:
  | Kinetic energy                :        1633.89514735 Ha       44460.54908728 eV
  | Electrostatic energy          :       -3113.32774793 Ha      -84717.95842340 eV
  | Energy correction for multipole
  | error in Hartree potential    :           0.03338234 Ha           0.90837973 eV
  | Sum of eigenvalues per atom                           :       -2002.74698394 eV
  | Total energy (T->0) per atom                          :       -3685.13815940 eV  <-- do not rely on this value for anything but (periodic) metals
  | Electronic free energy per atom                       :       -3685.13815940 eV
  Evaluating new KS density.
  Integration grid: deviation in total charge (<rho> - N_e) =  -1.421085E-14

  Self-consistency convergence accuracy:
  | Change of charge density      :  0.5928E+00
  | Change of sum of eigenvalues  :  0.1227E+03 eV
  | Change of total energy        :  0.6045E+01 eV


------------------------------------------------------------
  End self-consistency iteration #     1       :  max(cpu_time)    wall_clock(cpu1)
  | Time for this iteration                     :        0.084 s           0.084 s
  | Charge density update                       :        0.028 s           0.028 s
  | Density mixing                              :        0.001 s           0.000 s
  | Hartree multipole update                    :        0.002 s           0.002 s
  | Hartree multipole summation                 :        0.017 s           0.017 s
  | Integration                                 :        0.031 s           0.031 s
  | Solution of K.-S. eqns.                     :        0.005 s           0.005 s
  | Total energy evaluation                     :        0.000 s           0.000 s

  Partial memory accounting:
  | Current value for overall tracked memory usage:
  |   Minimum:        0.273 MB (on task 23)
  |   Maximum:        0.292 MB (on task  0)
  |   Average:        0.287 MB
  | Peak value for overall tracked memory usage:
  |   Minimum:        1.333 MB (on task  8 after allocating wave)
  |   Maximum:        1.424 MB (on task  2 after allocating wave)
  |   Average:        1.379 MB
  | Largest tracked array allocation so far:
  |   Minimum:        0.718 MB (gradient_basis_wave on task  8)
  |   Maximum:        0.776 MB (gradient_basis_wave on task  2)
  |   Average:        0.750 MB
  Note:  These values currently only include a subset of arrays which are explicitly tracked.
  The "true" memory usage will be greater.
------------------------------------------------------------

------------------------------------------------------------
          Begin self-consistency iteration #    2

  Date     :  20220517, Time     :  121239.470
------------------------------------------------------------
  Pulay mixing of updated and previous charge densities.
  Renormalizing the density to the exact electron count on the 3D integration grid.
  | Formal number of electrons (from input files) :     120.0000000000
  | Integrated number of electrons on 3D grid     :     120.0000000000
  | Charge integration error                      :       0.0000000000
  | Normalization factor for density and gradient :       1.0000000000

  Evaluating partitioned Hartree potential by multipole expansion.
  | Original multipole sum: apparent total charge =   0.708661E-13
  | Sum of charges compensated after spline to logarithmic grids =   0.412962E-04
  | Analytical far-field extrapolation by fixed multipoles:
  | Hartree multipole sum: apparent total charge =   0.707677E-13
  Summing up the Hartree potential.
  Time summed over all CPUs for potential: real work        0.382 s, elapsed        0.401 s
  | RMS charge density error from multipole expansion :   0.126255E-01

  Integrating Hamiltonian matrix: batch-based integration.
  Time summed over all CPUs for integration: real work        0.706 s, elapsed        0.761 s

  Updating Kohn-Sham eigenvalues and eigenvectors using ELSI and the ELPA eigensolver.
  Starting ELPA eigensolver
  Finished transformation to standard eigenproblem
  | Time :     0.003 s
  Finished solving standard eigenproblem
  | Time :     0.017 s
  Finished back-transformation of eigenvectors
  | Time :     0.001 s

  Obtaining occupation numbers and chemical potential using ELSI.
  | Chemical potential (Fermi level):    -7.59418115 eV
  Highest occupied state (VBM) at     -8.60306112 eV
  | Occupation number:      2.00000000

  Lowest unoccupied state (CBM) at    -4.81795471 eV
  | Occupation number:      0.00000000

  Overall HOMO-LUMO gap:      3.78510640 eV.

  Checking to see if s.c.f. parameters should be adjusted.

  Total energy components:
  | Sum of eigenvalues            :        -886.06363913 Ha      -24111.01837586 eV
  | XC energy correction          :        -145.20490988 Ha       -3951.22663390 eV
  | XC potential correction       :         189.07780886 Ha        5145.06895722 eV
  | Free-atom electrostatic energy:        -781.25259049 Ha      -21258.96463136 eV
  | Hartree energy correction     :          -1.60940917 Ha         -43.79425170 eV
  | Entropy correction            :           0.00000000 Ha           0.00000000 eV
  | ---------------------------
  | Total energy                  :       -1625.05273980 Ha      -44219.93493560 eV
  | Total energy, T -> 0          :       -1625.05273980 Ha      -44219.93493560 eV  <-- do not rely on this value for anything but (periodic) metals
  | Electronic free energy        :       -1625.05273980 Ha      -44219.93493560 eV

  Derived energy quantities:
  | Kinetic energy                :        1630.11581195 Ha       44357.70813863 eV
  | Electrostatic energy          :       -3109.96364188 Ha      -84626.41644032 eV
  | Energy correction for multipole
  | error in Hartree potential    :           0.03706997 Ha           1.00872519 eV
  | Sum of eigenvalues per atom                           :       -2009.25153132 eV
  | Total energy (T->0) per atom                          :       -3684.99457797 eV  <-- do not rely on this value for anything but (periodic) metals
  | Electronic free energy per atom                       :       -3684.99457797 eV
  Evaluating new KS density.
  Integration grid: deviation in total charge (<rho> - N_e) =  -2.842171E-14

  Self-consistency convergence accuracy:
  | Change of charge density      :  0.4709E+00
  | Change of sum of eigenvalues  : -0.7805E+02 eV
  | Change of total energy        :  0.1723E+01 eV


------------------------------------------------------------
  End self-consistency iteration #     2       :  max(cpu_time)    wall_clock(cpu1)
  | Time for this iteration                     :        0.110 s           0.108 s
  | Charge density update                       :        0.029 s           0.029 s
  | Density mixing                              :        0.006 s           0.003 s
  | Hartree multipole update                    :        0.001 s           0.002 s
  | Hartree multipole summation                 :        0.018 s           0.017 s
  | Integration                                 :        0.033 s           0.034 s
  | Solution of K.-S. eqns.                     :        0.023 s           0.023 s
  | Total energy evaluation                     :        0.000 s           0.000 s

  Partial memory accounting:
  | Current value for overall tracked memory usage:
  |   Minimum:        0.274 MB (on task 23)
  |   Maximum:        0.293 MB (on task  0)
  |   Average:        0.288 MB
  | Peak value for overall tracked memory usage:
  |   Minimum:        1.333 MB (on task  8 after allocating wave)
  |   Maximum:        1.424 MB (on task  2 after allocating wave)
  |   Average:        1.379 MB
  | Largest tracked array allocation so far:
  |   Minimum:        0.718 MB (gradient_basis_wave on task  8)
  |   Maximum:        0.776 MB (gradient_basis_wave on task  2)
  |   Average:        0.750 MB
  Note:  These values currently only include a subset of arrays which are explicitly tracked.
  The "true" memory usage will be greater.
------------------------------------------------------------

------------------------------------------------------------
          Begin self-consistency iteration #    3

  Date     :  20220517, Time     :  121239.587
------------------------------------------------------------
  Pulay mixing of updated and previous charge densities.
  Renormalizing the density to the exact electron count on the 3D integration grid.
  | Formal number of electrons (from input files) :     120.0000000000
  | Integrated number of electrons on 3D grid     :     120.0000000000
  | Charge integration error                      :       0.0000000000
  | Normalization factor for density and gradient :       1.0000000000

  Evaluating partitioned Hartree potential by multipole expansion.
  | Original multipole sum: apparent total charge =   0.655668E-13
  | Sum of charges compensated after spline to logarithmic grids =   0.493574E-04
  | Analytical far-field extrapolation by fixed multipoles:
  | Hartree multipole sum: apparent total charge =   0.640195E-13
  Summing up the Hartree potential.
  Time summed over all CPUs for potential: real work        0.382 s, elapsed        0.401 s
  | RMS charge density error from multipole expansion :   0.170272E-01

  Integrating Hamiltonian matrix: batch-based integration.
  Time summed over all CPUs for integration: real work        0.705 s, elapsed        0.741 s

  Updating Kohn-Sham eigenvalues and eigenvectors using ELSI and the ELPA eigensolver.
  Starting ELPA eigensolver
  Finished transformation to standard eigenproblem
  | Time :     0.000 s
  Finished solving standard eigenproblem
  | Time :     0.003 s
  Finished back-transformation of eigenvectors
  | Time :     0.001 s

  Obtaining occupation numbers and chemical potential using ELSI.
  | Chemical potential (Fermi level):    -7.64962470 eV
  Highest occupied state (VBM) at     -8.24367224 eV
  | Occupation number:      2.00000000

  Lowest unoccupied state (CBM) at    -5.07823259 eV
  | Occupation number:      0.00000000

  Overall HOMO-LUMO gap:      3.16543965 eV.

  Total energy components:
  | Sum of eigenvalues            :        -887.04913713 Ha      -24137.83514078 eV
  | XC energy correction          :        -145.16839265 Ha       -3950.23294967 eV
  | XC potential correction       :         189.02865789 Ha        5143.73149131 eV
  | Free-atom electrostatic energy:        -781.25259049 Ha      -21258.96463136 eV
  | Hartree energy correction     :          -0.60982123 Ha         -16.59408006 eV
  | Entropy correction            :           0.00000000 Ha           0.00000000 eV
  | ---------------------------
  | Total energy                  :       -1625.05128361 Ha      -44219.89531055 eV
  | Total energy, T -> 0          :       -1625.05128361 Ha      -44219.89531055 eV  <-- do not rely on this value for anything but (periodic) metals
  | Electronic free energy        :       -1625.05128361 Ha      -44219.89531055 eV

  Derived energy quantities:
  | Kinetic energy                :        1628.48871252 Ha       44313.43251039 eV
  | Electrostatic energy          :       -3108.37160348 Ha      -84583.09487128 eV
  | Energy correction for multipole
  | error in Hartree potential    :           0.04947425 Ha           1.34626271 eV
  | Sum of eigenvalues per atom                           :       -2011.48626173 eV
  | Total energy (T->0) per atom                          :       -3684.99127588 eV  <-- do not rely on this value for anything but (periodic) metals
  | Electronic free energy per atom                       :       -3684.99127588 eV
  Evaluating new KS density.
  Integration grid: deviation in total charge (<rho> - N_e) =   0.000000E+00

  Self-consistency convergence accuracy:
  | Change of charge density      :  0.1252E+00
  | Change of sum of eigenvalues  : -0.2682E+02 eV
  | Change of total energy        :  0.3963E-01 eV


------------------------------------------------------------
  End self-consistency iteration #     3       :  max(cpu_time)    wall_clock(cpu1)
  | Time for this iteration                     :        0.088 s           0.084 s
  | Charge density update                       :        0.028 s           0.028 s
  | Density mixing                              :        0.006 s           0.002 s
  | Hartree multipole update                    :        0.001 s           0.002 s
  | Hartree multipole summation                 :        0.017 s           0.017 s
  | Integration                                 :        0.031 s           0.031 s
  | Solution of K.-S. eqns.                     :        0.004 s           0.004 s
  | Total energy evaluation                     :        0.000 s           0.000 s

  Partial memory accounting:
  | Current value for overall tracked memory usage:
  |   Minimum:        0.274 MB (on task 23)
  |   Maximum:        0.293 MB (on task  0)
  |   Average:        0.288 MB
  | Peak value for overall tracked memory usage:
  |   Minimum:        1.333 MB (on task  8 after allocating wave)
  |   Maximum:        1.424 MB (on task  2 after allocating wave)
  |   Average:        1.379 MB
  | Largest tracked array allocation so far:
  |   Minimum:        0.718 MB (gradient_basis_wave on task  8)
  |   Maximum:        0.776 MB (gradient_basis_wave on task  2)
  |   Average:        0.750 MB
  Note:  These values currently only include a subset of arrays which are explicitly tracked.
  The "true" memory usage will be greater.
------------------------------------------------------------

------------------------------------------------------------
          Begin self-consistency iteration #    4

  Date     :  20220517, Time     :  121239.677
------------------------------------------------------------
  Pulay mixing of updated and previous charge densities.
  Renormalizing the density to the exact electron count on the 3D integration grid.
  | Formal number of electrons (from input files) :     120.0000000000
  | Integrated number of electrons on 3D grid     :     120.0000000000
  | Charge integration error                      :      -0.0000000000
  | Normalization factor for density and gradient :       1.0000000000

  Evaluating partitioned Hartree potential by multipole expansion.
  | Original multipole sum: apparent total charge =   0.310739E-14
  | Sum of charges compensated after spline to logarithmic grids =   0.528377E-04
  | Analytical far-field extrapolation by fixed multipoles:
  | Hartree multipole sum: apparent total charge =   0.318099E-14
  Summing up the Hartree potential.
  Time summed over all CPUs for potential: real work        0.382 s, elapsed        0.401 s
  | RMS charge density error from multipole expansion :   0.191494E-01

  Integrating Hamiltonian matrix: batch-based integration.
  Time summed over all CPUs for integration: real work        0.705 s, elapsed        0.739 s

  Updating Kohn-Sham eigenvalues and eigenvectors using ELSI and the ELPA eigensolver.
  Starting ELPA eigensolver
  Finished transformation to standard eigenproblem
  | Time :     0.000 s
  Finished solving standard eigenproblem
  | Time :     0.003 s
  Finished back-transformation of eigenvectors
  | Time :     0.001 s

  Obtaining occupation numbers and chemical potential using ELSI.
  | Chemical potential (Fermi level):    -7.64796373 eV
  Highest occupied state (VBM) at     -8.21286523 eV
  | Occupation number:      2.00000000

  Lowest unoccupied state (CBM) at    -5.06610584 eV
  | Occupation number:      0.00000000

  Overall HOMO-LUMO gap:      3.14675940 eV.

  Total energy components:
  | Sum of eigenvalues            :        -887.19858424 Ha      -24141.90180367 eV
  | XC energy correction          :        -145.14979097 Ha       -3949.72677218 eV
  | XC potential correction       :         189.00352495 Ha        5143.04758934 eV
  | Free-atom electrostatic energy:        -781.25259049 Ha      -21258.96463136 eV
  | Hartree energy correction     :          -0.45165634 Ha         -12.29019424 eV
  | Entropy correction            :           0.00000000 Ha           0.00000000 eV
  | ---------------------------
  | Total energy                  :       -1625.04909708 Ha      -44219.83581211 eV
  | Total energy, T -> 0          :       -1625.04909708 Ha      -44219.83581211 eV  <-- do not rely on this value for anything but (periodic) metals
  | Electronic free energy        :       -1625.04909708 Ha      -44219.83581211 eV

  Derived energy quantities:
  | Kinetic energy                :        1627.77689692 Ha       44294.06302232 eV
  | Electrostatic energy          :       -3107.67620303 Ha      -84564.17206224 eV
  | Energy correction for multipole
  | error in Hartree potential    :           0.05502897 Ha           1.49741460 eV
  | Sum of eigenvalues per atom                           :       -2011.82515031 eV
  | Total energy (T->0) per atom                          :       -3684.98631768 eV  <-- do not rely on this value for anything but (periodic) metals
  | Electronic free energy per atom                       :       -3684.98631768 eV
  Evaluating new KS density.
  Integration grid: deviation in total charge (<rho> - N_e) =   0.000000E+00

  Self-consistency convergence accuracy:
  | Change of charge density      :  0.8530E-01
  | Change of sum of eigenvalues  : -0.4067E+01 eV
  | Change of total energy        :  0.5950E-01 eV


------------------------------------------------------------
  End self-consistency iteration #     4       :  max(cpu_time)    wall_clock(cpu1)
  | Time for this iteration                     :        0.086 s           0.084 s
  | Charge density update                       :        0.028 s           0.028 s
  | Density mixing                              :        0.004 s           0.002 s
  | Hartree multipole update                    :        0.001 s           0.002 s
  | Hartree multipole summation                 :        0.017 s           0.017 s
  | Integration                                 :        0.031 s           0.031 s
  | Solution of K.-S. eqns.                     :        0.004 s           0.004 s
  | Total energy evaluation                     :        0.000 s           0.000 s

  Partial memory accounting:
  | Current value for overall tracked memory usage:
  |   Minimum:        0.274 MB (on task 23)
  |   Maximum:        0.293 MB (on task  0)
  |   Average:        0.288 MB
  | Peak value for overall tracked memory usage:
  |   Minimum:        1.333 MB (on task  8 after allocating wave)
  |   Maximum:        1.424 MB (on task  2 after allocating wave)
  |   Average:        1.379 MB
  | Largest tracked array allocation so far:
  |   Minimum:        0.718 MB (gradient_basis_wave on task  8)
  |   Maximum:        0.776 MB (gradient_basis_wave on task  2)
  |   Average:        0.750 MB
  Note:  These values currently only include a subset of arrays which are explicitly tracked.
  The "true" memory usage will be greater.
------------------------------------------------------------

------------------------------------------------------------
          Begin self-consistency iteration #    5

  Date     :  20220517, Time     :  121239.766
------------------------------------------------------------
  Pulay mixing of updated and previous charge densities.
  Renormalizing the density to the exact electron count on the 3D integration grid.
  | Formal number of electrons (from input files) :     120.0000000000
  | Integrated number of electrons on 3D grid     :     120.0000000000
  | Charge integration error                      :       0.0000000000
  | Normalization factor for density and gradient :       1.0000000000

  Evaluating partitioned Hartree potential by multipole expansion.
  | Original multipole sum: apparent total charge =   0.282061E-13
  | Sum of charges compensated after spline to logarithmic grids =   0.538130E-04
  | Analytical far-field extrapolation by fixed multipoles:
  | Hartree multipole sum: apparent total charge =   0.266893E-13
  Summing up the Hartree potential.
  Time summed over all CPUs for potential: real work        0.382 s, elapsed        0.401 s
  | RMS charge density error from multipole expansion :   0.189850E-01

  Integrating Hamiltonian matrix: batch-based integration.
  Time summed over all CPUs for integration: real work        0.705 s, elapsed        0.740 s

  Updating Kohn-Sham eigenvalues and eigenvectors using ELSI and the ELPA eigensolver.
  Starting ELPA eigensolver
  Finished transformation to standard eigenproblem
  | Time :     0.000 s
  Finished solving standard eigenproblem
  | Time :     0.004 s
  Finished back-transformation of eigenvectors
  | Time :     0.000 s

  Obtaining occupation numbers and chemical potential using ELSI.
  | Chemical potential (Fermi level):    -7.63724085 eV
  Highest occupied state (VBM) at     -8.30019525 eV
  | Occupation number:      2.00000000

  Lowest unoccupied state (CBM) at    -5.00243691 eV
  | Occupation number:      0.00000000

  Overall HOMO-LUMO gap:      3.29775834 eV.

  Total energy components:
  | Sum of eigenvalues            :        -887.01655133 Ha      -24136.94843602 eV
  | XC energy correction          :        -145.14709629 Ha       -3949.65344611 eV
  | XC potential correction       :         189.00013102 Ha        5142.95523574 eV
  | Free-atom electrostatic energy:        -781.25259049 Ha      -21258.96463136 eV
  | Hartree energy correction     :          -0.63284787 Ha         -17.22066661 eV
  | Entropy correction            :           0.00000000 Ha           0.00000000 eV
[...]
   Total forces(   7)            : -0.337746E+00  0.345343E+01 -0.236297E+00
  atom #    8
   Hellmann-Feynman              :  0.392421E+00 -0.497432E+00  0.125797E-01
   Ionic forces                  :  0.000000E+00  0.000000E+00  0.000000E+00
   Multipole                     :  0.279127E+00 -0.242908E+00 -0.823809E-01
   Hartree pot. SCF incomplete   :  0.573646E-05 -0.517967E-05 -0.423684E-05
   Pulay + GGA                   : -0.328102E+01  0.280452E+01  0.412374E+00
   ----------------------------------------------------------------
   Total forces(   8)            : -0.260946E+01  0.206417E+01  0.342569E+00
  atom #    9
   Hellmann-Feynman              : -0.483664E+00  0.699581E+00 -0.343065E+01
   Ionic forces                  :  0.000000E+00  0.000000E+00  0.000000E+00
   Multipole                     : -0.933536E-01  0.108170E+00 -0.913849E+00
   Hartree pot. SCF incomplete   : -0.179757E-05 -0.162564E-06 -0.157419E-05
   Pulay + GGA                   :  0.997149E+00 -0.125312E+01  0.760552E+01
   ----------------------------------------------------------------
   Total forces(   9)            :  0.420130E+00 -0.445374E+00  0.326102E+01
  atom #   10
   Hellmann-Feynman              : -0.999241E+00  0.136470E+01  0.138889E+00
   Ionic forces                  :  0.000000E+00  0.000000E+00  0.000000E+00
   Multipole                     :  0.143241E-01  0.699544E+00  0.938765E-01
   Hartree pot. SCF incomplete   : -0.973928E-06  0.926045E-05 -0.429845E-05
   Pulay + GGA                   :  0.726364E+00 -0.251105E+01 -0.121684E+01
   ----------------------------------------------------------------
   Total forces(  10)            : -0.258554E+00 -0.446793E+00 -0.984077E+00
  atom #   11
   Hellmann-Feynman              :  0.268300E+01  0.753354E+00  0.115789E+01
   Ionic forces                  :  0.000000E+00  0.000000E+00  0.000000E+00
   Multipole                     :  0.688918E+00  0.172478E+00  0.264909E+00
   Hartree pot. SCF incomplete   :  0.278984E-05 -0.167553E-06  0.332175E-05
   Pulay + GGA                   : -0.680908E+01 -0.165646E+01 -0.299311E+01
   ----------------------------------------------------------------
   Total forces(  11)            : -0.343716E+01 -0.730633E+00 -0.157031E+01
  atom #   12
   Hellmann-Feynman              : -0.337834E+00 -0.339858E+00  0.526675E+00
   Ionic forces                  :  0.000000E+00  0.000000E+00  0.000000E+00
   Multipole                     : -0.371709E+00 -0.370750E+00  0.134232E+00
   Hartree pot. SCF incomplete   : -0.336641E-05 -0.371142E-05 -0.459411E-05
   Pulay + GGA                   :  0.193522E+01  0.151480E+01 -0.864683E+00
   ----------------------------------------------------------------
   Total forces(  12)            :  0.122567E+01  0.804187E+00 -0.203781E+00


  Self-consistency convergence accuracy:
  | Change of charge density      :  0.5096E-06
  | Change of sum of eigenvalues  : -0.2704E-04 eV
  | Change of total energy        :  0.1485E-09 eV
  | Change of forces              :  0.2722E-05 eV/A

  Writing Kohn-Sham eigenvalues.

  State    Occupation    Eigenvalue [Ha]    Eigenvalue [eV]
      1       2.00000         -55.676500        -1515.03465
      2       2.00000         -55.649559        -1514.30155
      3       2.00000         -55.595854        -1512.84015
      4       2.00000         -24.352339         -662.66087
      5       2.00000         -24.323376         -661.87274
      6       2.00000         -24.291997         -661.01888
      7       2.00000         -24.290100         -660.96724
      8       2.00000         -24.254400         -659.99581
      9       2.00000         -24.248421         -659.83311
     10       2.00000         -24.212278         -658.84959
     11       2.00000         -24.164266         -657.54314
     12       2.00000         -24.163791         -657.53020
     13       2.00000          -4.130017         -112.38348
     14       2.00000          -4.101044         -111.59509
     15       2.00000          -4.046593         -110.11340
     16       2.00000          -2.723247          -74.10333
     17       2.00000          -2.721766          -74.06301
     18       2.00000          -2.719711          -74.00709
     19       2.00000          -2.693949          -73.30609
     20       2.00000          -2.692608          -73.26958
     21       2.00000          -2.691354          -73.23548
     22       2.00000          -2.641308          -71.87363
     23       2.00000          -2.638268          -71.79092
     24       2.00000          -2.634786          -71.69618
     25       2.00000          -1.239149          -33.71896
     26       2.00000          -1.195327          -32.52649
     27       2.00000          -1.157461          -31.49610
     28       2.00000          -1.143363          -31.11248
     29       2.00000          -1.103645          -30.03172
     30       2.00000          -1.094859          -29.79263
     31       2.00000          -1.053578          -28.66933
     32       2.00000          -1.012265          -27.54512
     33       2.00000          -1.005812          -27.36953
     34       2.00000          -0.600608          -16.34336
     35       2.00000          -0.596895          -16.24233
     36       2.00000          -0.568439          -15.46802
     37       2.00000          -0.545022          -14.83082
     38       2.00000          -0.518917          -14.12044
     39       2.00000          -0.505983          -13.76850
     40       2.00000          -0.500050          -13.60706
     41       2.00000          -0.492545          -13.40284
     42       2.00000          -0.487897          -13.27636
     43       2.00000          -0.474324          -12.90702
     44       2.00000          -0.460052          -12.51864
     45       2.00000          -0.449960          -12.24404
     46       2.00000          -0.447404          -12.17448
     47       2.00000          -0.429589          -11.68971
     48       2.00000          -0.417369          -11.35720
     49       2.00000          -0.412336          -11.22024
     50       2.00000          -0.408656          -11.12011
     51       2.00000          -0.406709          -11.06711
     52       2.00000          -0.390580          -10.62822
     53       2.00000          -0.380930          -10.36563
     54       2.00000          -0.361322           -9.83207
     55       2.00000          -0.359883           -9.79291
     56       2.00000          -0.352916           -9.60332
     57       2.00000          -0.324084           -8.81877
     58       2.00000          -0.319847           -8.70347
     59       2.00000          -0.313244           -8.52381
     60       2.00000          -0.304170           -8.27689
     61       0.00000          -0.183730           -4.99954
     62       0.00000          -0.122337           -3.32896
     63       0.00000          -0.082742           -2.25153
     64       0.00000          -0.075222           -2.04691
     65       0.00000          -0.059742           -1.62566
     66       0.00000          -0.030658           -0.83424
     67       0.00000           0.004611            0.12548
     68       0.00000           0.019726            0.53678
     69       0.00000           0.032131            0.87433
     70       0.00000           0.056225            1.52995
     71       0.00000           0.081090            2.20657
     72       0.00000           0.094752            2.57832
     73       0.00000           0.127193            3.46109
     74       0.00000           0.143821            3.91358
     75       0.00000           0.148927            4.05251
     76       0.00000           0.156837            4.26776
     77       0.00000           0.172569            4.69585
     78       0.00000           0.185511            5.04801
     79       0.00000           0.191114            5.20046
     80       0.00000           0.203316            5.53250
     81       0.00000           0.213137            5.79974
     82       0.00000           0.216175            5.88243
     83       0.00000           0.224708            6.11461
     84       0.00000           0.229206            6.23700
     85       0.00000           0.239909            6.52826
     86       0.00000           0.242506            6.59894
     87       0.00000           0.253428            6.89613
     88       0.00000           0.262775            7.15046
     89       0.00000           0.279651            7.60970
     90       0.00000           0.282343            7.68294
     91       0.00000           0.288460            7.84940
     92       0.00000           0.336652            9.16077
     93       0.00000           0.343590            9.34957
     94       0.00000           0.357539            9.72914
     95       0.00000           0.370412           10.07944
     96       0.00000           0.376347           10.24091

  Highest occupied state (VBM) at     -8.27688803 eV
  | Occupation number:      2.00000000

  Lowest unoccupied state (CBM) at    -4.99953828 eV
  | Occupation number:      0.00000000

  Overall HOMO-LUMO gap:      3.27734975 eV.
  | Chemical Potential                          :    -7.63340857 eV

  Self-consistency cycle converged.


------------------------------------------------------------
  End self-consistency iteration #    14       :  max(cpu_time)    wall_clock(cpu1)
  | Time for this iteration                     :        0.278 s           0.280 s
  | Charge density & force component update     :        0.155 s           0.154 s
  | Density mixing                              :        0.005 s           0.006 s
  | Hartree multipole update                    :        0.001 s           0.001 s
  | Hartree multipole summation                 :        0.049 s           0.050 s
  | Hartree pot. SCF incomplete forces          :        0.031 s           0.032 s
  | Integration                                 :        0.031 s           0.031 s
  | Solution of K.-S. eqns.                     :        0.004 s           0.004 s
  | Total energy evaluation                     :        0.000 s           0.001 s

  Partial memory accounting:
  | Current value for overall tracked memory usage:
  |   Minimum:        0.274 MB (on task 23)
  |   Maximum:        0.293 MB (on task  0)
  |   Average:        0.289 MB
  | Peak value for overall tracked memory usage:
  |   Minimum:        2.955 MB (on task  8 after allocating hessian_basis_wave)
  |   Maximum:        3.149 MB (on task  2 after allocating hessian_basis_wave)
  |   Average:        3.057 MB
  | Largest tracked array allocation so far:
  |   Minimum:        1.436 MB (hessian_basis_wave on task  8)
  |   Maximum:        1.552 MB (hessian_basis_wave on task  2)
  |   Average:        1.499 MB
  Note:  These values currently only include a subset of arrays which are explicitly tracked.
  The "true" memory usage will be greater.
------------------------------------------------------------
  Removing unitary transformations (pure translations, rotations) from forces on atoms.
  Atomic forces before filtering:
  | Net force on center of mass :   0.175686E-03 -0.374878E-02  0.104667E-01 eV/A
  | Net torque on center of mass:   0.152043E-01  0.914318E-02 -0.181991E-02 eV
  Atomic forces after filtering:
  | Net force on center of mass :   0.178406E-15 -0.713624E-15  0.000000E+00 eV/A
  | Net torque on center of mass:  -0.169935E-14 -0.330430E-15  0.000000E+00 eV

  Energy and forces in a compact form:
  | Total energy uncorrected      :         -0.442198315664356E+05 eV
  | Total energy corrected        :         -0.442198315664356E+05 eV  <-- do not rely on this value for anything but (periodic) metals
  | Electronic free energy        :         -0.442198315664356E+05 eV
  Total atomic forces (unitary forces cleaned) [eV/Ang]:
  |    1         -0.311565803007400E+01         -0.182790948851018E+01          0.161747286028637E+01
  |    2          0.387103184754171E+01         -0.173266016206153E+01          0.310970748819139E+01
  |    3          0.390894848367472E+00         -0.916892030732372E+00         -0.312632661338764E+01
  |    4          0.764791237068827E+00         -0.126024712374091E+01         -0.121761800112547E+01
  |    5          0.269806575250450E+01         -0.168723134210318E+01         -0.123162462342373E+00
  |    6          0.387289086366546E+00          0.272523729140131E+01         -0.864608773485523E+00
  |    7         -0.337775390424887E+00          0.345412322718180E+01         -0.236441238805447E+00
  |    8         -0.260916883278395E+01          0.206418710451591E+01          0.342268247814757E+00
  |    9          0.420800697911453E+00         -0.446487518674099E+00          0.325981924334298E+01
  |   10         -0.258629526717011E+00         -0.446631673054312E+00         -0.985499717910991E+00
  |   11         -0.343755238263489E+01         -0.729484365177902E+00         -0.157088836695447E+01
  |   12          0.122591069287424E+01          0.803996080955474E+00         -0.204722665623587E+00

  ------------------------------------ 
  Start decomposition of the XC Energy 
  ------------------------------------ 
  X and C from original XC functional choice 
  Hartree-Fock Energy :          0.000000000 Ha              0.000000000 eV
  X Energy            :       -140.196275229 Ha          -3814.934750713 eV
  C Energy            :         -4.954773973 Ha           -134.826259684 eV
  Total XC Energy     :       -145.151049201 Ha          -3949.761010397 eV
  ------------------------------------ 
  LDA X and C from self-consistent density 
  X Energy LDA        :       -132.783937928 Ha          -3613.234790393 eV
  C Energy LDA        :         -8.826881032 Ha           -240.191653690 eV
  ------------------------------------ 
  End decomposition of the XC Energy 
  ------------------------------------ 

------------------------------------------------------------

------------------------------------------------------------------------------
  Final output of selected total energy values:

  The following output summarizes some interesting total energy values
  at the end of a run (AFTER all relaxation, molecular dynamics, etc.).

  | Total energy of the DFT / Hartree-Fock s.c.f. calculation      :         -44219.831566436 eV
  | Final zero-broadening corrected energy (caution - metals only) :         -44219.831566436 eV
  | For reference only, the value of 1 Hartree used in FHI-aims is :             27.211384500 eV

  Before relying on these values, please be sure to understand exactly which
  total energy value is referred to by a given number. Different objects may
  all carry the same name 'total energy'. Definitions:

  Total energy of the DFT / Hartree-Fock s.c.f. calculation:
  | Note that this energy does not include ANY quantities calculated after the
  | s.c.f. cycle, in particular not ANY RPA, MP2, etc. many-body perturbation terms.

  Final zero-broadening corrected energy:
  | For metallic systems only, a broadening of the occupation numbers at the Fermi
  | level can be extrapolated back to zero broadening by an electron-gas inspired
  | formula. For all systems that are not real metals, this value can be
  | meaningless and should be avoided.

------------------------------------------------------------------------------
  Methods described in the following list of references were used in this FHI-aims run.
  If you publish the results, please make sure to cite these reference if they apply.
  FHI-aims is an academic code, and for our developers (often, Ph.D. students
  and postdocs), scientific credit in the community is essential.
  Thank you for helping us!

  For any use of FHI-aims, please cite:

    Volker Blum, Ralf Gehrke, Felix Hanke, Paula Havu, Ville Havu,
    Xinguo Ren, Karsten Reuter, and Matthias Scheffler
    'Ab initio molecular simulations with numeric atom-centered orbitals'
    Computer Physics Communications 180, 2175-2196 (2009)
    http://dx.doi.org/10.1016/j.cpc.2009.06.022


  The ELSI infrastructure was used in your run to solve the Kohn-Sham electronic structure.
  Please check out http://elsi-interchange.org to learn more.
  If scalability is important for your project, please acknowledge ELSI by citing:

    V. W-z. Yu, F. Corsetti, A. Garcia, W. P. Huhn, M. Jacquelin, W. Jia,
    B. Lange, L. Lin, J. Lu, W. Mi, A. Seifitokaldani, A. Vazquez-Mayagoitia,
    C. Yang, H. Yang, and V. Blum
    'ELSI: A unified software interface for Kohn-Sham electronic structure solvers'
    Computer Physics Communications 222, 267-285 (2018).
    http://dx.doi.org/10.1016/j.cpc.2017.09.007


  For the real-space grid partitioning and parallelization used in this calculation, please cite:

    Ville Havu, Volker Blum, Paula Havu, and Matthias Scheffler,
    'Efficient O(N) integration for all-electron electronic structure calculation'
    'using numerically tabulated basis functions'
    Journal of Computational Physics 228, 8367-8379 (2009).
    http://dx.doi.org/10.1016/j.jcp.2009.08.008

  Of course, there are many other important community references, e.g., those cited in the
  above references. Our list is limited to references that describe implementations in the
  FHI-aims code. The reason is purely practical (length of this list) - please credit others as well.

------------------------------------------------------------
          Leaving FHI-aims.
          Date     :  20220517, Time     :  121241.143

          Computational steps:
          | Number of self-consistency cycles          :           14
          | Number of SCF (re)initializations          :            1

          Detailed time accounting                     :  max(cpu_time)    wall_clock(cpu1)
          | Total time                                  :        2.095 s           9.059 s
          | Preparation time                            :        0.185 s           0.186 s
          | Boundary condition initalization            :        0.000 s           0.000 s
          | Grid partitioning                           :        0.047 s           0.047 s
          | Preloading free-atom quantities on grid     :        0.017 s           0.017 s
          | Free-atom superposition energy              :        0.005 s           0.005 s
          | Total time for integrations                 :        0.491 s           0.490 s
          | Total time for solution of K.-S. equations  :        0.141 s           0.142 s
          | Total time for density & force components   :        0.678 s           0.677 s
          | Total time for mixing                       :        0.072 s           0.043 s
          | Total time for Hartree multipole update     :        0.023 s           0.025 s
          | Total time for Hartree multipole sum        :        0.307 s           0.308 s
          | Total time for total energy evaluation      :        0.003 s           0.003 s
          | Total time NSC force correction             :        0.063 s           0.063 s
          | Total time for scaled ZORA corrections      :        0.000 s           0.000 s

          Partial memory accounting:
          | Residual value for overall tracked memory usage across tasks:     0.000000 MB (should be 0.000000 MB)
          | Peak values for overall tracked memory usage:
          |   Minimum:        2.955 MB (on task  8 after allocating hessian_basis_wave)
          |   Maximum:        3.149 MB (on task  2 after allocating hessian_basis_wave)
          |   Average:        3.057 MB
          | Largest tracked array allocation:
          |   Minimum:        1.436 MB (hessian_basis_wave on task  8)
          |   Maximum:        1.552 MB (hessian_basis_wave on task  2)
          |   Average:        1.499 MB
          Note:  These values currently only include a subset of arrays which are explicitly tracked.
          The "true" memory usage will be greater.

          Have a nice day.
------------------------------------------------------------
