********************************************************************************
*                       GENERAL UTILITY LATTICE PROGRAM                        *
*                                 Julian Gale                                  *
*                       Curtin Institute for Computation                       *
*                           Department of Chemistry                            *
*                    Curtin University, Western Australia                      *
********************************************************************************
* Version = 5.1.1 * Last modified =  24th November 2018                        *
********************************************************************************
*  optimise     - perform optimisation run                                     *
*  conp         - constant pressure calculation                                *
*  shell        - only shells and radii to be optimised                        *
*  phonon       - calculate phonons for final geometry                         *
*  eigenvectors - output phonon eigenvectors                                   *
********************************************************************************

  Job Started  at 14:39.56 25th May        2022                               

  Number of CPUs =     1

  Host name      = login03                                 


  Total number of configurations input =      1

********************************************************************************
*  Input for Configuration =   1                                               *
********************************************************************************

  Formula = Al3F9                                                       

  Number of irreducible atoms/shells =      21


  Total number atoms/shells =      21

  Dimensionality = 0               :  Cluster


  Charge on cluster =  -0.000000


  Initial cluster dipoles : x =      0.547347 e.Angs
                            y =      0.933358 e.Angs
                            z =     -0.881492 e.Angs

  Temperature of configuration =  0.000     K 

  Symmetry number =      1

  Cartesian coordinates of cluster :

--------------------------------------------------------------------------------
   No.  Atomic       x           y          z         Charge      Occupancy
        Label      (Angs)      (Angs)     (Angs)        (e)         (Frac)  
--------------------------------------------------------------------------------
      1 Al    c     -0.0659      1.6378      2.1508     3.00000    1.000000    
      2 Al    c      2.5015      2.7140      1.7164     3.00000    1.000000    
      3 Al    c      1.3155      2.7155     -0.6334     3.00000    1.000000    
      4 F     c      1.0058      3.0830      2.8330     0.59000    1.000000    
      5 F     c     -1.6061      2.7025      2.1773     0.59000    1.000000    
      6 F     c     -0.4906     -0.0292      2.7536     0.59000    1.000000    
      7 F     c      1.7846      0.7740      1.9435     0.59000    1.000000    
      8 F     c      3.0131      1.8259     -0.0590     0.59000    1.000000    
      9 F     c      1.0917      3.0274     -2.3797     0.59000    1.000000    
     10 F     c      1.7588      3.9496      0.6314     0.59000    1.000000    
     11 F     c      4.1465      3.1321      2.4761     0.59000    1.000000    
     12 F     c      0.0022      1.8031      0.2066     0.59000    1.000000    
     13 F     s      1.0058 *    3.0830 *    2.8330 *  -1.59000    1.000000    
     14 F     s     -1.6061 *    2.7025 *    2.1773 *  -1.59000    1.000000    
     15 F     s     -0.4906 *   -0.0292 *    2.7536 *  -1.59000    1.000000    
     16 F     s      1.7846 *    0.7740 *    1.9435 *  -1.59000    1.000000    
     17 F     s      3.0131 *    1.8259 *   -0.0590 *  -1.59000    1.000000    
     18 F     s      1.0917 *    3.0274 *   -2.3797 *  -1.59000    1.000000    
     19 F     s      1.7588 *    3.9496 *    0.6314 *  -1.59000    1.000000    
     20 F     s      4.1465 *    3.1321 *    2.4761 *  -1.59000    1.000000    
     21 F     s      0.0022 *    1.8031 *    0.2066 *  -1.59000    1.000000    
--------------------------------------------------------------------------------


  Brillouin zone sampling points :

--------------------------------------------------------------------------------
  Point number          x          y          z            Weight
--------------------------------------------------------------------------------
        1           0.000000   0.000000   0.000000     1.00000000
--------------------------------------------------------------------------------


********************************************************************************
*  General input information                                                   *
********************************************************************************

  Species output for all configurations : 

--------------------------------------------------------------------------------
  Species    Type    Atomic    Atomic    Charge       Radii (Angs)     Library
                     Number     Mass       (e)     Cova   Ionic  VDW   Symbol
--------------------------------------------------------------------------------
    Al       Core       13      26.98   3.000000   1.350  0.000  2.050          
    F        Core        9      19.00   0.590000   0.710  0.000  1.300          
    F        Shell       9       0.00  -1.590000   0.710  0.000  1.300          
--------------------------------------------------------------------------------


  Accuracy factor for short range sums = 12.000

  Time limit = Infinity

  Maximum range for interatomic potentials =    100000.000000 Angstroms

  General interatomic potentials :

--------------------------------------------------------------------------------
Atom  Types   Potential      Parameter       Value         Units   Cutoffs(Ang)
  1     2                                                            Min /  Max 
--------------------------------------------------------------------------------
Al   c F    s Buckingham    Buckingham A     3760.0008    eV        0.000 10.000
                            Buckingham rho  0.22200000    Ang       
                            Buckingham C     0.0000000    eV*Ang^6  
--------------------------------------------------------------------------------
F    s F    s Buck 4 range  Buck4 A          1127.7000    eV        0.000 12.000
                            Buck4 rho       0.27530000    Ang       
                            Buck4 C          15.830000    eV*Ang^6  
                            Buck4 minimum    2.7900000    Ang       
--------------------------------------------------------------------------------
F    c F    s Spring (c-s)  Spring k 2       20.770000    eV*Ang^-2 0.000  0.800
                            Spring k 4       0.0000000    eV*Ang^-4 
--------------------------------------------------------------------------------

********************************************************************************
*  Output for configuration   1                                                *
********************************************************************************


  Components of energy : 

--------------------------------------------------------------------------------
  Interatomic potentials     =          10.36694675 eV    
  Monopole - monopole (real) =        -177.01750491 eV    
--------------------------------------------------------------------------------
  Total lattice energy       =        -166.65055816 eV    
--------------------------------------------------------------------------------
  Total lattice energy       =          -16079.2314 kJ/mol
--------------------------------------------------------------------------------


  Number of variables =       27

  Maximum number of calculations  =          2000
  Maximum Hessian update interval =            10
  Maximum step size               =   1.000000000
  Maximum parameter tolerance     =   0.000001000
  Maximum function  tolerance     =   0.000010000
  Maximum gradient  tolerance     =   0.000000010
  Maximum gradient  component     =   0.010000000

  Symmetry not applied to optimisation

  Newton-Raphson optimiser to be used

  BFGS hessian update to be used

  Lower half triangular hessian to be used

  Minimiser to switch to RFO
  When gradient norm is less than     0.010000

  Shell only optimisation

  Start of cluster optimisation :

  Cycle:      0 Energy:      -166.650558  Gnorm:      1.502642  CPU:    0.004
  ** Hessian calculated **
  Cycle:      1 Energy:      -184.224465  Gnorm:      0.615237  CPU:    0.006
  ** Hessian calculated **
  Cycle:      2 Energy:      -185.781597  Gnorm:      0.042460  CPU:    0.008
  Cycle:      3 Energy:      -185.792066  Gnorm:      0.008647  CPU:    0.009
  ** Hessian has required structure
  Cycle:      4 Energy:      -185.792558  Gnorm:      0.002569  CPU:    0.011
  ** Hessian has required structure
  Cycle:      5 Energy:      -185.792611  Gnorm:      0.001001  CPU:    0.012
  ** Hessian has required structure
  Cycle:      6 Energy:      -185.792619  Gnorm:      0.000536  CPU:    0.014
  ** Hessian has required structure
  Cycle:      7 Energy:      -185.792621  Gnorm:      0.000347  CPU:    0.015
  ** Hessian has required structure
  Cycle:      8 Energy:      -185.792621  Gnorm:      0.000205  CPU:    0.016
  ** Hessian has required structure
  Cycle:      9 Energy:      -185.792622  Gnorm:      0.000139  CPU:    0.018
  ** Hessian has required structure
  Cycle:     10 Energy:      -185.792622  Gnorm:      0.000102  CPU:    0.019
  ** Hessian has required structure
  Cycle:     11 Energy:      -185.792622  Gnorm:      0.000085  CPU:    0.020
  ** Hessian has required structure

  XYZ File written as 004/5/sp_mod_20/sp_mod_20_eig.xyz



  **** Optimisation achieved ****


  Final energy =    -185.79262191 eV
  Final Gnorm  =       0.00000000

  Components of energy : 

--------------------------------------------------------------------------------
  Interatomic potentials     =          37.77003783 eV    
  Monopole - monopole (real) =        -223.56265975 eV    
--------------------------------------------------------------------------------
  Total lattice energy       =        -185.79262191 eV    
--------------------------------------------------------------------------------
  Total lattice energy       =          -17926.1479 kJ/mol
--------------------------------------------------------------------------------

  Final cartesian coordinates of atoms :

--------------------------------------------------------------------------------
   No.  Atomic        x           y          z          Radius
        Label       (Angs)      (Angs)     (Angs)       (Angs) 
--------------------------------------------------------------------------------
     1  Al    c    -0.065853    1.637779    2.150790    0.000000
     2  Al    c     2.501496    2.713992    1.716416    0.000000
     3  Al    c     1.315473    2.715464   -0.633434    0.000000
     4  F     c     1.005805    3.082967    2.833010    0.000000
     5  F     c    -1.606125    2.702483    2.177342    0.000000
     6  F     c    -0.490559   -0.029177    2.753592    0.000000
     7  F     c     1.784567    0.774013    1.943490    0.000000
     8  F     c     3.013138    1.825941   -0.059019    0.000000
     9  F     c     1.091680    3.027434   -2.379688    0.000000
    10  F     c     1.758769    3.949570    0.631380    0.000000
    11  F     c     4.146519    3.132064    2.476103    0.000000
    12  F     c     0.002208    1.803054    0.206598    0.000000
    13  F     s     1.071035    2.915965    2.642608    0.000000
    14  F     s    -1.366726    2.550147    2.166854    0.000000
    15  F     s    -0.433027    0.214417    2.665925    0.000000
    16  F     s     1.731657    1.109840    1.916171    0.000000
    17  F     s     2.752431    2.028801   -0.001261    0.000000
    18  F     s     1.123796    2.986120   -2.106422    0.000000
    19  F     s     1.767345    3.736140    0.582467    0.000000
    20  F     s     3.863516    3.071884    2.343454    0.000000
    21  F     s     0.190559    1.923190    0.263362    0.000000
--------------------------------------------------------------------------------


  Final Cartesian derivatives :

--------------------------------------------------------------------------------
   No.  Atomic          x             y             z           Radius
        Label       (eV/Angs)     (eV/Angs)    (eV/Angs)      (eV/Angs)
--------------------------------------------------------------------------------
      1 Al    c       0.000000      0.000000      0.000000      0.000000
      2 Al    c       0.000000      0.000000      0.000000      0.000000
      3 Al    c       0.000000      0.000000      0.000000      0.000000
      4 F     c       0.000000      0.000000      0.000000      0.000000
      5 F     c       0.000000      0.000000      0.000000      0.000000
      6 F     c       0.000000      0.000000      0.000000      0.000000
      7 F     c       0.000000      0.000000      0.000000      0.000000
      8 F     c       0.000000      0.000000      0.000000      0.000000
      9 F     c       0.000000      0.000000      0.000000      0.000000
     10 F     c       0.000000      0.000000      0.000000      0.000000
     11 F     c       0.000000      0.000000      0.000000      0.000000
     12 F     c       0.000000      0.000000      0.000000      0.000000
     13 F     s      -0.000000     -0.000000      0.000000      0.000000
     14 F     s      -0.000000     -0.000000     -0.000000      0.000000
     15 F     s      -0.000000      0.000000     -0.000000      0.000000
     16 F     s       0.000000      0.000000     -0.000000      0.000000
     17 F     s      -0.000000     -0.000000      0.000000      0.000000
     18 F     s       0.000000      0.000000      0.000000      0.000000
     19 F     s      -0.000000     -0.000000     -0.000000      0.000000
     20 F     s      -0.000000     -0.000000     -0.000000      0.000000
     21 F     s       0.000000      0.000000      0.000000      0.000000
--------------------------------------------------------------------------------
  Maximum abs         0.000000      0.000000      0.000000      0.000000
--------------------------------------------------------------------------------


  Born effective charge tensors : 

-------------------------------------------------------------------------------
  Atom             x           y             z
-------------------------------------------------------------------------------
    1 Al    x       1.3610      0.0785     -0.0809
            y       0.1323      0.5998      0.1148
            z      -0.1669      0.1100      1.5682
-------------------------------------------------------------------------------
    2 Al    x       0.7640      0.1179     -0.2284
            y       0.0813      1.2186      0.1199
            z      -0.1839      0.1251      1.3908
-------------------------------------------------------------------------------
    3 Al    x       1.1645     -0.1129     -0.0042
            y      -0.1260      1.2032     -0.0476
            z       0.0421     -0.0398      0.5645
-------------------------------------------------------------------------------
    4 F     x      -0.3245     -0.0414     -0.0055
            y      -0.0909     -0.3793     -0.0201
            z      -0.0471      0.0079     -0.3474
-------------------------------------------------------------------------------
    5 F     x      -0.2637     -0.2188      0.0245
            y      -0.2106     -0.3489     -0.0047
            z       0.0226      0.0102     -0.5491
-------------------------------------------------------------------------------
    6 F     x      -0.5520      0.1052     -0.0207
            y       0.0681     -0.0735     -0.1449
            z       0.0014     -0.1662     -0.4871
-------------------------------------------------------------------------------
    7 F     x      -0.6554     -0.0300      0.0055
            y       0.0503     -0.4370      0.0361
            z       0.0425      0.0584     -0.4435
-------------------------------------------------------------------------------
    8 F     x      -0.2963     -0.0244      0.0937
            y      -0.0269     -0.3075     -0.0642
            z      -0.0093     -0.0559     -0.5907
-------------------------------------------------------------------------------
    9 F     x      -0.5335     -0.0125      0.0807
            y      -0.0199     -0.5363     -0.1196
            z       0.0932     -0.0854      0.0818
-------------------------------------------------------------------------------
   10 F     x      -0.2932     -0.0044      0.0614
            y      -0.0054     -0.1879      0.0734
            z       0.0877      0.0123     -0.1870
-------------------------------------------------------------------------------
   11 F     x      -0.0911      0.0961      0.2068
            y       0.1122     -0.4968      0.0593
            z       0.2083      0.0484     -0.4557
-------------------------------------------------------------------------------
   12 F     x      -0.2798      0.0467     -0.1330
            y       0.0355     -0.2544     -0.0025
            z      -0.0905     -0.0251     -0.5447
-------------------------------------------------------------------------------




  Moment of inertia tensor (10^-46 x kgm^2): 

-------------------------------------------------------------------------------
                x           y           z           Principal axis system
-------------------------------------------------------------------------------
       x        140.00      -21.52       11.24          116.010622
       y        -21.52      188.86       19.42          149.948164
       z         11.24       19.42      137.53          200.428740
-------------------------------------------------------------------------------
  Centre of mass (Ang) =     1.209094     2.285356     1.144402
-------------------------------------------------------------------------------


  Vibrational Frequency Calculation : 

--------------------------------------------------------------------------------

  Frequencies (cm-1) and Eigenvectors : 

  Frequency     -51.6216  -36.4091   -2.7263   -0.0000    0.0000    0.0000
  IR Intensity    0.0011    0.0006    0.0010    0.0000    0.0000    0.0000
     in X         0.0003    0.0000    0.0002    0.0000    0.0000    0.0000
     in Y         0.0003    0.0000    0.0002    0.0000    0.0000    0.0000
     in Z         0.0005    0.0006    0.0007    0.0000    0.0000    0.0000
  Raman Intsty    0.0079    0.0015    0.0038    0.0000    0.0000    0.0000

     1 x      -0.056409 -0.183358 -0.060864  0.311237 -0.085080  0.054607
     1 y       0.163006  0.074907 -0.116343  0.096275  0.303371 -0.076066
     1 z       0.042713 -0.090487 -0.189175  0.030847 -0.088411 -0.313562
     2 x      -0.044727 -0.017669 -0.111107  0.311237 -0.085080  0.054607
     2 y       0.185467 -0.237919  0.145073  0.096275  0.303371 -0.076066
     2 z       0.055291  0.111054  0.193804  0.030847 -0.088411 -0.313562
     3 x       0.123552  0.179232  0.195874  0.311237 -0.085080  0.054607
     3 y      -0.376465  0.136302  0.000007  0.096275  0.303371 -0.076066
     3 z      -0.046525  0.034372  0.028087  0.030847 -0.088411 -0.313562
     4 x      -0.111564 -0.106034 -0.210748  0.261184 -0.071397  0.045825
     4 y       0.287925  0.022704 -0.063568  0.080792  0.254583 -0.063833
     4 z      -0.125437 -0.101621  0.063486  0.025886 -0.074193 -0.263135
     5 x      -0.062308 -0.133447 -0.080653  0.261184 -0.071397  0.045825
     5 y       0.112214  0.088765 -0.138162  0.080792  0.254583 -0.063833
     5 z       0.016657 -0.022935 -0.277745  0.025886 -0.074193 -0.263135
     6 x      -0.047513 -0.237844 -0.061699  0.261184 -0.071397  0.045825
     6 y       0.131413  0.005531 -0.140584  0.080792  0.254583 -0.063833
     6 z       0.028018 -0.293671 -0.284316  0.025886 -0.074193 -0.263135
     7 x      -0.036651 -0.123856 -0.004546  0.261184 -0.071397  0.045825
     7 y       0.168165 -0.093510  0.046587  0.080792  0.254583 -0.063833
     7 z       0.190178  0.104539  0.027650  0.025886 -0.074193 -0.263135
     8 x       0.047735 -0.038801  0.188009  0.261184 -0.071397  0.045825
     8 y      -0.224866 -0.222660  0.187569  0.080792  0.254583 -0.063833
     8 z       0.144111  0.052995  0.204649  0.025886 -0.074193 -0.263135
     9 x       0.098936  0.145403  0.427381  0.261184 -0.071397  0.045825
     9 y      -0.539780  0.211727 -0.000045  0.080792  0.254583 -0.063833
     9 z      -0.079702  0.047006 -0.010300  0.025886 -0.074193 -0.263135
    10 x       0.159766  0.531546 -0.257621  0.261184 -0.071397  0.045825
    10 y      -0.057032  0.034559  0.010772  0.080792  0.254583 -0.063833
    10 z      -0.329761 -0.007839  0.148019  0.025886 -0.074193 -0.263135
    11 x      -0.038368 -0.024023 -0.156032  0.261184 -0.071397  0.045825
    11 y       0.171651 -0.298600  0.198179  0.080792  0.254583 -0.063833
    11 z       0.036943  0.170419  0.255289  0.025886 -0.074193 -0.263135
    12 x      -0.036744  0.013029  0.127426  0.261184 -0.071397  0.045825
    12 y      -0.016333  0.283313 -0.134993  0.080792  0.254583 -0.063833
    12 z       0.057649 -0.014362 -0.165716  0.025886 -0.074193 -0.263135


  Frequency      49.7148   71.0694   84.4688  113.2211  135.0499  154.9992
  IR Intensity    0.0031    0.0011    0.0054    0.0158    0.0080    0.0269
     in X         0.0003    0.0002    0.0011    0.0001    0.0015    0.0172
     in Y         0.0015    0.0000    0.0039    0.0151    0.0060    0.0050
     in Z         0.0013    0.0008    0.0004    0.0005    0.0004    0.0047
  Raman Intsty    0.0000    0.0000    0.0222    0.0080    0.0200    0.0013

     1 x      -0.090605 -0.041876  0.084826 -0.081233  0.139534 -0.159010
     1 y       0.106969  0.239124 -0.148479  0.067828 -0.203611  0.186722
     1 z      -0.018433 -0.051022  0.128752 -0.117790  0.031761  0.021024
     2 x      -0.021250  0.103022 -0.044952  0.014605  0.002389  0.028106
     2 y      -0.139575 -0.108066  0.059056 -0.102859  0.052105 -0.177770
     2 z      -0.017987  0.037274 -0.129347  0.048834 -0.065317  0.015264
     3 x       0.071837 -0.006238 -0.125462  0.099350 -0.115098 -0.086916
     3 y      -0.031817 -0.111697  0.186369  0.260387  0.306439  0.153479
     3 z      -0.053227  0.055277 -0.021135  0.026466  0.044476  0.093585
     4 x       0.038982  0.212711  0.103546 -0.028015  0.005786 -0.125308
     4 y      -0.070575 -0.120059 -0.045190 -0.115501  0.090129  0.123532
     4 z       0.057108  0.233232  0.044557  0.049970 -0.174080 -0.139614
     5 x      -0.018328  0.163709  0.116455 -0.167887  0.274563 -0.328296
     5 y       0.181885  0.490096 -0.068676 -0.081444  0.064470 -0.100263
     5 z      -0.374659  0.067386  0.332260 -0.116182 -0.229920 -0.065148
     6 x      -0.118151 -0.299408 -0.104006  0.196927 -0.435883  0.213315
     6 y       0.342873  0.141086 -0.126056  0.046639 -0.033894  0.052737
     6 z       0.646446 -0.423966  0.014949  0.039693  0.048948 -0.067938
     7 x      -0.158490 -0.019618 -0.185507  0.073954 -0.044751  0.154359
     7 y      -0.076502 -0.020428 -0.075962 -0.006180 -0.123235  0.053212
     7 z      -0.129788 -0.071841 -0.146930 -0.164567  0.305215  0.322894
     8 x       0.062258  0.068904 -0.114244  0.125116 -0.098837 -0.114349
     8 y      -0.019986  0.027448  0.085440  0.243303  0.118571  0.009753
     8 z      -0.008077 -0.027451  0.058875 -0.095197  0.152181 -0.052946
     9 x       0.304001 -0.024714  0.551305 -0.336850 -0.153502  0.269189
     9 y       0.035021 -0.203369 -0.297347 -0.594725 -0.208936 -0.117328
     9 z      -0.064779  0.029821 -0.184977 -0.073034 -0.041208 -0.005027
    10 x      -0.063741 -0.255180 -0.053858  0.096952  0.106604 -0.121368
    10 y      -0.085102 -0.159424  0.155985  0.097813  0.238298 -0.016423
    10 z       0.059877  0.195332 -0.015690  0.179023  0.001474  0.255805
    11 x      -0.021967  0.133860 -0.010266 -0.066369  0.037342  0.242104
    11 y      -0.190055 -0.095753 -0.081706 -0.110338 -0.053136 -0.102942
    11 z       0.034344 -0.065963 -0.095410  0.226551 -0.075408 -0.487313
    12 x       0.023124 -0.045694 -0.201436  0.067179  0.276712  0.069916
    12 y      -0.040790 -0.082669  0.337987  0.251892 -0.276892 -0.095838
    12 z      -0.113644  0.013964  0.018259  0.004373 -0.000216  0.084526


  Frequency     157.5368  176.3681  205.5717  216.9992  236.8316  244.0698
  IR Intensity    0.0070    0.0152    0.0062    0.0076    0.0370    0.0077
     in X         0.0000    0.0093    0.0000    0.0049    0.0244    0.0058
     in Y         0.0062    0.0001    0.0009    0.0025    0.0021    0.0005
     in Z         0.0008    0.0058    0.0053    0.0002    0.0105    0.0015
  Raman Intsty    0.0023    0.0001    0.0001    0.0193    0.0006    0.0515

     1 x       0.087292 -0.012116  0.106738  0.095914  0.146769  0.075286
     1 y       0.049880  0.134795 -0.039792  0.047365 -0.062959  0.088116
     1 z       0.013927  0.054756 -0.169656  0.203430 -0.055990  0.181407
     2 x       0.006255  0.103719  0.176779 -0.184763  0.114456  0.222660
     2 y       0.182990 -0.254896  0.101014  0.059128 -0.107620  0.057372
     2 z      -0.034171 -0.179763  0.080403 -0.023257 -0.038817 -0.134876
     3 x      -0.073277 -0.261146 -0.249162 -0.053398  0.170284 -0.138770
     3 y      -0.067185  0.128387  0.007096  0.026282 -0.001446 -0.123158
     3 z      -0.025738 -0.009756  0.263474 -0.207179 -0.148462  0.063320
     4 x      -0.070314  0.077715  0.057833  0.123335  0.010063  0.251033
     4 y       0.295564  0.021260 -0.005077 -0.064616  0.148608  0.001470
     4 z      -0.181942 -0.230917 -0.050260  0.478503 -0.304042  0.005105
     5 x       0.046514  0.012899  0.134664  0.076993  0.138767 -0.310800
     5 y      -0.007032  0.160913  0.035130  0.031202 -0.067164 -0.442094
     5 z       0.098442  0.125689 -0.429402 -0.395888 -0.033306 -0.212192
     6 x       0.142113  0.143035  0.205044  0.187932 -0.106265 -0.459966
     6 y      -0.003250  0.061062 -0.026396 -0.096961  0.037867  0.128388
     6 z      -0.062517 -0.044712 -0.058776 -0.136051  0.061313 -0.083160
     7 x      -0.013570  0.175301  0.024322  0.074069  0.097241  0.143250
     7 y       0.170569 -0.094774  0.050881  0.085699 -0.138492  0.063474
     7 z       0.010675  0.067525 -0.099922  0.288410  0.328315 -0.032402
     8 x       0.042949 -0.187878 -0.296291 -0.227296  0.031330  0.113026
     8 y       0.154227 -0.048022 -0.179736 -0.149782 -0.184717  0.143857
     8 z      -0.000579 -0.226803  0.183146 -0.097535  0.061947 -0.173054
     9 x       0.010029  0.222258  0.034252  0.021637 -0.144479  0.060804
     9 y       0.049102 -0.032559 -0.086654  0.024275  0.040434  0.026131
     9 z      -0.013369 -0.094456  0.200288 -0.211334 -0.103064  0.067268
    10 x      -0.221746  0.034329  0.100603 -0.056374 -0.408088  0.015811
    10 y       0.023994 -0.046706  0.060627 -0.013770 -0.200148 -0.022369
    10 z      -0.064461  0.057267  0.071800 -0.137553  0.223505 -0.087407
    11 x       0.074139 -0.321203  0.178882 -0.161745 -0.004475  0.104879
    11 y      -0.733978  0.237725  0.040058 -0.152859  0.086788  0.021295
    11 z       0.319296  0.472756  0.094876  0.046170  0.115397  0.155123
    12 x      -0.034268  0.045578 -0.480248  0.130956 -0.128296 -0.107716
    12 y      -0.146633 -0.268772  0.029757  0.178592  0.481815  0.053238
    12 z      -0.050750  0.034239 -0.119358  0.197459 -0.060177  0.229816


  Frequency     277.2062  281.8961  308.2683  316.7400  372.5917  385.6082
  IR Intensity    0.0489    0.0145    0.0180    0.0274    0.0019    0.0056
     in X         0.0106    0.0139    0.0000    0.0047    0.0002    0.0015
     in Y         0.0212    0.0005    0.0001    0.0002    0.0017    0.0013
     in Z         0.0170    0.0001    0.0179    0.0224    0.0000    0.0027
  Raman Intsty    0.0456    0.1861    0.0123    0.1614    0.3839    0.0152

     1 x      -0.081490  0.089724 -0.039512 -0.138796  0.255356 -0.027903
     1 y      -0.065323  0.170644  0.099406  0.038837  0.121163  0.006126
     1 z       0.292841  0.165368 -0.083415 -0.078489  0.043950 -0.069399
     2 x      -0.061635  0.058064  0.052641 -0.013234 -0.217649  0.123185
     2 y      -0.165271 -0.113585 -0.074687  0.064943 -0.227802  0.035511
     2 z      -0.094010 -0.144898 -0.135974 -0.246253  0.036318  0.219514
     3 x      -0.067329  0.071628 -0.066857  0.027106 -0.049774 -0.216452
     3 y      -0.166846  0.079016 -0.019623 -0.062652  0.002974  0.018657
     3 z       0.120526  0.002162 -0.060145  0.048779 -0.016877 -0.193472
     4 x      -0.081855  0.277802  0.292196  0.048589 -0.136215 -0.118005
     4 y       0.127078  0.275845 -0.204387 -0.359801  0.315741 -0.054689
     4 z      -0.238001 -0.026014  0.093236 -0.192573  0.188238 -0.071112
     5 x       0.130532 -0.136582 -0.133472 -0.127496  0.123949 -0.042971
     5 y       0.264566 -0.178987 -0.035347  0.142705 -0.167730  0.040787
     5 z      -0.298943 -0.081528  0.076548  0.011871  0.009287 -0.001329
     6 x       0.157678  0.166008  0.177390  0.028169 -0.053530  0.047256
     6 y      -0.266956  0.026444  0.077175  0.060296  0.246785  0.025392
     6 z      -0.059069 -0.158340 -0.023984  0.006558 -0.084467 -0.006509
     7 x      -0.135170 -0.507931 -0.204425  0.385845  0.403796 -0.059812
     7 y      -0.160062 -0.093496 -0.146171 -0.091401 -0.205862 -0.154027
     7 z      -0.025282 -0.263850  0.503168 -0.098934 -0.182042 -0.115975
     8 x       0.342739 -0.019687  0.211510 -0.019293  0.040223 -0.209207
     8 y       0.323784 -0.234066  0.297969 -0.119633  0.138438  0.303997
     8 z      -0.067482  0.339477  0.247854  0.467464  0.293895  0.319589
     9 x       0.037016 -0.093563 -0.057484  0.003094 -0.010202 -0.020295
     9 y       0.031664  0.001907  0.045604  0.044585  0.013371  0.075893
     9 z       0.157981  0.008961 -0.063067  0.086166 -0.030466 -0.326602
    10 x       0.035301 -0.127721  0.087509 -0.200684  0.129496  0.087939
    10 y      -0.031119  0.056956  0.033307  0.298302 -0.096028 -0.436597
    10 z      -0.048167  0.107354 -0.194918 -0.191086  0.010440 -0.119967
    11 x      -0.122160 -0.059594 -0.035906 -0.097181 -0.298192  0.319801
    11 y       0.031834  0.070802  0.000370 -0.119551 -0.068196  0.075296
    11 z      -0.108058  0.004809  0.008119 -0.017416 -0.183351  0.108974
    12 x      -0.113296  0.239804 -0.273294  0.127821 -0.184946  0.139685
    12 y       0.152816 -0.087557 -0.074591  0.095490 -0.052988  0.052100
    12 z       0.306463  0.042161 -0.313853  0.256798 -0.097072  0.264598


  Frequency     391.5629  450.3637  478.8746  510.6299  547.8168  574.3250
  IR Intensity    0.0327    0.0418    0.0342    0.0419    0.0021    0.1000
     in X         0.0024    0.0009    0.0146    0.0080    0.0000    0.0124
     in Y         0.0000    0.0118    0.0110    0.0000    0.0002    0.0724
     in Z         0.0302    0.0291    0.0086    0.0339    0.0019    0.0152
  Raman Intsty    0.9867    3.2626    0.0264    2.7850    0.0468    0.0040

     1 x      -0.183347  0.044301  0.221015 -0.077229 -0.002786 -0.037282
     1 y      -0.020701 -0.076244  0.181091 -0.104882 -0.004327 -0.007856
     1 z       0.510999 -0.240020  0.354677 -0.273460 -0.013012 -0.078835
     2 x       0.091912 -0.013847  0.076802  0.086247  0.157094  0.156283
     2 y      -0.066274 -0.190999  0.016623 -0.056096 -0.222023 -0.461664
     2 z      -0.048993 -0.136233 -0.087003 -0.091712 -0.220841 -0.162121
     3 x       0.046767 -0.138762 -0.044788 -0.241178 -0.161283  0.210449
     3 y       0.119548  0.042750  0.035779  0.149332  0.237188 -0.359678
     3 z      -0.124581  0.023742 -0.035205 -0.024417  0.104582 -0.088935
     4 x       0.049899  0.070128 -0.539981 -0.115518 -0.268893 -0.177865
     4 y      -0.004905 -0.142286 -0.420453  0.244158  0.091540  0.115821
     4 z      -0.036966 -0.091990 -0.070096  0.278010  0.242872  0.175215
     5 x      -0.139279  0.191034  0.168791 -0.074344  0.012524  0.099706
     5 y       0.160070 -0.105841 -0.119064  0.079601  0.007701 -0.042284
     5 z      -0.057554  0.024793 -0.021862  0.019868  0.018795  0.010212
     6 x      -0.112094 -0.029462  0.060837 -0.019563 -0.018137 -0.038116
     6 y      -0.342527  0.057613  0.293793 -0.123033 -0.042833 -0.064986
     6 z       0.058395  0.023982 -0.146334  0.075625  0.021523  0.038418
     7 x       0.245804 -0.118141 -0.173236  0.044749  0.002546 -0.043370
     7 y       0.316937  0.695835  0.023386 -0.054935  0.050972  0.172518
     7 z      -0.127569  0.044623  0.017661  0.002793  0.013856  0.013858
     8 x       0.051294  0.119128  0.177984  0.487248  0.046784 -0.323481
     8 y      -0.049846  0.020029 -0.147262 -0.309545 -0.033081  0.262749
     8 z       0.236098  0.185487 -0.013268  0.038641  0.032909  0.052765
     9 x      -0.078596  0.011767 -0.031785 -0.020300  0.047965 -0.022110
     9 y       0.015360  0.010531  0.012012  0.063056 -0.081495  0.041246
     9 z      -0.211630  0.000850 -0.129238 -0.323607  0.420535 -0.091133
    10 x       0.062614  0.115647  0.008701 -0.019295 -0.182918 -0.039315
    10 y      -0.092962 -0.253388  0.118617  0.182904 -0.226051  0.417296
    10 z       0.088057  0.129272  0.054420  0.035348 -0.448814  0.034391
    11 x       0.081060 -0.260592  0.117037  0.162753  0.132059  0.183828
    11 y       0.015420 -0.042286  0.020034  0.043005  0.045271  0.087203
    11 z       0.023857 -0.107755  0.036790  0.084467  0.076402  0.106316
    12 x      -0.107474  0.029554 -0.089868 -0.169078  0.236382 -0.031860
    12 y      -0.056361  0.027308 -0.059302 -0.111333  0.175062 -0.001459
    12 z      -0.374778  0.210804 -0.005091  0.253102 -0.224035  0.053069


  Frequency     618.7911  683.7839  713.7951  768.9539  797.1072  897.1339
  IR Intensity    0.0585    0.0831    0.0215    0.0115    0.0115    0.0005
     in X         0.0121    0.0707    0.0078    0.0009    0.0022    0.0003
     in Y         0.0018    0.0076    0.0083    0.0101    0.0013    0.0002
     in Z         0.0446    0.0048    0.0054    0.0006    0.0079    0.0000
  Raman Intsty    0.0005    0.1553    0.0057    0.0389    0.2548    0.9693

     1 x       0.140128  0.345049  0.594782  0.007257  0.180211 -0.100229
     1 y      -0.018428  0.021899 -0.076375 -0.644104  0.319089 -0.080236
     1 z      -0.080559 -0.056262 -0.040014  0.147716 -0.098560  0.037605
     2 x       0.204784  0.122147 -0.015743 -0.256111 -0.564823  0.373943
     2 y       0.349577 -0.020217 -0.191311 -0.050851 -0.050334  0.008042
     2 z      -0.508584 -0.050463  0.304135 -0.170975 -0.139749  0.285517
     3 x      -0.054489  0.492665 -0.276245  0.075583 -0.064031 -0.144441
     3 y      -0.216501  0.337273 -0.184207  0.037098  0.025216  0.039621
     3 z      -0.050834 -0.031706  0.053154 -0.116252 -0.357811 -0.699203
     4 x      -0.225483 -0.098888  0.000511  0.067988  0.061824 -0.019615
     4 y       0.042941 -0.048548 -0.070964  0.075446 -0.070986  0.017045
     4 z       0.179958  0.014474 -0.085639  0.019149 -0.079694  0.014767
     5 x      -0.204127 -0.248320 -0.413745 -0.200798  0.013321  0.010132
     5 y       0.143579  0.162048  0.262925  0.169739 -0.025142 -0.002562
     5 z       0.020704 -0.001197  0.011442 -0.000594  0.008261  0.000083
     6 x      -0.020227 -0.051113 -0.039694  0.121177 -0.061668  0.014524
     6 y      -0.106330 -0.149014 -0.075658  0.477519 -0.235923  0.046122
     6 z       0.043853  0.054846  0.027629 -0.170793  0.084850 -0.015752
     7 x      -0.023717 -0.068050 -0.038336  0.017408  0.027079 -0.012673
     7 y      -0.129023  0.026285  0.102087  0.073875  0.008976 -0.005826
     7 z       0.053775  0.003160 -0.010373  0.001664  0.003506 -0.012142
     8 x      -0.083856 -0.130187  0.061496 -0.006096  0.058216  0.051465
     8 y       0.060465  0.045457 -0.014539  0.014019 -0.018495 -0.022746
     8 z       0.061452 -0.018591 -0.021207  0.006895  0.038551  0.038528
     9 x       0.004315 -0.007403 -0.002551  0.009759  0.041599  0.049427
     9 y      -0.010839 -0.016592  0.016747 -0.019071 -0.053627 -0.068221
     9 z       0.087184  0.048588 -0.068230  0.108256  0.302644  0.383665
    10 x       0.233105 -0.079411 -0.039101  0.033470  0.078133  0.001524
    10 y      -0.159411 -0.151340  0.181021 -0.039741 -0.002732  0.163729
    10 z       0.411376 -0.184287 -0.036858  0.060959  0.139614  0.058206
    11 x      -0.140766 -0.107017 -0.063998  0.220579  0.362391 -0.189155
    11 y      -0.049632 -0.023734 -0.002694  0.060829  0.086933 -0.045506
    11 z      -0.032536 -0.040168 -0.045372  0.106307  0.162720 -0.089689
    12 x       0.114676 -0.353416  0.174599 -0.057011 -0.046275 -0.059673
    12 y       0.071631 -0.248474  0.139567 -0.028687 -0.039311 -0.043219
    12 z      -0.063146  0.288136 -0.149469  0.034403  0.049908  0.070485




--------------------------------------------------------------------------------
  Vibrational properties (for cluster):  Temperature  =       0.000 K
--------------------------------------------------------------------------------
  Zero point energy            =        0.695640 eV
--------------------------------------------------------------------------------

  Phonon density of states : 

--------------------------------------------------------------------------------
 Frequency (cm-1) Density of States                                             
--------------------------------------------------------------------------------
    0.00000 |************************************************************  0.062
   14.01772 |                                                              0.000
   28.03544 |                                                              0.000
   42.05316 |******************************                                0.031
   56.07087 |                                                              0.000
   70.08859 |******************************                                0.031
   84.10631 |******************************                                0.031
   98.12403 |                                                              0.000
  112.14175 |******************************                                0.031
  126.15947 |******************************                                0.031
  140.17719 |                                                              0.000
  154.19491 |************************************************************  0.062
  168.21262 |******************************                                0.031
  182.23034 |                                                              0.000
  196.24806 |******************************                                0.031
  210.26578 |******************************                                0.031
  224.28350 |******************************                                0.031
  238.30122 |******************************                                0.031
  252.31894 |                                                              0.000
  266.33665 |******************************                                0.031
  280.35437 |******************************                                0.031
  294.37209 |******************************                                0.031
  308.38981 |******************************                                0.031
  322.40753 |                                                              0.000
  336.42525 |                                                              0.000
  350.44297 |                                                              0.000
  364.46069 |******************************                                0.031
  378.47840 |************************************************************  0.062
  392.49612 |                                                              0.000
  406.51384 |                                                              0.000
  420.53156 |                                                              0.000
  434.54928 |                                                              0.000
  448.56700 |******************************                                0.031
  462.58472 |                                                              0.000
  476.60243 |******************************                                0.031
  490.62015 |                                                              0.000
  504.63787 |******************************                                0.031
  518.65559 |                                                              0.000
  532.67331 |                                                              0.000
  546.69103 |******************************                                0.031
  560.70875 |******************************                                0.031
  574.72647 |                                                              0.000
  588.74418 |                                                              0.000
  602.76190 |                                                              0.000
  616.77962 |******************************                                0.031
  630.79734 |                                                              0.000
  644.81506 |                                                              0.000
  658.83278 |                                                              0.000
  672.85050 |******************************                                0.031
  686.86821 |                                                              0.000
  700.88593 |******************************                                0.031
  714.90365 |                                                              0.000
  728.92137 |                                                              0.000
  742.93909 |                                                              0.000
  756.95681 |******************************                                0.031
  770.97453 |                                                              0.000
  784.99225 |******************************                                0.031
  799.00996 |                                                              0.000
  813.02768 |                                                              0.000
  827.04540 |                                                              0.000
  841.06312 |                                                              0.000
  855.08084 |                                                              0.000
  869.09856 |                                                              0.000
  883.11628 |******************************                                0.031
--------------------------------------------------------------------------------



  Time to end of optimisation =       0.0305 seconds


  Peak dynamic memory used =       0.65 MB 


  Timing analysis for GULP :

--------------------------------------------------------------------------------
  Task / Subroutine                                          Time (Seconds)
--------------------------------------------------------------------------------
  Calculation of real space energy and derivatives                0.0019
  Calculation of phonons                                          0.0017
  Calculation and manipulation of Hessian matrix                  0.0013
--------------------------------------------------------------------------------
  Total CPU time                                                  0.0305
--------------------------------------------------------------------------------


  Job Finished at 14:39.56 25th May        2022                               

