------------------------------------------------------------
          Invoking FHI-aims ...

          When using FHI-aims, please cite the following reference:

            Volker Blum, Ralf Gehrke, Felix Hanke, Paula Havu,
            Ville Havu, Xinguo Ren, Karsten Reuter, and Matthias Scheffler,
            'Ab Initio Molecular Simulations with Numeric Atom-Centered Orbitals',
            Computer Physics Communications 180, 2175-2196 (2009)

          In addition, many other developments in FHI-aims are likely important for
          your particular application. A partial list of references is given at the end of
          this file. Thank you for giving credit to the authors of these developments.

          For any questions about FHI-aims, please visit our slack channel at

            https://fhi-aims.slack.com

          and our main development and support site at

            https://aims-git.rz-berlin.mpg.de .

          The latter site, in particular, has a wiki to collect information, as well
          as an issue tracker to log discussions, suggest improvements, and report issues
          or bugs. https://aims-git.rz-berlin.mpg.de is also the main development site
          of the project and all new and updated code versions can be obtained there.
          Please send an email to aims-coordinators@fhi-berlin.mpg.de and we will add
          you to these sites. They are for you and everyone is welcome there.

------------------------------------------------------------



  Date     :  20220517, Time     :  121643.044
  Time zero on CPU 1             :   0.390420000000000E-01  s.
  Internal wall clock time zero  :           422021803.044  s.

  FHI-aims created a unique identifier for this run for later identification
  aims_uuid : CE9CA68E-415F-4E25-AB4A-1CC8235FEA98

  Build configuration of the current instance of FHI-aims
  -------------------------------------------------------
  FHI-aims version      : 210914
  Commit number         : GITDIR-NOTFOUND
  CMake host system     : Linux-3.10.0-693.17.1.el7.x86_64
  CMake version         : 3.21.1
  Fortran compiler      : /shared/ucl/apps/intel/2018.Update3/impi/2018.3.222/intel64/bin/mpiifort (Intel) version 18.0.3.20180410
  Fortran compiler flags: -O3 -ip -fp-model precise
  C compiler            : /shared/ucl/apps/intel/2018.Update3/compilers_and_libraries_2018.3.222/linux/bin/intel64/icc (Intel) version 18.0.3.20180410
  C compiler flags      : -O3 -ip -fp-model precise -std=gnu99
  ELPA2 kernel          : AVX2
  Using MPI
  Using ScaLAPACK
  Using LibXC
  Using i-PI
  Using RLSY
  Linking against: /shared/ucl/apps/intel/2019.Update5/compilers_and_libraries_2019.5.281/linux/mkl/lib/intel64/libmkl_intel_lp64.so
                   /shared/ucl/apps/intel/2019.Update5/compilers_and_libraries_2019.5.281/linux/mkl/lib/intel64/libmkl_sequential.so
                   /shared/ucl/apps/intel/2019.Update5/compilers_and_libraries_2019.5.281/linux/mkl/lib/intel64/libmkl_core.so
                   /shared/ucl/apps/intel/2019.Update5/compilers_and_libraries_2019.5.281/linux/mkl/lib/intel64/libmkl_blacs_intelmpi_lp64.so
                   /shared/ucl/apps/intel/2019.Update5/compilers_and_libraries_2019.5.281/linux/mkl/lib/intel64/libmkl_scalapack_lp64.so

  Using       24 parallel tasks.
  Task        0 on host node-k98a-025 reporting.
  Task        1 on host node-k98a-025 reporting.
  Task        2 on host node-k98a-025 reporting.
  Task        3 on host node-k98a-025 reporting.
  Task        4 on host node-k98a-025 reporting.
  Task        5 on host node-k98a-025 reporting.
  Task        6 on host node-k98a-025 reporting.
  Task        7 on host node-k98a-025 reporting.
  Task        8 on host node-k98a-025 reporting.
  Task        9 on host node-k98a-025 reporting.
  Task       10 on host node-k98a-025 reporting.
  Task       11 on host node-k98a-025 reporting.
  Task       12 on host node-k98a-025 reporting.
  Task       13 on host node-k98a-025 reporting.
  Task       14 on host node-k98a-025 reporting.
  Task       15 on host node-k98a-025 reporting.
  Task       16 on host node-k98a-025 reporting.
  Task       17 on host node-k98a-025 reporting.
  Task       18 on host node-k98a-025 reporting.
  Task       19 on host node-k98a-025 reporting.
  Task       20 on host node-k98a-025 reporting.
  Task       21 on host node-k98a-025 reporting.
  Task       22 on host node-k98a-025 reporting.
  Task       23 on host node-k98a-025 reporting.

  Performing system and environment tests:
  | Environment variable OMP_NUM_THREADS correctly set to 1.
  | Checking for ScaLAPACK...
  | Testing pdtran()...
  | All pdtran() tests passed.

  Obtaining array dimensions for all initial allocations:
  
  -----------------------------------------------------------------------
  Parsing control.in (first pass over file, find array dimensions only).
  The contents of control.in will be repeated verbatim below
  unless switched off by setting 'verbatim_writeout .false.' .
  in the first line of control.in .
  -----------------------------------------------------------------------
  
  #########################################################################################  Physical model
  #########################################################################################
  xc                 pbesol
  spin               none
  relativistic       atomic_zora scalar
  charge             0.0
  #  SCF convergence
  occupation_type    gaussian 0.01
  mixer              pulay
  n_max_pulay        10
  charge_mix_param   0.5
  sc_accuracy_rho    1E-5
  sc_accuracy_eev    1E-3
  sc_accuracy_etot   1E-6
  sc_accuracy_forces 1E-4
  sc_iter_limit      1500
  #  Relaxation
  #relax_geometry   bfgs 1.e-3
  
  ################################################################################
  #
  #  FHI-aims code project
  #  VB, Fritz-Haber Institut, 2009
  #
  #  Suggested "light" defaults for Al atom (to be pasted into control.in file)
  #  Be sure to double-check any results obtained with these settings for post-processing,
  #  e.g., with the "tight" defaults and larger basis sets.
  #
  ################################################################################
    species        Al
  #     global species definitions
      nucleus             13
      mass                26.9815386
  #
      l_hartree           4
  #
      cut_pot             3.5          1.5  1.0
      basis_dep_cutoff    1e-4
  #
      radial_base         41 5.0
      radial_multiplier   1
      angular_grids       specified
        division   0.6594  110
        division   0.8170  194
        division   0.9059  302
  #      division   1.0363  434
  #      division   1.1443  590
  #      division   1.2621  770
  #      division   2.8177  974
  #      outer_grid   974
        outer_grid   302
  ################################################################################
  #
  #  Definition of "minimal" basis
  #
  ################################################################################
  #     valence basis states
      valence      3  s   2.
      valence      3  p   1.
  #     ion occupancy
      ion_occ      3  s   1.
      ion_occ      2  p   6.
  ################################################################################
  #
  #  Suggested additional basis functions. For production calculations,
  #  uncomment them one after another (the most important basis functions are
  #  listed first).
  #
  #  Constructed for dimers: 2.0 A, 2.5 A, 3.0 A, 3.75 A, 4.5 A
  #
  ################################################################################
  #  "First tier" - improvements: -199.47 meV to -10.63 meV
       ionic 3 d auto
       ionic 3 p auto
  #     hydro 4 f 4.7
       ionic 3 s auto
  #  "Second tier" - improvements: -5.35 meV to -1.57 meV
  #     hydro 5 g 7
  #     hydro 3 d 6
  #     hydro 2 s 11.6
  #     hydro 2 p 0.9
  #  "Third tier" - improvements: -0.63 meV to -0.20 meV
  #     hydro 5 f 7.6
  #     hydro 4 p 7.2
  #     hydro 4 s 3.7
  #     hydro 4 d 7.6
  #  "Fourth tier" - improvements: -0.17 meV to -0.08 meV
  #     hydro 4 d 13.6
  #     hydro 5 g 11.2
  #     hydro 4 d 0.9
  #     hydro 1 s 0.4
  #     hydro 4 p 0.1
  #     hydro 5 f 9.8
  #  Further basis functions that fell out of the optimization - noise level...
  #     hydro 4 p 5
  
  ################################################################################
  #
  #  FHI-aims code project
  #  VB, Fritz-Haber Institut, 2009
  #
  #  Suggested "light" defaults for F atom (to be pasted into control.in file)
  #  Be sure to double-check any results obtained with these settings for post-processing,
  #  e.g., with the "tight" defaults and larger basis sets.
  #
  ################################################################################
    species        F
  #     global species definitions
      nucleus             9
      mass                18.9984032
  #
      l_hartree           4
  #
      cut_pot             3.5  1.5  1.0
      basis_dep_cutoff    1e-4
  #
      radial_base         37 5.0
      radial_multiplier   1
      angular_grids specified
        division   0.4014  110
        division   0.5291  194
        division   0.6019  302
  #      division   0.6814  434
  #      division   0.7989  590
  #      division   0.8965  770
  #      division   1.3427  974
  #      outer_grid   974
        outer_grid   302
  ################################################################################
  #
  #  Definition of "minimal" basis
  #
  ################################################################################
  #     valence basis states
      valence      2  s   2.
      valence      2  p   5.
  #     ion occupancy
      ion_occ      2  s   1.
      ion_occ      2  p   4.
  ################################################################################
  #
  #  Suggested additional basis functions. For production calculations,
  #  uncomment them one after another (the most important basis functions are
  #  listed first).
  #
  #  Constructed for dimers: 1.2 A, 1.418 A, 1.75 A, 2.25 A, 3.25 A
  #
  ################################################################################
  #  "First tier" - improvements: -149.44 meV to -45.88 meV
       hydro 2 p 1.7
       hydro 3 d 7.4
       hydro 3 s 6.8
  #  "Second tier" - improvements: -12.96 meV to -1.56 meV
  #     hydro 4 f 11.2
  #     ionic 2 p auto
  #     hydro 1 s 0.75
  #     hydro 4 d 8.8
  #     hydro 5 g 16.8
  #  "Third tier" - improvements: -0.58 meV to -0.05 meV
  #     hydro 3 p 6.2
  #     hydro 3 s 3.2
  #     hydro 4 f 9.6
  #     hydro 3 s 19.6
  #     hydro 4 d 8.6
  #     hydro 5 g 14.4
  # Further basis functions: -0.05 meV and below
  #     hydro 3 p 4.2
  
  -----------------------------------------------------------------------
  Completed first pass over input file control.in .
  -----------------------------------------------------------------------
  
  
  -----------------------------------------------------------------------
  Parsing geometry.in (first pass over file, find array dimensions only).
  The contents of geometry.in will be repeated verbatim below
  unless switched off by setting 'verbatim_writeout .false.' .
  in the first line of geometry.in .
  -----------------------------------------------------------------------
  
  atom -1.673252189 2.538795085 -1.209071606 Al
  atom -0.547515370 0.017708604 -2.372687756 Al
  atom -2.230564986 -0.324733112 -0.525863449 Al
  atom -0.526898080 3.366464311 -0.010907773 F
  atom -2.952861170 3.382641666 -2.218737519 F
  atom -1.171047088 -1.686208637 -1.534809754 F
  atom -2.781183280 1.451785110 -0.084082015 F
  atom -3.194647730 -1.339559346 0.625574964 F
  atom 0.656351090 -0.556015660 -3.600159200 F
  atom -0.497880293 1.916357122 -2.589570522 F
  atom -2.509189757 0.316511351 -2.382938028 F
  atom -0.397540363 0.480951980 -0.428057988 F
  
  -----------------------------------------------------------------------
  Completed first pass over input file geometry.in .
  -----------------------------------------------------------------------
  

  Basic array size parameters:
  | Number of species                 :        2
  | Number of atoms                   :       12
  | Max. basis fn. angular momentum   :        2
  | Max. atomic/ionic basis occupied n:        3
  | Max. number of basis fn. types    :        3
  | Max. radial fns per species/type  :        5
  | Max. logarithmic grid size        :     1340
  | Max. radial integration grid size :       41
  | Max. angular integration grid size:      302
  | Max. angular grid division number :        8
  | Radial grid for Hartree potential :     1340
  | Number of spin channels           :        1

------------------------------------------------------------
          Reading file control.in.
------------------------------------------------------------
  XC: Using PBEsol gradient-corrected functionals.
  Spin treatment: No spin polarisation.
  Scalar relativistic treatment of kinetic energy: on-site free-atom approximation to ZORA.
  Charge =   0.000000E+00: Neutral system requested explicitly.
  Occupation type: Gaussian broadening, width =   0.100000E-01 eV.
  Using pulay charge density mixing.
  Pulay mixing - number of memorized iterations:   10
  Charge density mixing - mixing parameter:     0.5000
  Convergence accuracy of self-consistent charge density:  0.1000E-04
  Convergence accuracy of sum of eigenvalues:  0.1000E-02
  Convergence accuracy of total energy:  0.1000E-05
  Convergence accuracy of forces:  0.1000E-03
  Maximum number of s.-c. iterations  :  1500
 
  Reading configuration options for species Al                  .
  | Found nuclear charge :  13.0000
  | Found atomic mass :    26.9815386000000      amu
  | Found l_max for Hartree potential  :   4
  | Found cutoff potl. onset [A], width [A], scale factor :    3.50000    1.50000    1.00000
  | Threshold for basis-dependent cutoff potential is   0.100000E-03
  | Found data for basic radial integration grid :    41 points, outermost radius =    5.000 A
  | Found multiplier for basic radial grid :   1
  | Found angular grid specification: user-specified.
  | Specified grid contains     4 separate shells.
  | Check grid settings after all constraints further below.
  | Found free-atom valence shell :  3 s   2.000
  | Found free-atom valence shell :  3 p   1.000
  | Found free-ion valence shell :  3 s   1.000
  | Found free-ion valence shell :  2 p   6.000
  | Found ionic basis function :  3 d , default cutoff radius.
  | Found ionic basis function :  3 p , default cutoff radius.
  | Found ionic basis function :  3 s , default cutoff radius.
  Species Al                  : Missing cutoff potential type.
  Defaulting to exp(1/x)/(1-x)^2 type cutoff potential.
  Species Al: No 'logarithmic' tag. Using default grid for free atom:
  | Default logarithmic grid data [bohr] : 0.1000E-03 0.1000E+03 0.1012E+01
  | Will include ionic basis functions of  2.0-fold positive Al                   ion.
  Species Al: On-site basis accuracy parameter (for Gram-Schmidt orthonormalisation) not specified.
  Using default value basis_acc =  0.1000000E-03.
  Species Al                  : Using default innermost maximum threshold i_radial=  2 for radial functions.
  Species Al                  : Default cutoff onset for free atom density etc. : 0.35000000E+01 AA.
  Species Al                  : Basic radial grid will be enhanced according to radial_multiplier =   1, to contain    41 grid points.
 
  Reading configuration options for species F                   .
  | Found nuclear charge :   9.0000
  | Found atomic mass :    18.9984032000000      amu
  | Found l_max for Hartree potential  :   4
  | Found cutoff potl. onset [A], width [A], scale factor :    3.50000    1.50000    1.00000
  | Threshold for basis-dependent cutoff potential is   0.100000E-03
  | Found data for basic radial integration grid :    37 points, outermost radius =    5.000 A
  | Found multiplier for basic radial grid :   1
  | Found angular grid specification: user-specified.
  | Specified grid contains     4 separate shells.
  | Check grid settings after all constraints further below.
  | Found free-atom valence shell :  2 s   2.000
  | Found free-atom valence shell :  2 p   5.000
  | Found free-ion valence shell :  2 s   1.000
  | Found free-ion valence shell :  2 p   4.000
  | Found hydrogenic basis function :  2 p   1.700
  | Found hydrogenic basis function :  3 d   7.400
  | Found hydrogenic basis function :  3 s   6.800
  Species F                   : Missing cutoff potential type.
  Defaulting to exp(1/x)/(1-x)^2 type cutoff potential.
  Species F : No 'logarithmic' tag. Using default grid for free atom:
  | Default logarithmic grid data [bohr] : 0.1000E-03 0.1000E+03 0.1012E+01
  Species F : On-site basis accuracy parameter (for Gram-Schmidt orthonormalisation) not specified.
  Using default value basis_acc =  0.1000000E-03.
  Species F                   : Using default innermost maximum threshold i_radial=  2 for radial functions.
  Species F                   : Default cutoff onset for free atom density etc. : 0.35000000E+01 AA.
  Species F                   : Basic radial grid will be enhanced according to radial_multiplier =   1, to contain    37 grid points.
 
  Finished reading input file 'control.in'.
 
------------------------------------------------------------


------------------------------------------------------------
          Reading geometry description geometry.in.
------------------------------------------------------------
  | The smallest distance between any two atoms is         1.81249503 AA.
  | The first atom of this pair is atom number                      3 .
  | The second atom of this pair is atom number                     8 .
  Input structure read successfully.
  The structure contains       12 atoms,  and a total of        120.000 electrons.

  Input geometry:
  | No unit cell requested.
  | Atomic structure:
  |       Atom                x [A]            y [A]            z [A]
  |    1: Species Al           -1.67325219        2.53879508       -1.20907161
  |    2: Species Al           -0.54751537        0.01770860       -2.37268776
  |    3: Species Al           -2.23056499       -0.32473311       -0.52586345
  |    4: Species F            -0.52689808        3.36646431       -0.01090777
  |    5: Species F            -2.95286117        3.38264167       -2.21873752
  |    6: Species F            -1.17104709       -1.68620864       -1.53480975
  |    7: Species F            -2.78118328        1.45178511       -0.08408201
  |    8: Species F            -3.19464773       -1.33955935        0.62557496
  |    9: Species F             0.65635109       -0.55601566       -3.60015920
  |   10: Species F            -0.49788029        1.91635712       -2.58957052
  |   11: Species F            -2.50918976        0.31651135       -2.38293803
  |   12: Species F            -0.39754036        0.48095198       -0.42805799

 
  Finished reading input file 'control.in'.
 

------------------------------------------------------------
          Reading geometry description geometry.in.
------------------------------------------------------------
 
  Consistency checks for stacksize environment parameter are next.
 
  | Maximum stacksize for task 0: unlimited
  | Maximum stacksize for task 1: unlimited
  | Maximum stacksize for task 2: unlimited
  | Maximum stacksize for task 3: unlimited
  | Maximum stacksize for task 4: unlimited
  | Maximum stacksize for task 5: unlimited
  | Maximum stacksize for task 6: unlimited
  | Maximum stacksize for task 7: unlimited
  | Maximum stacksize for task 8: unlimited
  | Maximum stacksize for task 9: unlimited
  | Maximum stacksize for task 10: unlimited
  | Maximum stacksize for task 11: unlimited
  | Maximum stacksize for task 12: unlimited
  | Maximum stacksize for task 13: unlimited
  | Maximum stacksize for task 14: unlimited
  | Maximum stacksize for task 15: unlimited
  | Maximum stacksize for task 16: unlimited
  | Maximum stacksize for task 17: unlimited
  | Maximum stacksize for task 18: unlimited
  | Maximum stacksize for task 19: unlimited
  | Maximum stacksize for task 20: unlimited
  | Maximum stacksize for task 21: unlimited
  | Maximum stacksize for task 22: unlimited
  | Maximum stacksize for task 23: unlimited
  | Current stacksize for task 0: unlimited
  | Current stacksize for task 1: unlimited
  | Current stacksize for task 2: unlimited
  | Current stacksize for task 3: unlimited
  | Current stacksize for task 4: unlimited
  | Current stacksize for task 5: unlimited
  | Current stacksize for task 6: unlimited
  | Current stacksize for task 7: unlimited
  | Current stacksize for task 8: unlimited
  | Current stacksize for task 9: unlimited
  | Current stacksize for task 10: unlimited
  | Current stacksize for task 11: unlimited
  | Current stacksize for task 12: unlimited
  | Current stacksize for task 13: unlimited
  | Current stacksize for task 14: unlimited
  | Current stacksize for task 15: unlimited
  | Current stacksize for task 16: unlimited
  | Current stacksize for task 17: unlimited
  | Current stacksize for task 18: unlimited
  | Current stacksize for task 19: unlimited
  | Current stacksize for task 20: unlimited
  | Current stacksize for task 21: unlimited
  | Current stacksize for task 22: unlimited
  | Current stacksize for task 23: unlimited
 
  Consistency checks for the contents of control.in are next.
 
  MPI_IN_PLACE appears to work with this MPI implementation.
  | Keeping use_mpi_in_place .true. (see manual).
  Target number of points in a grid batch is not set. Defaulting to  100
  Method for grid partitioning is not set. Defaulting to parallel hash+maxmin partitioning.
  Batch size limit is not set. Defaulting to    200
  By default, will store active basis functions for each batch.
  If in need of memory, prune_basis_once .false. can be used to disable this option.
  communication_type for Hartree potential was not specified.
  Defaulting to calc_hartree .
  Pulay mixer: Number of initial linear mixing iterations not set.
  Defaulting to    0 iterations.
  Work space size for distributed Hartree potential not set.
  Defaulting to   0.200000E+03 MB.
  Algorithm-dependent basis array size parameters:
  | n_max_pulay                         :       10
  Presetting      1001 iterations before the initial mixing cycle
  is restarted anyway using the sc_init_iter criterion / keyword.
  Presetting a factor      1.000 between actual scf density residual
  and density convergence criterion sc_accuracy_rho below which sc_init_iter
  takes no effect.
  Geometry relaxation not requested: no relaxation will be performed.
  Forces evaluation will include force correction term due to incomplete self-consistency (default).
  Handling of forces: Unphysical translation and rotation will be removed from forces.
  No accuracy limit for integral partition fn. given. Defaulting to  0.1000E-14.
  No threshold value for u(r) in integrations given. Defaulting to  0.1000E-05.
  No accuracy for occupation numbers given. Defaulting to  0.1000E-12.
  No threshold value for occupation numbers given. Defaulting to  0.0000E+00.
  No accuracy for fermi level given. Defaulting to  0.1000E-19.
  Maximum # of iterations to find E_F not set. Defaulting to  200.
  Preferred method for the eigenvalue solver ('KS_method') not specified in 'control.in'.
  Calling BLACS routine to test compilation state
  Since ScaLAPACK support is enabled, defaulting to ELPA (via ELSI).
  Will not use alltoall communication since running on < 1024 CPUs.
  Threshold for basis singularities not set.
  Default threshold for basis singularities:  0.1000E-04
  partition_type (choice of integration weights) for integrals was not specified.
  | Using a version of the partition function of Stratmann and coworkers ('stratmann_sparse').
  | At each grid point, the set of atoms used to build the partition table is smoothly restricted to
  | only those atoms whose free-atom density would be non-zero at that grid point.
  Partitioning for Hartree potential was not defined. Using partition_type for integrals.
  | Adjusted default value of keyword multip_moments_threshold to:       0.10000000E-11
  | This value may affect high angular momentum components of the Hartree potential in periodic systems.
  No q(lm)/r^(l+1) cutoff set for long-range Hartree potential.
  | Using default value of  0.100000E-09 .
  | Verify using the multipole_threshold keyword.
  Defaulting to new monopole extrapolation.
  Density update method: automatic selection selected.
  Charge integration errors on the 3D integration grid will be compensated
  by explicit normalization and distribution of residual charges.
  Use the "compensate_multipole_errors" flag to change this behaviour.
  Set 'collect_eigenvectors' to be '.true.' for use_density_matrix .false.
 
  Consistency checks for the contents of geometry.in are next.
 
  Number of empty states per atom not set in control.in - providing a guess from actual geometry.
  | Total number of empty states used during s.c.f. cycle:       36
  If you use a very high smearing, use empty_states (per atom!) in control.in to increase this value.

  Structure-dependent array size parameters: 
  | Maximum number of distinct radial functions  :       14
  | Maximum number of basis functions            :      180
  | Number of Kohn-Sham states (occupied + empty):       96
------------------------------------------------------------

------------------------------------------------------------
          Preparing all fixed parts of the calculation.
------------------------------------------------------------
  Determining machine precision:
    2.225073858507201E-308
  Setting up grids for atomic and cluster calculations.

  Creating wave function, potential, and density for free atoms.

  Species: Al

  List of occupied orbitals and eigenvalues:
    n    l              occ      energy [Ha]    energy [eV]
    1    0           2.0000       -55.621123     -1513.5278
    2    0           2.0000        -3.957030      -107.6763
    3    0           2.0000        -0.272233        -7.4078
    2    1           6.0000        -2.540949       -69.1427
    3    1           1.0000        -0.083300        -2.2667


  Species: F

  List of occupied orbitals and eigenvalues:
    n    l              occ      energy [Ha]    energy [eV]
    1    0           2.0000       -24.399611      -663.9472
    2    0           2.0000        -1.098702       -29.8972
    2    1           5.0000        -0.408210       -11.1080


  Adding cutoff potential to free-atom effective potential.
  Creating fixed part of basis set: Ionic, confined, hydrogenic.
 
  Al                   ion:

  List of free ionic orbitals and eigenvalues:
    n    l      energy [Ha]    energy [eV]
    1    0       -56.418846     -1535.2349
    2    0        -4.732717      -128.7838
    3    0        -0.872690       -23.7471
    2    1        -3.317230       -90.2664


  List of ionic basis orbitals and eigenvalues:
    n    l      energy [Ha]    energy [eV]    outer radius [A]
    3    2        -0.346815        -9.4373       4.594041
    3    1        -0.631870       -17.1940       4.538221
    3    0        -0.872657       -23.7462       4.538221

 
  F                    hydrogenic:
 
  List of hydrogenic basis orbitals: 
    n    l      effective z      eigenvalue [eV]  inner max. [A]     outer max. [A]     outer radius [A]   
    2    1         1.700000        -9.7616           1.243167           1.243167           4.598524
    3    2         7.400000       -82.7828           0.642437           0.642437           3.305741
    3    0         6.800000       -69.9026           0.057798           1.022307           3.781556
 
  Creating atomic-like basis functions for current effective potential.

  Species Al                  :

  List of atomic basis orbitals and eigenvalues:
    n    l      energy [Ha]    energy [eV]    outer radius [A]
    1    0       -55.621123     -1513.5278       0.850197
    2    0        -3.957030      -107.6763       3.144911
    3    0        -0.272233        -7.4078       4.594041
    2    1        -2.540949       -69.1427       3.731966
    3    1        -0.083300        -2.2667       4.594041


  Species F                   :

  List of atomic basis orbitals and eigenvalues:
    n    l      energy [Ha]    energy [eV]    outer radius [A]
    1    0       -24.399611      -663.9472       1.258458
    2    0        -1.098702       -29.8972       4.325857
    2    1        -0.408210       -11.1080       4.487453

  Assembling full basis from fixed parts.
  | Species Al :   atomic orbital   1 s accepted.
  | Species Al :   atomic orbital   2 s accepted.
  | Species Al :    ionic orbital   3 s accepted.
  | Species Al :   atomic orbital   3 s accepted.
  | Species Al :   atomic orbital   2 p accepted.
  | Species Al :    ionic orbital   3 p accepted.
  | Species Al :   atomic orbital   3 p accepted.
  | Species Al :    ionic orbital   3 d accepted.
  | Species F :   atomic orbital   1 s accepted.
  | Species F :    hydro orbital   3 s accepted.
  | Species F :   atomic orbital   2 s accepted.
  | Species F :   atomic orbital   2 p accepted.
  | Species F :    hydro orbital   2 p accepted.
  | Species F :    hydro orbital   3 d accepted.
 
  Basis size parameters after reduction:
  | Total number of radial functions:       14
  | Total number of basis functions :      180
 
  Per-task memory consumption for arrays in subroutine allocate_ext:
  |           4.807768MB.
  Testing on-site integration grid accuracy.
  |  Species  Function  <phi|h_atom|phi> (log., in eV)  <phi|h_atom|phi> (rad., in eV)
           1        1              -1513.5277717935              -1513.5271881332
           1        2               -107.6762691836               -107.6762662489
           1        3                 -6.9467474784                 -6.9471269649
           1        4                  5.5771951849                  5.4862107220 ***
           1        5                -69.1427313144                -69.1427312731
           1        6                 -1.5197375330                 -1.5230432022
           1        7                  6.8210948310                  6.5529872240 ***
           1        8                  4.3216540965                  4.2851170187 ***
           2        9               -663.9471986398               -663.9470363334
           2       10                 16.8514011578                 16.8512525338
           2       11                -28.4490593856                -28.4490661472
           2       12                -11.1080115307                -11.1080620173
           2       13                  7.1940182175                  7.1685154137
           2       14                 44.8544281765                 44.8543763625
 * Note: Onsite integrals marked "***" above are less accurate than
 * onsite_accuracy_threshold =    0.03000 eV. Usually, this is harmless.
 * When in doubt, tighten the "radial" and/or "radial_multiplier" flags to check.

  Preparing densities etc. for the partition functions (integrals / Hartree potential).

  Preparations completed.
  max(cpu_time)          :      0.185 s.
  Wall clock time (cpu1) :      0.185 s.
------------------------------------------------------------

------------------------------------------------------------
          Begin self-consistency loop: Initialization.

          Date     :  20220517, Time     :  121645.143
------------------------------------------------------------

  Initializing index lists of integration centers etc. from given atomic structure:
  | Number of centers in hartree potential         :        12
  | Number of centers in hartree multipole         :        12
  | Number of centers in electron density summation:        12
  | Number of centers in basis integrals           :        12
  | Number of centers in integrals                 :        12
  | Number of centers in hamiltonian               :        12
  * Using 24 tasks for Scalapack Eigenvalue solver.
  Detailed listing of tasks and assigned k-points:
  (for non-periodic systems, the "k-point" denotes an internal label only)
   Task     0 k-point     1 on node-k98a-025
   Task     1 k-point     1 on node-k98a-025
   Task     2 k-point     1 on node-k98a-025
   Task     3 k-point     1 on node-k98a-025
   Task     4 k-point     1 on node-k98a-025
   Task     5 k-point     1 on node-k98a-025
   Task     6 k-point     1 on node-k98a-025
   Task     7 k-point     1 on node-k98a-025
   Task     8 k-point     1 on node-k98a-025
   Task     9 k-point     1 on node-k98a-025
   Task    10 k-point     1 on node-k98a-025
   Task    11 k-point     1 on node-k98a-025
   Task    12 k-point     1 on node-k98a-025
   Task    13 k-point     1 on node-k98a-025
   Task    14 k-point     1 on node-k98a-025
   Task    15 k-point     1 on node-k98a-025
   Task    16 k-point     1 on node-k98a-025
   Task    17 k-point     1 on node-k98a-025
   Task    18 k-point     1 on node-k98a-025
   Task    19 k-point     1 on node-k98a-025
   Task    20 k-point     1 on node-k98a-025
   Task    21 k-point     1 on node-k98a-025
   Task    22 k-point     1 on node-k98a-025
   Task    23 k-point     1 on node-k98a-025
  Tasks:    24 split into      6 X      4 BLACS grid
  Calculating block size based on n_basis =          180  max_nprow =            6  max_npcol =            4
  ScaLAPACK block size set to:           16
  Allocating        0.012 MB for ovlp
  Allocating        0.012 MB for ham
  Allocating        0.012 MB for eigenvec
  Required Scalapack workspace - INTEGER:            1  REAL:             1
  Partitioning the integration grid into batches with parallel hashing+maxmin method.
  | Number of batches:     1081
  | Maximal batch size:     200
  | Minimal batch size:      58
  | Average batch size:      85.032
  | Standard deviation of batch sizes:      20.781

  Integration load balanced across    24 MPI tasks.
  Work distribution over tasks is as follows:
  Task     0 has       3868 integration points.
  Task     1 has       3806 integration points.
  Task     2 has       3862 integration points.
  Task     3 has       3752 integration points.
  Task     4 has       3776 integration points.
  Task     5 has       3806 integration points.
  Task     6 has       3869 integration points.
  Task     7 has       3799 integration points.
  Task     8 has       3864 integration points.
  Task     9 has       3793 integration points.
  Task    10 has       3753 integration points.
  Task    11 has       3862 integration points.
  Task    12 has       3865 integration points.
  Task    13 has       3886 integration points.
  Task    14 has       3864 integration points.
  Task    15 has       3855 integration points.
  Task    16 has       3787 integration points.
  Task    17 has       3810 integration points.
  Task    18 has       3768 integration points.
  Task    19 has       3757 integration points.
  Task    20 has       3879 integration points.
  Task    21 has       3869 integration points.
  Task    22 has       3896 integration points.
  Task    23 has       3874 integration points.
  Initializing partition tables, free-atom densities, potentials, etc. across the integration grid (initialize_grid_storage).
  | initialize_grid_storage: Actual outermost partition radius vs. multipole_radius_free
  | (-- VB: in principle, multipole_radius_free should be larger, hence this output)
  | Species        1: Confinement radius =              4.999999999999999 AA, multipole_radius_free =              5.004487022111096 AA.
  | Species        1: outer_partition_radius set to              5.004487022111096 AA .
  | Species        2: Confinement radius =              4.999999999999999 AA, multipole_radius_free =              5.009370088163274 AA.
  | Species        2: outer_partition_radius set to              5.009370088163274 AA .
  | The sparse table of interatomic distances needs          1.64 kbyte instead of         1.15 kbyte of memory.
  | Using the partition_type stratmann_smoother will reduce your memory usage.
  | Net number of integration points:    91920
  | of which are non-zero points    :    85037
  Renormalizing the initial density to the exact electron count on the 3D integration grid.
  | Initial density: Formal number of electrons (from input files) :     120.0000000000
  | Integrated number of electrons on 3D grid     :     120.0000136266
  | Charge integration error                      :       0.0000136266
  | Normalization factor for density and gradient :       0.9999998864
  Renormalizing the free-atom superposition density to the exact electron count on the 3D integration grid.
  | Formal number of electrons (from input files) :     120.0000000000
  | Integrated number of electrons on 3D grid     :     120.0000136266
  | Charge integration error                      :       0.0000136266
  | Normalization factor for density and gradient :       0.9999998864
  Obtaining max. number of non-zero basis functions in each batch (get_n_compute_maxes).
  | Maximal number of non-zero basis functions:      169 in task     0
  | Maximal number of non-zero basis functions:      167 in task     1
  | Maximal number of non-zero basis functions:      165 in task     2
  | Maximal number of non-zero basis functions:      172 in task     3
  | Maximal number of non-zero basis functions:      169 in task     4
  | Maximal number of non-zero basis functions:      165 in task     5
  | Maximal number of non-zero basis functions:      169 in task     6
  | Maximal number of non-zero basis functions:      163 in task     7
  | Maximal number of non-zero basis functions:      166 in task     8
  | Maximal number of non-zero basis functions:      167 in task     9
  | Maximal number of non-zero basis functions:      172 in task    10
  | Maximal number of non-zero basis functions:      163 in task    11
  | Maximal number of non-zero basis functions:      166 in task    12
  | Maximal number of non-zero basis functions:      172 in task    13
  | Maximal number of non-zero basis functions:      171 in task    14
  | Maximal number of non-zero basis functions:      166 in task    15
  | Maximal number of non-zero basis functions:      164 in task    16
  | Maximal number of non-zero basis functions:      169 in task    17
  | Maximal number of non-zero basis functions:      165 in task    18
  | Maximal number of non-zero basis functions:      166 in task    19
  | Maximal number of non-zero basis functions:      165 in task    20
  | Maximal number of non-zero basis functions:      170 in task    21
  | Maximal number of non-zero basis functions:      171 in task    22
  | Maximal number of non-zero basis functions:      171 in task    23
  Selecting the method for density update.
  Loop over occupied states selected for charge density update.
  Allocating        0.132 MB for KS_eigenvector
  Integrating Hamiltonian matrix: batch-based integration.
  Time summed over all CPUs for integration: real work        0.764 s, elapsed        0.822 s
  Integrating overlap matrix.
  Time summed over all CPUs for integration: real work        0.293 s, elapsed        0.317 s
  Deallocating overlap matrix.

  Updating Kohn-Sham eigenvalues and eigenvectors using ELSI and the ELPA eigensolver.
  Overlap matrix is not singular
  | Lowest and highest eigenvalues :  0.2331E-02,  0.5774E+01
  Finished singularity check of overlap matrix
  | Time :     0.004 s
  Starting ELPA eigensolver
  Finished Cholesky decomposition
  | Time :     0.003 s
  Finished transformation to standard eigenproblem
  | Time :     0.001 s
  Finished solving standard eigenproblem
  | Time :     0.003 s
  Finished back-transformation of eigenvectors
  | Time :     0.001 s

  Obtaining occupation numbers and chemical potential using ELSI.
  | Chemical potential (Fermi level):    -7.65332926 eV
  Writing Kohn-Sham eigenvalues.

  State    Occupation    Eigenvalue [Ha]    Eigenvalue [eV]
      1       2.00000         -55.486603        -1509.86730
      2       2.00000         -55.486603        -1509.86729
      3       2.00000         -55.483316        -1509.77785
      4       2.00000         -24.359671         -662.86038
      5       2.00000         -24.359671         -662.86038
      6       2.00000         -24.351149         -662.62848
      7       2.00000         -24.349503         -662.58369
      8       2.00000         -24.346495         -662.50185
      9       2.00000         -24.340982         -662.35183
     10       2.00000         -24.340982         -662.35182
     11       2.00000         -24.338367         -662.28067
     12       2.00000         -24.336443         -662.22830
     13       2.00000          -3.952210         -107.54510
     14       2.00000          -3.952093         -107.54193
     15       2.00000          -3.948208         -107.43621
     16       2.00000          -2.546309          -69.28859
     17       2.00000          -2.545296          -69.26103
     18       2.00000          -2.543827          -69.22106
     19       2.00000          -2.543645          -69.21609
     20       2.00000          -2.542453          -69.18367
     21       2.00000          -2.542333          -69.18041
     22       2.00000          -2.540452          -69.12922
     23       2.00000          -2.539850          -69.11284
     24       2.00000          -2.539780          -69.11093
     25       2.00000          -1.188831          -32.34975
     26       2.00000          -1.178911          -32.07981
     27       2.00000          -1.170580          -31.85311
     28       2.00000          -1.165852          -31.72445
     29       2.00000          -1.156087          -31.45873
     30       2.00000          -1.149607          -31.28241
     31       2.00000          -1.149081          -31.26809
     32       2.00000          -1.146003          -31.18434
     33       2.00000          -1.142815          -31.09759
     34       2.00000          -0.564122          -15.35054
     35       2.00000          -0.546259          -14.86446
     36       2.00000          -0.543476          -14.78875
     37       2.00000          -0.523364          -14.24145
     38       2.00000          -0.514970          -14.01305
     39       2.00000          -0.507928          -13.82141
     40       2.00000          -0.503766          -13.70817
     41       2.00000          -0.502458          -13.67257
     42       2.00000          -0.495117          -13.47283
     43       2.00000          -0.493529          -13.42959
     44       2.00000          -0.483761          -13.16381
     45       2.00000          -0.479593          -13.05039
     46       2.00000          -0.475812          -12.94750
     47       2.00000          -0.470658          -12.80727
     48       2.00000          -0.470358          -12.79908
     49       2.00000          -0.465182          -12.65826
     50       2.00000          -0.462791          -12.59318
     51       2.00000          -0.457662          -12.45360
     52       2.00000          -0.452727          -12.31932
     53       2.00000          -0.451558          -12.28752
     54       2.00000          -0.451410          -12.28350
     55       2.00000          -0.449367          -12.22790
     56       2.00000          -0.447806          -12.18543
     57       2.00000          -0.446967          -12.16259
     58       2.00000          -0.446111          -12.13930
     59       2.00000          -0.443753          -12.07513
     60       2.00000          -0.440328          -11.98194
     61       0.00000          -0.144827           -3.94093
     62       0.00000          -0.087599           -2.38369
     63       0.00000          -0.080997           -2.20403
     64       0.00000          -0.031566           -0.85894
     65       0.00000          -0.021465           -0.58410
     66       0.00000           0.003543            0.09642
     67       0.00000           0.022234            0.60501
     68       0.00000           0.026041            0.70861
     69       0.00000           0.055622            1.51356
     70       0.00000           0.056700            1.54290
     71       0.00000           0.093154            2.53484
     72       0.00000           0.122998            3.34694
     73       0.00000           0.138262            3.76231
     74       0.00000           0.166163            4.52153
     75       0.00000           0.169417            4.61006
     76       0.00000           0.173815            4.72975
     77       0.00000           0.183559            4.99490
     78       0.00000           0.190978            5.19677
     79       0.00000           0.212164            5.77328
     80       0.00000           0.223508            6.08196
     81       0.00000           0.229151            6.23553
     82       0.00000           0.232296            6.32109
     83       0.00000           0.236518            6.43599
     84       0.00000           0.237825            6.47154
     85       0.00000           0.257238            6.99980
     86       0.00000           0.261563            7.11750
     87       0.00000           0.262550            7.14435
     88       0.00000           0.267438            7.27736
     89       0.00000           0.275064            7.48488
     90       0.00000           0.296704            8.07372
     91       0.00000           0.309241            8.41488
     92       0.00000           0.334566            9.10401
     93       0.00000           0.353931            9.63094
     94       0.00000           0.361049            9.82465
     95       0.00000           0.372617           10.13944
     96       0.00000           0.373354           10.15948

  Highest occupied state (VBM) at    -11.98193842 eV
  | Occupation number:      2.00000000

  Lowest unoccupied state (CBM) at    -3.94093104 eV
  | Occupation number:      0.00000000

  Overall HOMO-LUMO gap:      8.04100738 eV.
  Calculating total energy contributions from superposition of free atom densities.

  Total energy components:
  | Sum of eigenvalues            :        -887.50969176 Ha      -24150.36746983 eV
  | XC energy correction          :        -144.39226457 Ha       -3929.11342992 eV
  | XC potential correction       :         188.00970490 Ha        5116.00436964 eV
  | Free-atom electrostatic energy:        -781.44051225 Ha      -21264.07824261 eV
  | Hartree energy correction     :           0.00000000 Ha           0.00000000 eV
  | Entropy correction            :           0.00000000 Ha           0.00000000 eV
  | ---------------------------
  | Total energy                  :       -1625.33276367 Ha      -44227.55477272 eV
  | Total energy, T -> 0          :       -1625.33276367 Ha      -44227.55477272 eV  <-- do not rely on this value for anything but (periodic) metals
  | Electronic free energy        :       -1625.33276367 Ha      -44227.55477272 eV

  Derived energy quantities:
  | Kinetic energy                :        1627.74501560 Ha       44293.19548745 eV
  | Electrostatic energy          :       -3108.68551471 Ha      -84591.63683025 eV
  | Energy correction for multipole
  | error in Hartree potential    :           0.00000000 Ha           0.00000000 eV
  | Sum of eigenvalues per atom                           :       -2012.53062249 eV
  | Total energy (T->0) per atom                          :       -3685.62956439 eV  <-- do not rely on this value for anything but (periodic) metals
  | Electronic free energy per atom                       :       -3685.62956439 eV
  Initialize hartree_potential_storage
  Max. number of atoms included in rho_multipole:           12

  End scf initialization - timings             :  max(cpu_time)    wall_clock(cpu1)
  | Time for scf. initialization                :        0.121 s           0.122 s
  | Boundary condition initialization           :        0.000 s           0.000 s
  | Integration                                 :        0.049 s           0.049 s
  | Solution of K.-S. eqns.                     :        0.012 s           0.012 s
  | Grid partitioning                           :        0.037 s           0.037 s
  | Preloading free-atom quantities on grid     :        0.016 s           0.016 s
  | Free-atom superposition energy              :        0.005 s           0.005 s
  | Total energy evaluation                     :        0.000 s           0.000 s

  Partial memory accounting:
  | Current value for overall tracked memory usage:
  |   Minimum:        0.273 MB (on task 23)
  |   Maximum:        0.292 MB (on task  0)
  |   Average:        0.287 MB
  | Peak value for overall tracked memory usage:
  |   Minimum:        1.360 MB (on task  7 after allocating wave)
  |   Maximum:        1.433 MB (on task 10 after allocating wave)
  |   Average:        1.397 MB
  | Largest tracked array allocation so far:
  |   Minimum:        0.249 MB (H_times_psi on task  7)
  |   Maximum:        0.486 MB (all_coords on task 10)
  |   Average:        0.288 MB
  Note:  These values currently only include a subset of arrays which are explicitly tracked.
  The "true" memory usage will be greater.
------------------------------------------------------------
  Evaluating new KS density.
  Integration grid: deviation in total charge (<rho> - N_e) =   2.842171E-14

  Time for density update prior                :  max(cpu_time)    wall_clock(cpu1)
  | self-consistency iterative process          :        0.030 s           0.031 s

------------------------------------------------------------
          Begin self-consistency iteration #    1

  Date     :  20220517, Time     :  121645.296
------------------------------------------------------------
  Pulay mixing of updated and previous charge densities.
  Renormalizing the density to the exact electron count on the 3D integration grid.
  | Formal number of electrons (from input files) :     120.0000000000
  | Integrated number of electrons on 3D grid     :     120.0000000000
  | Charge integration error                      :       0.0000000000
  | Normalization factor for density and gradient :       1.0000000000

  Evaluating partitioned Hartree potential by multipole expansion.
  | Original multipole sum: apparent total charge =  -0.214738E-13
  | Sum of charges compensated after spline to logarithmic grids =   0.787931E-04
  | Analytical far-field extrapolation by fixed multipoles:
  | Hartree multipole sum: apparent total charge =  -0.218428E-13
  Summing up the Hartree potential.
  Time summed over all CPUs for potential: real work        0.382 s, elapsed        0.400 s
  | RMS charge density error from multipole expansion :   0.108872E-01

  Integrating Hamiltonian matrix: batch-based integration.
  Time summed over all CPUs for integration: real work        0.716 s, elapsed        0.769 s

  Updating Kohn-Sham eigenvalues and eigenvectors using ELSI and the ELPA eigensolver.
  Starting ELPA eigensolver
  Finished transformation to standard eigenproblem
  | Time :     0.000 s
  Finished solving standard eigenproblem
  | Time :     0.003 s
  Finished back-transformation of eigenvectors
  | Time :     0.000 s

  Obtaining occupation numbers and chemical potential using ELSI.
  | Chemical potential (Fermi level):    -7.48276780 eV
  Writing Kohn-Sham eigenvalues.

  State    Occupation    Eigenvalue [Ha]    Eigenvalue [eV]
      1       2.00000         -55.674375        -1514.97681
      2       2.00000         -55.674373        -1514.97676
      3       2.00000         -55.638702        -1514.00612
      4       2.00000         -24.243747         -659.70593
      5       2.00000         -24.241598         -659.64743
      6       2.00000         -24.218034         -659.00624
      7       2.00000         -24.218031         -659.00615
      8       2.00000         -24.185432         -658.11908
      9       2.00000         -24.076049         -655.14261
     10       2.00000         -24.076035         -655.14225
     11       2.00000         -24.053183         -654.52042
     12       2.00000         -24.051179         -654.46589
     13       2.00000          -4.111844         -111.88897
     14       2.00000          -4.111731         -111.88590
     15       2.00000          -4.076208         -110.91926
     16       2.00000          -2.705636          -73.62410
     17       2.00000          -2.704663          -73.59761
     18       2.00000          -2.704656          -73.59742
     19       2.00000          -2.704529          -73.59399
     20       2.00000          -2.703730          -73.57224
     21       2.00000          -2.703627          -73.56943
     22       2.00000          -2.670503          -72.66808
     23       2.00000          -2.669043          -72.62836
     24       2.00000          -2.667035          -72.57372
     25       2.00000          -1.168391          -31.79354
     26       2.00000          -1.149332          -31.27491
     27       2.00000          -1.138966          -30.99285
     28       2.00000          -1.134971          -30.88412
     29       2.00000          -1.106144          -30.09971
     30       2.00000          -1.022356          -27.81972
     31       2.00000          -1.022056          -27.81156
     32       2.00000          -1.001122          -27.24192
     33       2.00000          -0.996526          -27.11686
     34       2.00000          -0.570341          -15.51977
     35       2.00000          -0.533977          -14.53025
     36       2.00000          -0.526940          -14.33877
     37       2.00000          -0.499891          -13.60272
     38       2.00000          -0.496529          -13.51124
     39       2.00000          -0.486750          -13.24514
     40       2.00000          -0.481522          -13.10288
     41       2.00000          -0.467443          -12.71976
     42       2.00000          -0.457038          -12.43664
     43       2.00000          -0.436838          -11.88696
     44       2.00000          -0.435678          -11.85541
     45       2.00000          -0.425674          -11.58318
     46       2.00000          -0.423294          -11.51843
     47       2.00000          -0.417467          -11.35987
     48       2.00000          -0.395066          -10.75030
     49       2.00000          -0.389575          -10.60086
     50       2.00000          -0.379788          -10.33455
     51       2.00000          -0.373726          -10.16961
     52       2.00000          -0.349114           -9.49987
     53       2.00000          -0.334097           -9.09125
     54       2.00000          -0.333552           -9.07642
     55       2.00000          -0.329981           -8.97923
     56       2.00000          -0.326878           -8.89481
     57       2.00000          -0.315623           -8.58854
     58       2.00000          -0.311006           -8.46289
     59       2.00000          -0.305094           -8.30204
     60       2.00000          -0.302365           -8.22776
     61       0.00000          -0.162629           -4.42535
     62       0.00000          -0.097327           -2.64840
     63       0.00000          -0.090970           -2.47543
     64       0.00000          -0.058799           -1.59999
     65       0.00000          -0.047842           -1.30185
     66       0.00000          -0.022795           -0.62029
     67       0.00000           0.005498            0.14961
     68       0.00000           0.022545            0.61347
     69       0.00000           0.033789            0.91945
     70       0.00000           0.056447            1.53601
     71       0.00000           0.091731            2.49613
     72       0.00000           0.098917            2.69167
     73       0.00000           0.141224            3.84291
     74       0.00000           0.144092            3.92095
     75       0.00000           0.157303            4.28044
     76       0.00000           0.164987            4.48952
     77       0.00000           0.167395            4.55506
     78       0.00000           0.197939            5.38620
     79       0.00000           0.207288            5.64059
     80       0.00000           0.209452            5.69948
     81       0.00000           0.211989            5.76852
     82       0.00000           0.218666            5.95020
     83       0.00000           0.222880            6.06488
     84       0.00000           0.224716            6.11484
     85       0.00000           0.240112            6.53379
     86       0.00000           0.248523            6.76264
     87       0.00000           0.252255            6.86421
     88       0.00000           0.256262            6.97325
     89       0.00000           0.271167            7.37883
     90       0.00000           0.273266            7.43594
     91       0.00000           0.314178            8.54922
     92       0.00000           0.327881            8.92211
     93       0.00000           0.358174            9.74641
     94       0.00000           0.368818           10.03604
     95       0.00000           0.370963           10.09443
     96       0.00000           0.381923           10.39266

  Highest occupied state (VBM) at     -8.22775791 eV
  | Occupation number:      2.00000000

  Lowest unoccupied state (CBM) at    -4.42535285 eV
  | Occupation number:      0.00000000

  Overall HOMO-LUMO gap:      3.80240506 eV.

  Total energy components:
  | Sum of eigenvalues            :        -883.45810680 Ha      -24040.11823378 eV
  | XC energy correction          :        -145.64485977 Ha       -3963.19827969 eV
  | XC potential correction       :         189.65598079 Ha        5160.80181591 eV
  | Free-atom electrostatic energy:        -781.44051225 Ha      -21264.07824261 eV
  | Hartree energy correction     :          -4.24052413 Ha        -115.39053245 eV
  | Entropy correction            :           0.00000000 Ha           0.00000000 eV
  | ---------------------------
  | Total energy                  :       -1625.12802216 Ha      -44221.98347262 eV
  | Total energy, T -> 0          :       -1625.12802216 Ha      -44221.98347262 eV  <-- do not rely on this value for anything but (periodic) metals
  | Electronic free energy        :       -1625.12802216 Ha      -44221.98347262 eV

  Derived energy quantities:
  | Kinetic energy                :        1633.62203928 Ha       44453.11743847 eV
  | Electrostatic energy          :       -3113.10520166 Ha      -84711.90263140 eV
  | Energy correction for multipole
  | error in Hartree potential    :           0.02894162 Ha           0.78754146 eV
  | Sum of eigenvalues per atom                           :       -2003.34318615 eV
  | Total energy (T->0) per atom                          :       -3685.16528939 eV  <-- do not rely on this value for anything but (periodic) metals
  | Electronic free energy per atom                       :       -3685.16528939 eV
  Evaluating new KS density.
  Integration grid: deviation in total charge (<rho> - N_e) =   4.263256E-14

  Self-consistency convergence accuracy:
  | Change of charge density      :  0.5833E+00
  | Change of sum of eigenvalues  :  0.1102E+03 eV
  | Change of total energy        :  0.5571E+01 eV


------------------------------------------------------------
  End self-consistency iteration #     1       :  max(cpu_time)    wall_clock(cpu1)
  | Time for this iteration                     :        0.086 s           0.086 s
  | Charge density update                       :        0.029 s           0.030 s
  | Density mixing                              :        0.001 s           0.000 s
  | Hartree multipole update                    :        0.001 s           0.002 s
  | Hartree multipole summation                 :        0.017 s           0.017 s
  | Integration                                 :        0.032 s           0.032 s
  | Solution of K.-S. eqns.                     :        0.004 s           0.005 s
  | Total energy evaluation                     :        0.000 s           0.000 s

  Partial memory accounting:
  | Current value for overall tracked memory usage:
  |   Minimum:        0.273 MB (on task 23)
  |   Maximum:        0.292 MB (on task  0)
  |   Average:        0.287 MB
  | Peak value for overall tracked memory usage:
  |   Minimum:        1.360 MB (on task  7 after allocating wave)
  |   Maximum:        1.433 MB (on task 10 after allocating wave)
  |   Average:        1.397 MB
  | Largest tracked array allocation so far:
  |   Minimum:        0.746 MB (gradient_basis_wave on task  7)
  |   Maximum:        0.787 MB (gradient_basis_wave on task  3)
  |   Average:        0.767 MB
  Note:  These values currently only include a subset of arrays which are explicitly tracked.
  The "true" memory usage will be greater.
------------------------------------------------------------

------------------------------------------------------------
          Begin self-consistency iteration #    2

  Date     :  20220517, Time     :  121645.387
------------------------------------------------------------
  Pulay mixing of updated and previous charge densities.
  Renormalizing the density to the exact electron count on the 3D integration grid.
  | Formal number of electrons (from input files) :     120.0000000000
  | Integrated number of electrons on 3D grid     :     120.0000000000
  | Charge integration error                      :       0.0000000000
  | Normalization factor for density and gradient :       1.0000000000

  Evaluating partitioned Hartree potential by multipole expansion.
  | Original multipole sum: apparent total charge =   0.451184E-13
  | Sum of charges compensated after spline to logarithmic grids =   0.402319E-04
  | Analytical far-field extrapolation by fixed multipoles:
  | Hartree multipole sum: apparent total charge =   0.460039E-13
  Summing up the Hartree potential.
  Time summed over all CPUs for potential: real work        0.380 s, elapsed        0.397 s
  | RMS charge density error from multipole expansion :   0.125034E-01

  Integrating Hamiltonian matrix: batch-based integration.
  Time summed over all CPUs for integration: real work        0.716 s, elapsed        0.763 s

  Updating Kohn-Sham eigenvalues and eigenvectors using ELSI and the ELPA eigensolver.
  Starting ELPA eigensolver
  Finished transformation to standard eigenproblem
  | Time :     0.000 s
  Finished solving standard eigenproblem
  | Time :     0.003 s
  Finished back-transformation of eigenvectors
  | Time :     0.000 s

  Obtaining occupation numbers and chemical potential using ELSI.
  | Chemical potential (Fermi level):    -7.67574449 eV
  Highest occupied state (VBM) at     -9.34048156 eV
  | Occupation number:      2.00000000

  Lowest unoccupied state (CBM) at    -4.60470536 eV
  | Occupation number:      0.00000000

  Overall HOMO-LUMO gap:      4.73577620 eV.

  Checking to see if s.c.f. parameters should be adjusted.

  Total energy components:
  | Sum of eigenvalues            :        -886.21779660 Ha      -24115.21321406 eV
  | XC energy correction          :        -145.17618379 Ha       -3950.44495724 eV
  | XC potential correction       :         189.03942043 Ha        5144.02435490 eV
  | Free-atom electrostatic energy:        -781.44051225 Ha      -21264.07824261 eV
  | Hartree energy correction     :          -1.27269132 Ha         -34.63169277 eV
  | Entropy correction            :           0.00000000 Ha           0.00000000 eV
  | ---------------------------
  | Total energy                  :       -1625.06776352 Ha      -44220.34375178 eV
  | Total energy, T -> 0          :       -1625.06776352 Ha      -44220.34375178 eV  <-- do not rely on this value for anything but (periodic) metals
  | Electronic free energy        :       -1625.06776352 Ha      -44220.34375178 eV

  Derived energy quantities:
  | Kinetic energy                :        1629.90657455 Ha       44352.01449914 eV
  | Electrostatic energy          :       -3109.79815429 Ha      -84621.91329368 eV
  | Energy correction for multipole
  | error in Hartree potential    :           0.03256612 Ha           0.88616911 eV
  | Sum of eigenvalues per atom                           :       -2009.60110117 eV
  | Total energy (T->0) per atom                          :       -3685.02864598 eV  <-- do not rely on this value for anything but (periodic) metals
  | Electronic free energy per atom                       :       -3685.02864598 eV
  Evaluating new KS density.
  Integration grid: deviation in total charge (<rho> - N_e) =   1.421085E-14

  Self-consistency convergence accuracy:
  | Change of charge density      :  0.4605E+00
  | Change of sum of eigenvalues  : -0.7509E+02 eV
  | Change of total energy        :  0.1640E+01 eV


------------------------------------------------------------
  End self-consistency iteration #     2       :  max(cpu_time)    wall_clock(cpu1)
  | Time for this iteration                     :        0.089 s           0.086 s
  | Charge density update                       :        0.029 s           0.029 s
  | Density mixing                              :        0.005 s           0.002 s
  | Hartree multipole update                    :        0.001 s           0.002 s
  | Hartree multipole summation                 :        0.017 s           0.017 s
  | Integration                                 :        0.032 s           0.032 s
  | Solution of K.-S. eqns.                     :        0.004 s           0.004 s
  | Total energy evaluation                     :        0.000 s           0.000 s

  Partial memory accounting:
  | Current value for overall tracked memory usage:
  |   Minimum:        0.274 MB (on task 23)
  |   Maximum:        0.293 MB (on task  0)
  |   Average:        0.288 MB
  | Peak value for overall tracked memory usage:
  |   Minimum:        1.360 MB (on task  7 after allocating wave)
  |   Maximum:        1.433 MB (on task 10 after allocating wave)
  |   Average:        1.397 MB
  | Largest tracked array allocation so far:
  |   Minimum:        0.746 MB (gradient_basis_wave on task  7)
  |   Maximum:        0.787 MB (gradient_basis_wave on task  3)
  |   Average:        0.767 MB
  Note:  These values currently only include a subset of arrays which are explicitly tracked.
  The "true" memory usage will be greater.
------------------------------------------------------------

------------------------------------------------------------
          Begin self-consistency iteration #    3

  Date     :  20220517, Time     :  121645.479
------------------------------------------------------------
  Pulay mixing of updated and previous charge densities.
  Renormalizing the density to the exact electron count on the 3D integration grid.
  | Formal number of electrons (from input files) :     120.0000000000
  | Integrated number of electrons on 3D grid     :     120.0000000000
  | Charge integration error                      :       0.0000000000
  | Normalization factor for density and gradient :       1.0000000000

  Evaluating partitioned Hartree potential by multipole expansion.
  | Original multipole sum: apparent total charge =   0.438701E-13
  | Sum of charges compensated after spline to logarithmic grids =   0.482102E-04
  | Analytical far-field extrapolation by fixed multipoles:
  | Hartree multipole sum: apparent total charge =   0.440914E-13
  Summing up the Hartree potential.
  Time summed over all CPUs for potential: real work        0.380 s, elapsed        0.398 s
  | RMS charge density error from multipole expansion :   0.168285E-01

  Integrating Hamiltonian matrix: batch-based integration.
  Time summed over all CPUs for integration: real work        0.716 s, elapsed        0.764 s

  Updating Kohn-Sham eigenvalues and eigenvectors using ELSI and the ELPA eigensolver.
  Starting ELPA eigensolver
  Finished transformation to standard eigenproblem
  | Time :     0.001 s
  Finished solving standard eigenproblem
  | Time :     0.003 s
  Finished back-transformation of eigenvectors
  | Time :     0.000 s

  Obtaining occupation numbers and chemical potential using ELSI.
  | Chemical potential (Fermi level):    -7.68086705 eV
  Highest occupied state (VBM) at     -9.00096255 eV
  | Occupation number:      2.00000000

  Lowest unoccupied state (CBM) at    -4.82516935 eV
  | Occupation number:      0.00000000

  Overall HOMO-LUMO gap:      4.17579320 eV.

  Total energy components:
  | Sum of eigenvalues            :        -887.20763623 Ha      -24142.14812083 eV
  | XC energy correction          :        -145.13739187 Ha       -3949.38937561 eV
  | XC potential correction       :         188.98727186 Ha        5142.60532018 eV
  | Free-atom electrostatic energy:        -781.44051225 Ha      -21264.07824261 eV
  | Hartree energy correction     :          -0.26882973 Ha          -7.31522906 eV
  | Entropy correction            :           0.00000000 Ha           0.00000000 eV
  | ---------------------------
  | Total energy                  :       -1625.06709822 Ha      -44220.32564793 eV
  | Total energy, T -> 0          :       -1625.06709822 Ha      -44220.32564793 eV  <-- do not rely on this value for anything but (periodic) metals
  | Electronic free energy        :       -1625.06709822 Ha      -44220.32564793 eV

  Derived energy quantities:
  | Kinetic energy                :        1628.25193524 Ha       44306.98947257 eV
  | Electrostatic energy          :       -3108.18164158 Ha      -84577.92574489 eV
  | Energy correction for multipole
  | error in Hartree potential    :           0.04417691 Ha           1.20211479 eV
  | Sum of eigenvalues per atom                           :       -2011.84567674 eV
  | Total energy (T->0) per atom                          :       -3685.02713733 eV  <-- do not rely on this value for anything but (periodic) metals
  | Electronic free energy per atom                       :       -3685.02713733 eV
  Evaluating new KS density.
  Integration grid: deviation in total charge (<rho> - N_e) =   7.105427E-14

  Self-consistency convergence accuracy:
  | Change of charge density      :  0.1229E+00
  | Change of sum of eigenvalues  : -0.2693E+02 eV
  | Change of total energy        :  0.1810E-01 eV


------------------------------------------------------------
  End self-consistency iteration #     3       :  max(cpu_time)    wall_clock(cpu1)
  | Time for this iteration                     :        0.088 s           0.086 s
  | Charge density update                       :        0.029 s           0.030 s
  | Density mixing                              :        0.004 s           0.002 s
  | Hartree multipole update                    :        0.001 s           0.001 s
  | Hartree multipole summation                 :        0.017 s           0.017 s
  | Integration                                 :        0.032 s           0.032 s
  | Solution of K.-S. eqns.                     :        0.004 s           0.004 s
  | Total energy evaluation                     :        0.000 s           0.000 s

  Partial memory accounting:
  | Current value for overall tracked memory usage:
  |   Minimum:        0.274 MB (on task 23)
  |   Maximum:        0.293 MB (on task  0)
  |   Average:        0.288 MB
  | Peak value for overall tracked memory usage:
  |   Minimum:        1.360 MB (on task  7 after allocating wave)
  |   Maximum:        1.433 MB (on task 10 after allocating wave)
  |   Average:        1.397 MB
  | Largest tracked array allocation so far:
  |   Minimum:        0.746 MB (gradient_basis_wave on task  7)
  |   Maximum:        0.787 MB (gradient_basis_wave on task  3)
  |   Average:        0.767 MB
  Note:  These values currently only include a subset of arrays which are explicitly tracked.
  The "true" memory usage will be greater.
------------------------------------------------------------

------------------------------------------------------------
          Begin self-consistency iteration #    4

  Date     :  20220517, Time     :  121645.569
------------------------------------------------------------
  Pulay mixing of updated and previous charge densities.
  Renormalizing the density to the exact electron count on the 3D integration grid.
  | Formal number of electrons (from input files) :     120.0000000000
  | Integrated number of electrons on 3D grid     :     120.0000000000
  | Charge integration error                      :       0.0000000000
  | Normalization factor for density and gradient :       1.0000000000

  Evaluating partitioned Hartree potential by multipole expansion.
  | Original multipole sum: apparent total charge =   0.106238E-12
  | Sum of charges compensated after spline to logarithmic grids =   0.514766E-04
  | Analytical far-field extrapolation by fixed multipoles:
  | Hartree multipole sum: apparent total charge =   0.103735E-12
  Summing up the Hartree potential.
  Time summed over all CPUs for potential: real work        0.380 s, elapsed        0.398 s
  | RMS charge density error from multipole expansion :   0.188638E-01

  Integrating Hamiltonian matrix: batch-based integration.
  Time summed over all CPUs for integration: real work        0.716 s, elapsed        0.763 s

  Updating Kohn-Sham eigenvalues and eigenvectors using ELSI and the ELPA eigensolver.
  Starting ELPA eigensolver
  Finished transformation to standard eigenproblem
  | Time :     0.000 s
  Finished solving standard eigenproblem
  | Time :     0.004 s
  Finished back-transformation of eigenvectors
  | Time :     0.000 s

  Obtaining occupation numbers and chemical potential using ELSI.
  | Chemical potential (Fermi level):    -7.66890591 eV
  Highest occupied state (VBM) at     -9.05801550 eV
  | Occupation number:      2.00000000

  Lowest unoccupied state (CBM) at    -4.78422766 eV
  | Occupation number:      0.00000000

  Overall HOMO-LUMO gap:      4.27378784 eV.

  Total energy components:
  | Sum of eigenvalues            :        -887.32722125 Ha      -24145.40219463 eV
  | XC energy correction          :        -145.12225673 Ha       -3948.97752731 eV
  | XC potential correction       :         188.96673320 Ha        5142.04643487 eV
  | Free-atom electrostatic energy:        -781.44051225 Ha      -21264.07824261 eV
  | Hartree energy correction     :          -0.14165060 Ha          -3.85450904 eV
  | Entropy correction            :           0.00000000 Ha           0.00000000 eV
  | ---------------------------
  | Total energy                  :       -1625.06490762 Ha      -44220.26603872 eV
  | Total energy, T -> 0          :       -1625.06490762 Ha      -44220.26603872 eV  <-- do not rely on this value for anything but (periodic) metals
  | Electronic free energy        :       -1625.06490762 Ha      -44220.26603872 eV

  Derived energy quantities:
  | Kinetic energy                :        1627.59456769 Ha       44289.10159140 eV
  | Electrostatic energy          :       -3107.53721858 Ha      -84560.39010281 eV
  | Energy correction for multipole
  | error in Hartree potential    :           0.04904351 Ha           1.33454189 eV
  | Sum of eigenvalues per atom                           :       -2012.11684955 eV
  | Total energy (T->0) per atom                          :       -3685.02216989 eV  <-- do not rely on this value for anything but (periodic) metals
  | Electronic free energy per atom                       :       -3685.02216989 eV
  Evaluating new KS density.
  Integration grid: deviation in total charge (<rho> - N_e) =  -2.842171E-14

  Self-consistency convergence accuracy:
  | Change of charge density      :  0.8384E-01
  | Change of sum of eigenvalues  : -0.3254E+01 eV
  | Change of total energy        :  0.5961E-01 eV


------------------------------------------------------------
  End self-consistency iteration #     4       :  max(cpu_time)    wall_clock(cpu1)
  | Time for this iteration                     :        0.088 s           0.087 s
  | Charge density update                       :        0.029 s           0.029 s
  | Density mixing                              :        0.004 s           0.004 s
  | Hartree multipole update                    :        0.001 s           0.001 s
  | Hartree multipole summation                 :        0.017 s           0.017 s
  | Integration                                 :        0.032 s           0.032 s
  | Solution of K.-S. eqns.                     :        0.004 s           0.004 s
  | Total energy evaluation                     :        0.000 s           0.000 s

  Partial memory accounting:
  | Current value for overall tracked memory usage:
  |   Minimum:        0.274 MB (on task 23)
  |   Maximum:        0.293 MB (on task  0)
  |   Average:        0.288 MB
  | Peak value for overall tracked memory usage:
  |   Minimum:        1.360 MB (on task  7 after allocating wave)
  |   Maximum:        1.433 MB (on task 10 after allocating wave)
  |   Average:        1.397 MB
  | Largest tracked array allocation so far:
  |   Minimum:        0.746 MB (gradient_basis_wave on task  7)
  |   Maximum:        0.787 MB (gradient_basis_wave on task  3)
  |   Average:        0.767 MB
  Note:  These values currently only include a subset of arrays which are explicitly tracked.
  The "true" memory usage will be greater.
------------------------------------------------------------

------------------------------------------------------------
          Begin self-consistency iteration #    5

  Date     :  20220517, Time     :  121645.662
------------------------------------------------------------
  Pulay mixing of updated and previous charge densities.
  Renormalizing the density to the exact electron count on the 3D integration grid.
  | Formal number of electrons (from input files) :     120.0000000000
  | Integrated number of electrons on 3D grid     :     120.0000000000
  | Charge integration error                      :      -0.0000000000
  | Normalization factor for density and gradient :       1.0000000000

  Evaluating partitioned Hartree potential by multipole expansion.
  | Original multipole sum: apparent total charge =   0.236138E-13
  | Sum of charges compensated after spline to logarithmic grids =   0.523649E-04
  | Analytical far-field extrapolation by fixed multipoles:
  | Hartree multipole sum: apparent total charge =   0.239029E-13
  Summing up the Hartree potential.
  Time summed over all CPUs for potential: real work        0.380 s, elapsed        0.398 s
  | RMS charge density error from multipole expansion :   0.186852E-01

  Integrating Hamiltonian matrix: batch-based integration.
  Time summed over all CPUs for integration: real work        0.716 s, elapsed        0.764 s

  Updating Kohn-Sham eigenvalues and eigenvectors using ELSI and the ELPA eigensolver.
  Starting ELPA eigensolver
  Finished transformation to standard eigenproblem
  | Time :     0.000 s
  Finished solving standard eigenproblem
  | Time :     0.004 s
  Finished back-transformation of eigenvectors
  | Time :     0.000 s

  Obtaining occupation numbers and chemical potential using ELSI.
  | Chemical potential (Fermi level):    -7.65854935 eV
  Highest occupied state (VBM) at     -9.12435435 eV
  | Occupation number:      2.00000000

  Lowest unoccupied state (CBM) at    -4.72408900 eV
  | Occupation number:      0.00000000

  Overall HOMO-LUMO gap:      4.40026535 eV.

  Total energy components:
  | Sum of eigenvalues            :        -887.12319069 Ha      -24139.85024063 eV
  | XC energy correction          :        -145.12029246 Ha       -3948.92407683 eV
  | XC potential correction       :         188.96431464 Ha        5141.98062248 eV
  | Free-atom electrostatic energy:        -781.44051225 Ha      -21264.07824261 eV
  | Hartree energy correction     :          -0.34509358 Ha          -9.39047411 eV
  | Entropy correction            :           0.00000000 Ha           0.00000000 eV
[...]
   Total forces(   7)            :  0.119402E+01 -0.805629E+00 -0.103253E+01
  atom #    8
   Hellmann-Feynman              : -0.187735E+01 -0.191663E+01  0.220767E+01
   Ionic forces                  :  0.000000E+00  0.000000E+00  0.000000E+00
   Multipole                     : -0.431815E+00 -0.480361E+00  0.539791E+00
   Hartree pot. SCF incomplete   : -0.216475E-05 -0.168551E-05  0.291125E-05
   Pulay + GGA                   :  0.412103E+01  0.429267E+01 -0.493158E+01
   ----------------------------------------------------------------
   Total forces(   8)            :  0.181186E+01  0.189568E+01 -0.218411E+01
  atom #    9
   Hellmann-Feynman              :  0.230269E+01 -0.106688E+01 -0.237539E+01
   Ionic forces                  :  0.000000E+00  0.000000E+00  0.000000E+00
   Multipole                     :  0.567039E+00 -0.276991E+00 -0.555990E+00
   Hartree pot. SCF incomplete   :  0.292298E-05 -0.653923E-06 -0.265772E-05
   Pulay + GGA                   : -0.514931E+01  0.240538E+01  0.523818E+01
   ----------------------------------------------------------------
   Total forces(   9)            : -0.227958E+01  0.106151E+01  0.230680E+01
  atom #   10
   Hellmann-Feynman              :  0.570972E+00  0.508452E+00 -0.819410E+00
   Ionic forces                  :  0.000000E+00  0.000000E+00  0.000000E+00
   Multipole                     :  0.346423E-01  0.176400E+00 -0.473814E-01
   Hartree pot. SCF incomplete   :  0.409648E-05  0.818381E-05 -0.453113E-05
   Pulay + GGA                   : -0.133894E+01 -0.188210E+01  0.194811E+01
   ----------------------------------------------------------------
   Total forces(  10)            : -0.733317E+00 -0.119724E+01  0.108132E+01
  atom #   11
   Hellmann-Feynman              :  0.410455E+00  0.118024E+01  0.592008E+00
   Ionic forces                  :  0.000000E+00  0.000000E+00  0.000000E+00
   Multipole                     : -0.416736E+00  0.124761E+00 -0.356600E+00
   Hartree pot. SCF incomplete   : -0.505350E-05  0.164835E-05 -0.429368E-05
   Pulay + GGA                   :  0.187129E+01 -0.200142E+01  0.133507E+01
   ----------------------------------------------------------------
   Total forces(  11)            :  0.186501E+01 -0.696420E+00  0.157048E+01
  atom #   12
   Hellmann-Feynman              : -0.908798E+00  0.992604E+00 -0.644769E+00
   Ionic forces                  :  0.000000E+00  0.000000E+00  0.000000E+00
   Multipole                     :  0.368616E+00  0.161228E+00  0.366125E+00
   Hartree pot. SCF incomplete   :  0.530254E-05  0.185650E-05  0.517339E-05
   Pulay + GGA                   : -0.124354E+01 -0.201052E+01 -0.150526E+01
   ----------------------------------------------------------------
   Total forces(  12)            : -0.178371E+01 -0.856685E+00 -0.178390E+01


  Self-consistency convergence accuracy:
  | Change of charge density      :  0.1792E-06
  | Change of sum of eigenvalues  :  0.2447E-05 eV
  | Change of total energy        :  0.9095E-09 eV
  | Change of forces              :  0.4240E-06 eV/A

  Writing Kohn-Sham eigenvalues.

  State    Occupation    Eigenvalue [Ha]    Eigenvalue [eV]
      1       2.00000         -55.658655        -1514.54908
      2       2.00000         -55.658651        -1514.54897
      3       2.00000         -55.613586        -1513.32268
      4       2.00000         -24.314921         -661.64266
      5       2.00000         -24.314918         -661.64258
      6       2.00000         -24.292203         -661.02446
      7       2.00000         -24.292198         -661.02434
      8       2.00000         -24.281102         -660.72241
      9       2.00000         -24.222734         -659.13414
     10       2.00000         -24.222722         -659.13380
     11       2.00000         -24.188244         -658.19561
     12       2.00000         -24.188216         -658.19486
     13       2.00000          -4.109059         -111.81318
     14       2.00000          -4.108947         -111.81012
     15       2.00000          -4.064495         -110.60054
     16       2.00000          -2.702699          -73.54419
     17       2.00000          -2.702595          -73.54136
     18       2.00000          -2.700567          -73.48617
     19       2.00000          -2.699858          -73.46688
     20       2.00000          -2.699209          -73.44923
     21       2.00000          -2.698824          -73.43873
     22       2.00000          -2.658334          -72.33694
     23       2.00000          -2.657110          -72.30365
     24       2.00000          -2.652605          -72.18106
     25       2.00000          -1.186605          -32.28917
     26       2.00000          -1.168878          -31.80678
     27       2.00000          -1.158509          -31.52464
     28       2.00000          -1.155031          -31.42999
     29       2.00000          -1.134428          -30.86935
     30       2.00000          -1.069139          -29.09275
     31       2.00000          -1.068868          -29.08537
     32       2.00000          -1.034478          -28.14957
     33       2.00000          -1.030960          -28.05384
     34       2.00000          -0.584383          -15.90187
     35       2.00000          -0.550540          -14.98095
     36       2.00000          -0.541493          -14.73477
     37       2.00000          -0.518280          -14.10311
     38       2.00000          -0.514866          -14.01022
     39       2.00000          -0.505901          -13.76627
     40       2.00000          -0.500029          -13.60649
     41       2.00000          -0.486224          -13.23084
     42       2.00000          -0.482137          -13.11960
     43       2.00000          -0.459930          -12.51533
     44       2.00000          -0.459339          -12.49926
     45       2.00000          -0.445520          -12.12321
     46       2.00000          -0.442579          -12.04318
     47       2.00000          -0.442170          -12.03205
     48       2.00000          -0.429885          -11.69777
     49       2.00000          -0.422743          -11.50342
     50       2.00000          -0.421364          -11.46589
     51       2.00000          -0.402704          -10.95814
     52       2.00000          -0.381831          -10.39014
     53       2.00000          -0.377291          -10.26662
     54       2.00000          -0.376615          -10.24821
     55       2.00000          -0.372367          -10.13261
     56       2.00000          -0.369793          -10.06258
     57       2.00000          -0.344995           -9.38779
     58       2.00000          -0.341124           -9.28246
     59       2.00000          -0.336648           -9.16065
     60       2.00000          -0.334484           -9.10177
     61       0.00000          -0.173713           -4.72698
     62       0.00000          -0.109322           -2.97479
     63       0.00000          -0.099086           -2.69626
     64       0.00000          -0.063133           -1.71793
     65       0.00000          -0.050744           -1.38081
     66       0.00000          -0.027021           -0.73528
     67       0.00000           0.005519            0.15017
     68       0.00000           0.020620            0.56109
     69       0.00000           0.028993            0.78893
     70       0.00000           0.054949            1.49524
     71       0.00000           0.087764            2.38817
     72       0.00000           0.095903            2.60966
     73       0.00000           0.134520            3.66048
     74       0.00000           0.140352            3.81918
     75       0.00000           0.156778            4.26614
     76       0.00000           0.158065            4.30116
     77       0.00000           0.165025            4.49056
     78       0.00000           0.194891            5.30324
     79       0.00000           0.204397            5.56193
     80       0.00000           0.206465            5.61821
     81       0.00000           0.209901            5.71169
     82       0.00000           0.216454            5.89002
     83       0.00000           0.217663            5.92292
     84       0.00000           0.219604            5.97573
     85       0.00000           0.236242            6.42846
     86       0.00000           0.243657            6.63024
     87       0.00000           0.243882            6.63638
     88       0.00000           0.250239            6.80934
     89       0.00000           0.266396            7.24900
     90       0.00000           0.273535            7.44326
     91       0.00000           0.302190            8.22302
     92       0.00000           0.325150            8.84778
     93       0.00000           0.353876            9.62946
     94       0.00000           0.363698            9.89671
     95       0.00000           0.364542            9.91969
     96       0.00000           0.375288           10.21211

  Highest occupied state (VBM) at     -9.10176898 eV
  | Occupation number:      2.00000000

  Lowest unoccupied state (CBM) at    -4.72697870 eV
  | Occupation number:      0.00000000

  Overall HOMO-LUMO gap:      4.37479028 eV.
  | Chemical Potential                          :    -7.65618145 eV

  Self-consistency cycle converged.


------------------------------------------------------------
  End self-consistency iteration #    14       :  max(cpu_time)    wall_clock(cpu1)
  | Time for this iteration                     :        0.280 s           0.281 s
  | Charge density & force component update     :        0.155 s           0.156 s
  | Density mixing                              :        0.005 s           0.005 s
  | Hartree multipole update                    :        0.001 s           0.002 s
  | Hartree multipole summation                 :        0.049 s           0.049 s
  | Hartree pot. SCF incomplete forces          :        0.033 s           0.032 s
  | Integration                                 :        0.032 s           0.032 s
  | Solution of K.-S. eqns.                     :        0.004 s           0.004 s
  | Total energy evaluation                     :        0.000 s           0.000 s

  Partial memory accounting:
  | Current value for overall tracked memory usage:
  |   Minimum:        0.274 MB (on task 23)
  |   Maximum:        0.293 MB (on task  0)
  |   Average:        0.289 MB
  | Peak value for overall tracked memory usage:
  |   Minimum:        3.046 MB (on task  7 after allocating hessian_basis_wave)
  |   Maximum:        3.192 MB (on task 10 after allocating hessian_basis_wave)
  |   Average:        3.121 MB
  | Largest tracked array allocation so far:
  |   Minimum:        1.492 MB (hessian_basis_wave on task  7)
  |   Maximum:        1.575 MB (hessian_basis_wave on task  3)
  |   Average:        1.535 MB
  Note:  These values currently only include a subset of arrays which are explicitly tracked.
  The "true" memory usage will be greater.
------------------------------------------------------------
  Removing unitary transformations (pure translations, rotations) from forces on atoms.
  Atomic forces before filtering:
  | Net force on center of mass :  -0.566276E-02  0.187372E-02  0.376754E-02 eV/A
  | Net torque on center of mass:  -0.337351E-02 -0.150605E-02 -0.634738E-02 eV
  Atomic forces after filtering:
  | Net force on center of mass :   0.356812E-15  0.892031E-15  0.142725E-14 eV/A
  | Net torque on center of mass:  -0.944085E-15 -0.188817E-14 -0.302107E-14 eV

  Energy and forces in a compact form:
  | Total energy uncorrected      :         -0.442202621320070E+05 eV
  | Total energy corrected        :         -0.442202621320070E+05 eV  <-- do not rely on this value for anything but (periodic) metals
  | Electronic free energy        :         -0.442202621320070E+05 eV
  Total atomic forces (unitary forces cleaned) [eV/Ang]:
  |    1         -0.238963259949057E+00          0.333720397009376E+01          0.402439344672421E+00
  |    2          0.228585037053656E+01         -0.823181218640607E+00         -0.230419613135649E+01
  |    3         -0.185414969017465E+01         -0.166450425325406E+01          0.223738293457287E+01
  |    4         -0.215068717785497E+01         -0.152898908401219E+01         -0.224404793032450E+01
  |    5          0.228881329898808E+01         -0.149944348044649E+01          0.180867514191593E+01
  |    6         -0.408262122235837E+00          0.277859540079819E+01          0.143694917958750E+00
  |    7          0.119446275599058E+01         -0.805999320818637E+00         -0.103275728549597E+01
  |    8          0.181267448244958E+01          0.189522535462376E+01         -0.218445215085618E+01
  |    9         -0.227903507373919E+01          0.106171848187075E+01          0.230633189565201E+01
  |   10         -0.733031318901239E+00         -0.119721981856178E+01          0.108101396565878E+01
  |   11          0.186549195948926E+01         -0.696652625573873E+00          0.157018490589351E+01
  |   12         -0.178316422459911E+01         -0.856753406078830E+00         -0.178426960829114E+01

  ------------------------------------ 
  Start decomposition of the XC Energy 
  ------------------------------------ 
  X and C from original XC functional choice 
  Hartree-Fock Energy :          0.000000000 Ha              0.000000000 eV
  X Energy            :       -140.167670562 Ha          -3814.156378145 eV
  C Energy            :         -4.956212100 Ha           -134.865393111 eV
  Total XC Energy     :       -145.123882662 Ha          -3949.021771255 eV
  ------------------------------------ 
  LDA X and C from self-consistent density 
  X Energy LDA        :       -132.756465330 Ha          -3612.487222945 eV
  C Energy LDA        :         -8.826022979 Ha           -240.168304894 eV
  ------------------------------------ 
  End decomposition of the XC Energy 
  ------------------------------------ 

------------------------------------------------------------

------------------------------------------------------------------------------
  Final output of selected total energy values:

  The following output summarizes some interesting total energy values
  at the end of a run (AFTER all relaxation, molecular dynamics, etc.).

  | Total energy of the DFT / Hartree-Fock s.c.f. calculation      :         -44220.262132007 eV
  | Final zero-broadening corrected energy (caution - metals only) :         -44220.262132007 eV
  | For reference only, the value of 1 Hartree used in FHI-aims is :             27.211384500 eV

  Before relying on these values, please be sure to understand exactly which
  total energy value is referred to by a given number. Different objects may
  all carry the same name 'total energy'. Definitions:

  Total energy of the DFT / Hartree-Fock s.c.f. calculation:
  | Note that this energy does not include ANY quantities calculated after the
  | s.c.f. cycle, in particular not ANY RPA, MP2, etc. many-body perturbation terms.

  Final zero-broadening corrected energy:
  | For metallic systems only, a broadening of the occupation numbers at the Fermi
  | level can be extrapolated back to zero broadening by an electron-gas inspired
  | formula. For all systems that are not real metals, this value can be
  | meaningless and should be avoided.

------------------------------------------------------------------------------
  Methods described in the following list of references were used in this FHI-aims run.
  If you publish the results, please make sure to cite these reference if they apply.
  FHI-aims is an academic code, and for our developers (often, Ph.D. students
  and postdocs), scientific credit in the community is essential.
  Thank you for helping us!

  For any use of FHI-aims, please cite:

    Volker Blum, Ralf Gehrke, Felix Hanke, Paula Havu, Ville Havu,
    Xinguo Ren, Karsten Reuter, and Matthias Scheffler
    'Ab initio molecular simulations with numeric atom-centered orbitals'
    Computer Physics Communications 180, 2175-2196 (2009)
    http://dx.doi.org/10.1016/j.cpc.2009.06.022


  The ELSI infrastructure was used in your run to solve the Kohn-Sham electronic structure.
  Please check out http://elsi-interchange.org to learn more.
  If scalability is important for your project, please acknowledge ELSI by citing:

    V. W-z. Yu, F. Corsetti, A. Garcia, W. P. Huhn, M. Jacquelin, W. Jia,
    B. Lange, L. Lin, J. Lu, W. Mi, A. Seifitokaldani, A. Vazquez-Mayagoitia,
    C. Yang, H. Yang, and V. Blum
    'ELSI: A unified software interface for Kohn-Sham electronic structure solvers'
    Computer Physics Communications 222, 267-285 (2018).
    http://dx.doi.org/10.1016/j.cpc.2017.09.007


  For the real-space grid partitioning and parallelization used in this calculation, please cite:

    Ville Havu, Volker Blum, Paula Havu, and Matthias Scheffler,
    'Efficient O(N) integration for all-electron electronic structure calculation'
    'using numerically tabulated basis functions'
    Journal of Computational Physics 228, 8367-8379 (2009).
    http://dx.doi.org/10.1016/j.jcp.2009.08.008

  Of course, there are many other important community references, e.g., those cited in the
  above references. Our list is limited to references that describe implementations in the
  FHI-aims code. The reason is purely practical (length of this list) - please credit others as well.

------------------------------------------------------------
          Leaving FHI-aims.
          Date     :  20220517, Time     :  121647.033

          Computational steps:
          | Number of self-consistency cycles          :           14
          | Number of SCF (re)initializations          :            1

          Detailed time accounting                     :  max(cpu_time)    wall_clock(cpu1)
          | Total time                                  :        2.051 s           3.989 s
          | Preparation time                            :        0.185 s           0.185 s
          | Boundary condition initalization            :        0.000 s           0.000 s
          | Grid partitioning                           :        0.037 s           0.037 s
          | Preloading free-atom quantities on grid     :        0.016 s           0.016 s
          | Free-atom superposition energy              :        0.005 s           0.005 s
          | Total time for integrations                 :        0.501 s           0.498 s
          | Total time for solution of K.-S. equations  :        0.086 s           0.086 s
          | Total time for density & force components   :        0.711 s           0.716 s
          | Total time for mixing                       :        0.062 s           0.032 s
          | Total time for Hartree multipole update     :        0.019 s           0.021 s
          | Total time for Hartree multipole sum        :        0.303 s           0.304 s
          | Total time for total energy evaluation      :        0.002 s           0.001 s
          | Total time NSC force correction             :        0.065 s           0.073 s
          | Total time for scaled ZORA corrections      :        0.000 s           0.000 s

          Partial memory accounting:
          | Residual value for overall tracked memory usage across tasks:     0.000000 MB (should be 0.000000 MB)
          | Peak values for overall tracked memory usage:
          |   Minimum:        3.046 MB (on task  7 after allocating hessian_basis_wave)
          |   Maximum:        3.192 MB (on task 10 after allocating hessian_basis_wave)
          |   Average:        3.121 MB
          | Largest tracked array allocation:
          |   Minimum:        1.492 MB (hessian_basis_wave on task  7)
          |   Maximum:        1.575 MB (hessian_basis_wave on task  3)
          |   Average:        1.535 MB
          Note:  These values currently only include a subset of arrays which are explicitly tracked.
          The "true" memory usage will be greater.

          Have a nice day.
------------------------------------------------------------
