********************************************************************************
*                       GENERAL UTILITY LATTICE PROGRAM                        *
*                                 Julian Gale                                  *
*                       Curtin Institute for Computation                       *
*                           Department of Chemistry                            *
*                    Curtin University, Western Australia                      *
********************************************************************************
* Version = 5.1.1 * Last modified =  11th January 2019                         *
********************************************************************************
*  single       - perform a single point run                                   *
*  phonon       - calculate phonons for final geometry                         *
*  eigenvectors - output phonon eigenvectors                                   *
********************************************************************************

  Job Started  at 10:30.30 17th May        2022                               

  Number of CPUs =     1

  Host name      = login04                                 


  Total number of configurations input =      1

********************************************************************************
*  Input for Configuration =   1                                               *
********************************************************************************

  Formula = Al3F9                                                       

  Number of irreducible atoms/shells =      21


  Total number atoms/shells =      21

  Dimensionality = 0               :  Cluster


  Charge on cluster =  -0.000000


  Initial cluster dipoles : x =     -0.002158 e.Angs
                            y =      0.048420 e.Angs
                            z =      0.010540 e.Angs

  Temperature of configuration =  0.000     K 

  Symmetry number =      1

  Cartesian coordinates of cluster :

--------------------------------------------------------------------------------
   No.  Atomic       x           y          z         Charge      Occupancy
        Label      (Angs)      (Angs)     (Angs)        (e)         (Frac)  
--------------------------------------------------------------------------------
      1 Al    c      0.3306     -0.4880      1.8612     3.00000    1.000000    
      2 Al    c      2.5134     -1.8359     -0.5671     3.00000    1.000000    
      3 Al    c     -1.0342     -1.8814     -1.0839     3.00000    1.000000    
      4 F     c      3.5863     -0.3456     -1.1756     0.59000    1.000000    
      5 F     c     -1.9260     -0.4164     -1.9787     0.59000    1.000000    
      6 F     c      2.7618     -3.7471     -0.4836     0.59000    1.000000    
      7 F     c     -1.2480     -3.7986     -1.0678     0.59000    1.000000    
      8 F     c      1.9796     -1.4502      1.3166     0.59000    1.000000    
      9 F     c      0.8504     -1.4515     -1.6216     0.59000    1.000000    
     10 F     c      0.0839     -1.2476      3.6218     0.59000    1.000000    
     11 F     c      0.4134      1.2821      1.1366     0.59000    1.000000    
     12 F     c     -1.0698     -1.4894      0.8723     0.59000    1.000000    
     13 F     s      3.5863     -0.3456     -1.1756    -1.59000    1.000000    
     14 F     s     -1.9260     -0.4164     -1.9787    -1.59000    1.000000    
     15 F     s      2.7618     -3.7471     -0.4836    -1.59000    1.000000    
     16 F     s     -1.2480     -3.7986     -1.0678    -1.59000    1.000000    
     17 F     s      1.9796     -1.4502      1.3166    -1.59000    1.000000    
     18 F     s      0.8504     -1.4515     -1.6216    -1.59000    1.000000    
     19 F     s      0.0839     -1.2476      3.6218    -1.59000    1.000000    
     20 F     s      0.4134      1.2821      1.1366    -1.59000    1.000000    
     21 F     s     -1.0698     -1.4894      0.8723    -1.59000    1.000000    
--------------------------------------------------------------------------------


  Brillouin zone sampling points :

--------------------------------------------------------------------------------
  Point number          x          y          z            Weight
--------------------------------------------------------------------------------
        1           0.000000   0.000000   0.000000     1.00000000
--------------------------------------------------------------------------------


********************************************************************************
*  General input information                                                   *
********************************************************************************

  Species output for all configurations : 

--------------------------------------------------------------------------------
  Species    Type    Atomic    Atomic    Charge       Radii (Angs)     Library
                     Number     Mass       (e)     Cova   Ionic  VDW   Symbol
--------------------------------------------------------------------------------
    Al       Core       13      26.98   3.000000   1.350  0.000  2.050          
    F        Core        9      19.00   0.590000   0.710  0.000  1.300          
    F        Shell       9       0.00  -1.590000   0.710  0.000  1.300          
--------------------------------------------------------------------------------


  Accuracy factor for short range sums = 12.000

  Time limit = Infinity

  Maximum range for interatomic potentials =    100000.000000 Angstroms

  General interatomic potentials :

--------------------------------------------------------------------------------
Atom  Types   Potential      Parameter       Value         Units   Cutoffs(Ang)
  1     2                                                            Min /  Max 
--------------------------------------------------------------------------------
Al   c F    s Buckingham    Buckingham A     3760.0008    eV        0.000 10.000
                            Buckingham rho  0.22200000    Ang       
                            Buckingham C     0.0000000    eV*Ang^6  
--------------------------------------------------------------------------------
F    s F    s Buck 4 range  Buck4 A          1127.7000    eV        0.000 12.000
                            Buck4 rho       0.27530000    Ang       
                            Buck4 C          15.830000    eV*Ang^6  
                            Buck4 minimum    2.7900000    Ang       
--------------------------------------------------------------------------------
F    c F    s Spring (c-s)  Spring k 2       20.770000    eV*Ang^-2 0.000  0.800
                            Spring k 4       0.0000000    eV*Ang^-4 
--------------------------------------------------------------------------------

********************************************************************************
*  Output for configuration   1                                                *
********************************************************************************


  Components of energy : 

--------------------------------------------------------------------------------
  Interatomic potentials     =           6.29286691 eV    
  Monopole - monopole (real) =        -170.36960895 eV    
--------------------------------------------------------------------------------
  Total lattice energy       =        -164.07674204 eV    
--------------------------------------------------------------------------------
  Total lattice energy       =          -15830.8975 kJ/mol
--------------------------------------------------------------------------------

  Born effective charge tensors : 

-------------------------------------------------------------------------------
  Atom             x           y             z
-------------------------------------------------------------------------------
    1 Al    x       2.7067     -0.0176     -0.0267
            y       0.0501      2.9991     -0.3704
            z      -0.0326      0.0949      2.9182
-------------------------------------------------------------------------------
    2 Al    x       2.8819     -0.0564     -0.0418
            y       0.1832      3.2023      0.0447
            z      -0.0733     -0.2188      2.7831
-------------------------------------------------------------------------------
    3 Al    x       2.8444      0.1077      0.0593
            y      -0.1970      3.1996     -0.0093
            z       0.0965     -0.1927      2.8234
-------------------------------------------------------------------------------
    4 F     x      -1.1265     -0.6879      0.3089
            y      -0.4631     -1.1469      0.2506
            z       0.2642      0.3191     -0.7010
-------------------------------------------------------------------------------
    5 F     x      -0.9589      0.5716     -0.3900
            y       0.3758     -1.1200      0.3635
            z      -0.3478      0.4944     -0.8955
-------------------------------------------------------------------------------
    6 F     x      -0.6580      0.4228     -0.0001
            y       0.2158     -1.6603      0.0301
            z       0.0151     -0.0518     -0.5472
-------------------------------------------------------------------------------
    7 F     x      -0.6303     -0.3646     -0.0268
            y      -0.1896     -1.6756     -0.0294
            z      -0.0392     -0.1673     -0.5596
-------------------------------------------------------------------------------
    8 F     x      -1.0920      0.4320      0.5411
            y       0.4080     -0.5952     -0.3759
            z       0.5559     -0.4013     -1.2495
-------------------------------------------------------------------------------
    9 F     x      -2.0537     -0.0299     -0.2125
            y      -0.0282     -0.3765      0.0429
            z      -0.2127      0.0547     -0.6298
-------------------------------------------------------------------------------
   10 F     x      -0.5920     -0.0691      0.1761
            y      -0.0364     -0.6756      0.2592
            z       0.1732      0.4841     -1.7991
-------------------------------------------------------------------------------
   11 F     x      -0.5317     -0.0026      0.0079
            y      -0.0285     -1.5371      0.2841
            z       0.0102      0.1067     -0.6100
-------------------------------------------------------------------------------
   12 F     x      -0.7900     -0.3059     -0.3955
            y      -0.2902     -0.6137     -0.4902
            z      -0.4095     -0.5218     -1.5330
-------------------------------------------------------------------------------




  Moment of inertia tensor (10^-46 x kgm^2): 

-------------------------------------------------------------------------------
                x           y           z           Principal axis system
-------------------------------------------------------------------------------
       x        175.22        2.86       -1.73          175.005772
       y          2.86      223.13      -23.85          176.733630
       z         -1.73      -23.85      188.95          235.560233
-------------------------------------------------------------------------------
  Centre of mass (Ang) =     0.603436    -1.405431     0.069265
-------------------------------------------------------------------------------


  Vibrational Frequency Calculation : 

--------------------------------------------------------------------------------

  Frequencies (cm-1) and Eigenvectors : 

  Frequency    -548.0385 -341.4460 -331.0086 -229.6823 -201.6998 -154.7685
  IR Intensity    0.0107    0.6743    0.8431    0.1538    0.3826    1.1167
     in X         0.0105    0.0132    0.8255    0.1506    0.0027    0.0037
     in Y         0.0000    0.0798    0.0001    0.0000    0.2820    0.8640
     in Z         0.0002    0.5813    0.0175    0.0032    0.0978    0.2491
  Raman Intsty    0.0000    0.0081    0.0000    0.0000    0.0307    0.0220

     1 x       0.398478  0.003423 -0.361909 -0.002535 -0.036353  0.048124
     1 y       0.005117  0.437864 -0.004653 -0.000032 -0.204296  0.340610
     1 z       0.058051 -0.062124 -0.052723 -0.000369  0.267541 -0.360370
     2 x      -0.175024 -0.018814 -0.180952  0.162149  0.082800  0.081566
     2 y       0.101930 -0.106686  0.229893  0.419641  0.319245  0.205791
     2 z      -0.454843  0.332943 -0.018335 -0.033188  0.006974 -0.011640
     3 x      -0.294880 -0.074272 -0.172821  0.156441 -0.089352 -0.080005
     3 y      -0.107964 -0.107402 -0.234435 -0.415545  0.317038  0.203718
     3 z       0.386386  0.324864 -0.033211  0.079601 -0.018105 -0.035178
     4 x       0.021534  0.106336  0.130206 -0.272407 -0.152274 -0.192480
     4 y       0.020691  0.153939  0.208769 -0.321684 -0.166381 -0.164204
     4 z      -0.009373 -0.020449 -0.075022  0.180697  0.116238  0.136656
     5 x       0.018479 -0.099918  0.108604 -0.217540  0.116926  0.149566
     5 y      -0.020177  0.151284 -0.205704  0.315387 -0.162928 -0.159813
     5 z       0.015202 -0.050494  0.109812 -0.252070  0.155458  0.186488
     6 x      -0.005792  0.017994  0.016417  0.086773  0.125977  0.125279
     6 y      -0.002443 -0.104238 -0.297808 -0.263601 -0.293152 -0.227562
     6 z      -0.003124  0.036644 -0.002959  0.012139  0.028995  0.007477
     7 x      -0.006502 -0.025073  0.007397  0.079971 -0.121601 -0.116443
     7 y       0.002286 -0.104785  0.298118  0.265739 -0.296335 -0.230669
     7 z       0.001333  0.030370  0.006428  0.012153 -0.007073 -0.027738
     8 x      -0.194067  0.255985  0.142171  0.006534  0.092479  0.007125
     8 y       0.127111 -0.149884 -0.109299  0.047598 -0.026155  0.098667
     8 z       0.205898 -0.269850 -0.223160  0.005404 -0.028285 -0.104679
     9 x       0.379807 -0.009856  0.460072 -0.107721  0.002784  0.002027
     9 y       0.004878 -0.005501  0.005908 -0.001383  0.077722  0.093295
     9 z       0.055331  0.068176  0.067023 -0.015693 -0.025945 -0.022129
    10 x      -0.011505  0.036590 -0.024523  0.000525  0.066912 -0.064840
    10 y      -0.000148  0.141821 -0.000317  0.000008  0.213596 -0.152950
    10 z      -0.001676 -0.263670 -0.003569  0.000074 -0.478132  0.458560
    11 x       0.007168 -0.010699 -0.057324  0.038245 -0.000195  0.010006
    11 y       0.000092 -0.194015 -0.000734  0.000491  0.167228 -0.249475
    11 z       0.001044  0.090537 -0.008352  0.005572 -0.013409 -0.046692
    12 x      -0.124007 -0.164515  0.069813  0.008997 -0.079879  0.020553
    12 y      -0.131196 -0.155282  0.112024 -0.047400 -0.028367  0.098840
    12 z      -0.252236 -0.331104  0.254050 -0.003144 -0.053394 -0.102722


  Frequency      -0.0000    0.0000    0.0000   60.3952   65.0319  117.2602
  IR Intensity    0.0000    0.0000    0.0000    0.0094    0.0422    0.0005
     in X         0.0000    0.0000    0.0000    0.0092    0.0003    0.0005
     in Y         0.0000    0.0000    0.0000    0.0000    0.0306    0.0000
     in Z         0.0000    0.0000    0.0000    0.0002    0.0113    0.0000
  Raman Intsty    0.0000    0.0000    0.0000    0.0000    0.0306    0.0000

     1 x       0.110596 -0.164903  0.260124 -0.156762 -0.014926 -0.180681
     1 y      -0.307699 -0.047170  0.100921 -0.002014 -0.352120 -0.002320
     1 z       0.013361  0.278695  0.170995 -0.022837  0.133498 -0.026322
     2 x       0.110596 -0.164903  0.260124  0.114016  0.054182  0.065239
     2 y      -0.307699 -0.047170  0.100921  0.381956  0.257916 -0.151250
     2 z       0.013361  0.278695  0.170995  0.074225 -0.001728  0.120766
     3 x       0.110596 -0.164903  0.260124  0.140020 -0.057905  0.093155
     3 y      -0.307699 -0.047170  0.100921 -0.378694  0.256476  0.153285
     3 z       0.013361  0.278695  0.170995 -0.037216 -0.018057 -0.097691
     4 x       0.092810 -0.138383  0.218291  0.016845  0.101224  0.197009
     4 y      -0.258216 -0.039584  0.084691  0.255665  0.274036 -0.139909
     4 z       0.011212  0.233876  0.143496  0.109810 -0.039022  0.230409
     5 x       0.092810 -0.138383  0.218291  0.053893 -0.092745  0.250969
     5 y      -0.258216 -0.039584  0.084691 -0.254756  0.271545  0.145663
     5 z       0.011212  0.233876  0.143496 -0.099506 -0.067280 -0.165147
     6 x       0.092810 -0.138383  0.218291  0.010446  0.105665  0.157873
     6 y      -0.258216 -0.039584  0.084691  0.434626  0.068253 -0.103808
     6 z       0.011212  0.233876  0.143496  0.058630 -0.012695  0.243473
     7 x       0.092810 -0.138383  0.218291  0.037664 -0.099335  0.218106
     7 y      -0.258216 -0.039584  0.084691 -0.434007  0.065622  0.108635
     7 z       0.011212  0.233876  0.143496 -0.051621 -0.042560 -0.188700
     8 x       0.092810 -0.138383  0.218291 -0.015684  0.070760 -0.190116
     8 y      -0.258216 -0.039584  0.084691  0.176151 -0.078359 -0.018810
     8 z       0.011212  0.233876  0.143496  0.037315  0.011710  0.187381
     9 x       0.092810 -0.138383  0.218291  0.050334 -0.001307  0.239052
     9 y      -0.258216 -0.039584  0.084691  0.000646  0.193615  0.003070
     9 z       0.011212  0.233876  0.143496  0.007333 -0.008097  0.034826
    10 x       0.092810 -0.138383  0.218291 -0.154436  0.003415 -0.413065
    10 y      -0.258216 -0.039584  0.084691 -0.001984 -0.312032 -0.005305
    10 z       0.011212  0.233876  0.143496 -0.022499  0.004068 -0.060176
    11 x       0.092810 -0.138383  0.218291 -0.115024  0.003713 -0.304097
    11 y      -0.258216 -0.039584  0.084691 -0.001478 -0.595893 -0.003906
    11 z       0.011212  0.233876  0.143496 -0.016757  0.027048 -0.044302
    12 x       0.092810 -0.138383  0.218291  0.000047 -0.069167 -0.129173
    12 y      -0.258216 -0.039584  0.084691 -0.176352 -0.080156  0.014709
    12 z       0.011212  0.233876  0.143496 -0.039592 -0.008675 -0.233896


  Frequency     120.8904  124.1338  128.7795  151.9847  161.4925  162.2717
  IR Intensity    0.0039    0.0207    0.0168    0.0033    0.0020    0.0028
     in X         0.0038    0.0001    0.0001    0.0000    0.0000    0.0028
     in Y         0.0000    0.0191    0.0153    0.0031    0.0000    0.0000
     in Z         0.0001    0.0015    0.0015    0.0002    0.0020    0.0001
  Raman Intsty    0.0000    0.7859    2.1777    0.8475    0.4658    0.0000

     1 x      -0.191328 -0.009866 -0.047538 -0.012162  0.005970  0.022598
     1 y      -0.002457  0.000622  0.102636  0.064329  0.023568  0.000291
     1 z      -0.027872  0.067671  0.317268  0.077810 -0.043060  0.003291
     2 x       0.170738 -0.286958  0.040894  0.039578  0.027159 -0.054856
     2 y      -0.004306  0.044381 -0.013624 -0.014094 -0.019062 -0.044369
     2 z      -0.210396 -0.042703 -0.115280 -0.023745 -0.012329  0.008364
     3 x       0.103460  0.286006 -0.005954 -0.030793 -0.022022 -0.051290
     3 y       0.007827  0.051738 -0.014226 -0.014997 -0.019696  0.043004
     3 z       0.250341  0.040768 -0.122106 -0.033997 -0.019493 -0.023829
     4 x       0.095987 -0.404366  0.065565 -0.030621 -0.104631 -0.269969
     4 y      -0.189850  0.153766  0.059112 -0.227541 -0.059827  0.283009
     4 z      -0.281781 -0.115625 -0.256988  0.136511  0.289991 -0.049903
     5 x       0.006810  0.416546  0.009003 -0.003879  0.019047 -0.265780
     5 y       0.191169  0.164309  0.058385 -0.227196 -0.058222 -0.289893
     5 z       0.296756  0.003968 -0.265230  0.140406  0.308008 -0.028123
     6 x       0.243347 -0.374902  0.156348 -0.103713 -0.090086  0.512585
     6 y       0.111944 -0.124880 -0.197318  0.233906  0.181323 -0.035283
     6 z      -0.360428 -0.076864 -0.189450 -0.142777 -0.258609  0.077208
     7 x       0.133154  0.384266 -0.090795  0.134212  0.155493  0.512265
     7 y      -0.107107 -0.115131 -0.200491  0.236961  0.184473  0.048456
     7 z       0.415276  0.033735 -0.225456 -0.108117 -0.222834  0.072077
     8 x       0.003971 -0.113244  0.063860  0.144561  0.098356 -0.200208
     8 y      -0.012730 -0.058427  0.007902 -0.063570 -0.037655 -0.129160
     8 z      -0.094385 -0.055783  0.063579  0.158785 -0.094358 -0.011142
     9 x      -0.028975 -0.015224  0.021169  0.037037  0.025501 -0.118313
     9 y      -0.000372  0.022640 -0.082683  0.002913  0.096513 -0.001517
     9 z      -0.004222  0.102504 -0.138018 -0.254482 -0.183526 -0.017243
    10 x      -0.285100  0.002509 -0.050083 -0.011525  0.028557  0.096392
    10 y      -0.003661  0.083743  0.223444  0.530398 -0.402079  0.001228
    10 z      -0.041533 -0.024599  0.324085  0.032352 -0.160601  0.014038
    11 x      -0.244503 -0.008578 -0.080534  0.020153 -0.079111  0.030839
    11 y      -0.003140 -0.185942  0.036468 -0.460097  0.153352  0.000399
    11 z      -0.035618  0.075276  0.549597 -0.097772  0.529513  0.004508
    12 x      -0.023441  0.125884 -0.079520 -0.182202 -0.066361 -0.198253
    12 y       0.012479 -0.055356  0.006061 -0.067766 -0.039777  0.124039
    12 z       0.091550 -0.020944  0.042691  0.111181 -0.118354 -0.046912


  Frequency     166.3383  166.9895  169.8633  171.6255  181.5378  181.9988
  IR Intensity    0.0000    0.0178    0.0003    0.0004    0.0059    0.0000
     in X         0.0000    0.0000    0.0003    0.0000    0.0000    0.0000
     in Y         0.0000    0.0177    0.0000    0.0001    0.0057    0.0000
     in Z         0.0000    0.0001    0.0000    0.0003    0.0002    0.0000
  Raman Intsty    0.0000    0.0078    0.0000    0.2398    0.8168    0.0000

     1 x       0.009088 -0.004590 -0.011219  0.002177 -0.010438  0.083411
     1 y       0.000117  0.002980 -0.000144 -0.016618 -0.034865  0.001072
     1 z       0.001324  0.031245 -0.001634 -0.013482  0.074729  0.012151
     2 x       0.010368  0.006493  0.000560 -0.015654 -0.000904 -0.026845
     2 y      -0.021610  0.033563  0.034857  0.008551  0.061993 -0.135705
     2 z      -0.003040  0.000844  0.008495  0.006899 -0.044978  0.024193
     3 x       0.008522 -0.007307  0.003837  0.012816  0.012138 -0.022233
     3 y       0.021854  0.033386 -0.034800  0.008916  0.062164  0.135073
     3 z       0.005792 -0.001166 -0.007855  0.011047 -0.043079 -0.031342
     4 x       0.033163  0.187896 -0.001976  0.243836  0.291218 -0.218826
     4 y       0.081904 -0.306114  0.033239  0.017848  0.126324  0.201374
     4 z       0.446842 -0.240234 -0.044848  0.171733  0.223029  0.092080
     5 x       0.161298 -0.103806 -0.013850 -0.283062 -0.345824 -0.178320
     5 y      -0.079417 -0.309859 -0.033442  0.011081  0.118138 -0.206479
     5 z      -0.418520 -0.282715  0.042543  0.094973  0.130220 -0.149942
     6 x      -0.035041 -0.298415 -0.028212 -0.061728 -0.315258  0.033100
     6 y       0.041678 -0.044015  0.006326 -0.142927 -0.230681 -0.150276
     6 z      -0.429625  0.071569 -0.023455 -0.337495  0.101381 -0.184877
     7 x      -0.155073  0.266616 -0.033562  0.159011  0.278934 -0.024810
     7 y      -0.044120 -0.036758 -0.007119 -0.140092 -0.223046  0.150389
     7 z       0.401932  0.153870  0.014456 -0.305336  0.187949  0.186081
     8 x      -0.113266  0.199553 -0.024303 -0.177911 -0.068776  0.388304
     8 y      -0.285337  0.234224 -0.147637 -0.227404  0.131846  0.225332
     8 z       0.002138  0.022996  0.057768 -0.007225 -0.100751  0.232381
     9 x       0.080755 -0.035171 -0.014000 -0.053612  0.074491  0.007766
     9 y       0.001043  0.383595 -0.000180  0.433707 -0.175506  0.000102
     9 z       0.011768  0.207601 -0.002040  0.329774 -0.495856  0.001138
    10 x       0.115004  0.009956 -0.606508 -0.022708 -0.011690 -0.312631
    10 y       0.001474 -0.162532 -0.007789  0.153977  0.022339 -0.004016
    10 z       0.016753 -0.054025 -0.088357  0.142293  0.078247 -0.045546
    11 x      -0.005086 -0.016546  0.741060  0.018721  0.004625 -0.179490
    11 y      -0.000066 -0.070909  0.009517  0.115629 -0.009713 -0.002305
    11 z      -0.000739  0.119831  0.107959 -0.138696 -0.030908 -0.026148
    12 x      -0.115094 -0.203643 -0.010519  0.178241  0.091332  0.443994
    12 y       0.282411  0.229039  0.147190 -0.222831  0.133896 -0.214645
    12 z      -0.035406 -0.035742 -0.062841  0.044659 -0.077430 -0.111128


  Frequency     188.1269  199.6566  223.9042  235.9569  251.9651  259.5708
  IR Intensity    0.0053    0.0048    0.0049    0.0061    0.0055    0.0180
     in X         0.0000    0.0047    0.0000    0.0060    0.0001    0.0177
     in Y         0.0031    0.0000    0.0047    0.0000    0.0000    0.0000
     in Z         0.0021    0.0001    0.0002    0.0001    0.0054    0.0004
  Raman Intsty    0.2369    0.0000    4.1172    0.0000    0.1915    0.0000

     1 x       0.009090  0.026654 -0.001142 -0.026497 -0.014969 -0.298600
     1 y      -0.013738  0.000342  0.036774 -0.000341  0.334378 -0.003834
     1 z      -0.061185  0.003883  0.004599 -0.003860  0.073278 -0.043501
     2 x       0.000528  0.094565  0.132869  0.023224 -0.104377  0.008890
     2 y       0.056178  0.029283 -0.053378  0.203700 -0.156453 -0.057157
     2 z      -0.031387 -0.009558 -0.016637  0.082016  0.058981  0.262160
     3 x       0.007035  0.088615 -0.121217  0.050770  0.087116  0.081864
     3 y       0.056262 -0.026930 -0.056641 -0.202751 -0.153994  0.058324
     3 z      -0.030439  0.036244 -0.053652 -0.071236  0.086878 -0.248938
     4 x       0.020472 -0.251239 -0.139275  0.258962 -0.010057 -0.154852
     4 y      -0.138161 -0.066860  0.145336  0.141649  0.009015 -0.102646
     4 z      -0.109395 -0.155073 -0.059240 -0.185884 -0.028744 -0.147244
     5 x       0.015066 -0.286636  0.146687  0.198654  0.017608 -0.192951
     5 y      -0.138231  0.059954  0.149009 -0.135772  0.009372  0.098179
     5 z      -0.110182  0.076714 -0.017581  0.252551 -0.024714  0.096574
     6 x       0.012640 -0.112187 -0.114026 -0.045128  0.140399 -0.000386
     6 y       0.128379  0.159877 -0.072288 -0.198747 -0.125105  0.020181
     6 z       0.324342  0.123330  0.074465 -0.095494 -0.042407 -0.200836
     7 x      -0.107862 -0.068286  0.089827 -0.075478 -0.119276 -0.057152
     7 y       0.126831 -0.162195 -0.069669  0.197196 -0.128440 -0.020919
     7 z       0.306788 -0.149621  0.104162  0.077924 -0.080237  0.192453
     8 x      -0.257310  0.164993  0.329095 -0.085963 -0.245994 -0.180032
     8 y      -0.305331 -0.455928 -0.256350 -0.108262  0.114875  0.213405
     8 z      -0.198527  0.212362  0.210271  0.418957  0.290777  0.206352
     9 x       0.034296  0.290371  0.037982 -0.378851  0.044045  0.448547
     9 y       0.344725  0.003728  0.288942 -0.004864  0.334530  0.005760
     9 z      -0.265804  0.042302 -0.286195 -0.055192 -0.331820  0.065345
    10 x      -0.009534  0.010647 -0.027303  0.118649  0.052217  0.259184
    10 y       0.138431  0.000136 -0.136546  0.001524 -0.189718  0.003328
    10 z       0.053239  0.001552  0.199456  0.017285 -0.341707  0.037758
    11 x      -0.038457 -0.204906  0.033338 -0.081871  0.009611  0.233582
    11 y       0.023773 -0.002631  0.304161 -0.001052 -0.173004  0.003000
    11 z       0.261882 -0.029852 -0.255653 -0.011927 -0.050726  0.034028
    12 x       0.310845  0.207197 -0.368849  0.034428  0.149855 -0.108261
    12 y      -0.298034  0.460706 -0.265314  0.107602  0.119959 -0.217109
    12 z      -0.115758 -0.158141  0.108593 -0.426465  0.348446 -0.248350


  Frequency     260.8903  281.1249  291.9904  350.8625  352.6341  397.8655
  IR Intensity    0.4069    0.4248    0.4828    0.1234    0.0258    0.0006
     in X         0.0006    0.4159    0.0097    0.0008    0.0253    0.0000
     in Y         0.3921    0.0001    0.0070    0.0733    0.0000    0.0001
     in Z         0.0141    0.0088    0.4662    0.0493    0.0005    0.0005
  Raman Intsty    0.0076    0.0000    0.0284    0.0066    0.0000    0.0057

     1 x       0.010469  0.171596 -0.075276  0.040720 -0.602429  0.066400
     1 y      -0.326093  0.002204 -0.048637 -0.317737 -0.007743 -0.282069
     1 z      -0.043118  0.024998  0.520999 -0.251418 -0.087768 -0.430926
     2 x      -0.029548  0.459137 -0.173234  0.343478  0.186749 -0.465765
     2 y      -0.341303 -0.063772 -0.017492 -0.025344 -0.141805  0.122790
     2 z      -0.123579 -0.007424  0.227568  0.406410 -0.385684  0.170982
     3 x       0.072147  0.436186  0.101504 -0.444392  0.065322  0.394396
     3 y      -0.339997  0.075271 -0.013964 -0.035468  0.145041  0.133836
     3 z      -0.108764  0.137856  0.267592  0.291615  0.422420  0.296292
     4 x      -0.112209 -0.098041 -0.054530 -0.107978 -0.024304  0.101101
     4 y       0.129529  0.248533 -0.135415  0.034235  0.078822 -0.045902
     4 z       0.169631 -0.094157 -0.058667 -0.153086  0.117127 -0.031427
     5 x       0.055861 -0.114544  0.072386  0.146264  0.012114 -0.086747
     5 y       0.131689 -0.251263 -0.133785  0.037503 -0.078977 -0.048314
     5 z       0.194115  0.063187 -0.040177 -0.116043 -0.118908 -0.058793
     6 x       0.129685 -0.228138  0.084520 -0.097974 -0.039327  0.113213
     6 y      -0.067013 -0.196079  0.100355 -0.026180 -0.008897 -0.032364
     6 z       0.107590 -0.009064 -0.130430 -0.148982  0.125001 -0.045425
     7 x      -0.153261 -0.226100 -0.046297  0.137029 -0.002240 -0.094700
     7 y      -0.070648  0.190246  0.098676 -0.023163  0.008362 -0.035034
     7 z       0.066371 -0.057110 -0.149488 -0.114741 -0.131062 -0.075714
     8 x       0.117261 -0.235797  0.001131 -0.162446  0.070231  0.142973
     8 y       0.245538  0.037378  0.076360  0.119842  0.029524 -0.007930
     8 z      -0.163451 -0.150592 -0.279026  0.013132  0.132086  0.128512
     9 x      -0.007839  0.118824  0.030779  0.022320 -0.115107  0.028686
     9 y       0.409368  0.001526  0.082072  0.030040 -0.001478 -0.000241
     9 z       0.017735  0.017311 -0.218509 -0.155838 -0.016772 -0.196887
    10 x      -0.011730 -0.112450 -0.035988 -0.004846  0.215904 -0.009775
    10 y       0.248400 -0.001444 -0.164638  0.127589  0.002775  0.092189
    10 z       0.058622 -0.016382  0.261543  0.021986  0.031454  0.058969
    11 x      -0.009107 -0.107192  0.046586 -0.009517  0.194509 -0.015385
    11 y      -0.069524 -0.001377  0.094487  0.027385  0.002498  0.119909
    11 z       0.068645 -0.015615 -0.328109  0.062885  0.028338  0.095036
    12 x      -0.071899 -0.267941  0.076591  0.148879  0.105718 -0.173445
    12 y       0.243108 -0.043848  0.077329  0.123842 -0.027259 -0.011993
    12 z      -0.191007  0.077207 -0.268032  0.058491 -0.106451  0.082415




--------------------------------------------------------------------------------
  Vibrational properties (for cluster):  Temperature  =       0.000 K
--------------------------------------------------------------------------------
  Zero point energy            =        0.336318 eV
--------------------------------------------------------------------------------

  Phonon density of states : 

--------------------------------------------------------------------------------
 Frequency (cm-1) Density of States                                             
--------------------------------------------------------------------------------
    0.00000 |****************************************                      0.069
    6.21665 |                                                              0.000
   12.43330 |                                                              0.000
   18.64995 |                                                              0.000
   24.86660 |                                                              0.000
   31.08324 |                                                              0.000
   37.29989 |                                                              0.000
   43.51654 |                                                              0.000
   49.73319 |                                                              0.000
   55.94984 |********************                                          0.034
   62.16649 |********************                                          0.034
   68.38314 |                                                              0.000
   74.59979 |                                                              0.000
   80.81644 |                                                              0.000
   87.03308 |                                                              0.000
   93.24973 |                                                              0.000
   99.46638 |                                                              0.000
  105.68303 |                                                              0.000
  111.89968 |********************                                          0.034
  118.11633 |****************************************                      0.069
  124.33298 |********************                                          0.034
  130.54963 |                                                              0.000
  136.76628 |                                                              0.000
  142.98292 |                                                              0.000
  149.19957 |********************                                          0.034
  155.41622 |********************                                          0.034
  161.63287 |************************************************************  0.103
  167.84952 |****************************************                      0.069
  174.06617 |                                                              0.000
  180.28282 |****************************************                      0.069
  186.49947 |********************                                          0.034
  192.71612 |                                                              0.000
  198.93277 |********************                                          0.034
  205.14941 |                                                              0.000
  211.36606 |                                                              0.000
  217.58271 |                                                              0.000
  223.79936 |********************                                          0.034
  230.01601 |********************                                          0.034
  236.23266 |                                                              0.000
  242.44931 |                                                              0.000
  248.66596 |********************                                          0.034
  254.88261 |****************************************                      0.069
  261.09925 |                                                              0.000
  267.31590 |                                                              0.000
  273.53255 |                                                              0.000
  279.74920 |********************                                          0.034
  285.96585 |********************                                          0.034
  292.18250 |                                                              0.000
  298.39915 |                                                              0.000
  304.61580 |                                                              0.000
  310.83245 |                                                              0.000
  317.04909 |                                                              0.000
  323.26574 |                                                              0.000
  329.48239 |                                                              0.000
  335.69904 |                                                              0.000
  341.91569 |                                                              0.000
  348.13234 |****************************************                      0.069
  354.34899 |                                                              0.000
  360.56564 |                                                              0.000
  366.78229 |                                                              0.000
  372.99893 |                                                              0.000
  379.21558 |                                                              0.000
  385.43223 |                                                              0.000
  391.64888 |********************                                          0.034
--------------------------------------------------------------------------------



  XYZ File written as 002/4/sp_mod_-60/sp_mod_-60_eig.xyz


  Time to end of properties =       0.0139 seconds


  Peak dynamic memory used =       0.64 MB 


  Timing analysis for GULP :

--------------------------------------------------------------------------------
  Task / Subroutine                                          Time (Seconds)
--------------------------------------------------------------------------------
  Calculation of real space energy and derivatives                0.0001
  Calculation of phonons                                          0.0038
--------------------------------------------------------------------------------
  Total CPU time                                                  0.0140
--------------------------------------------------------------------------------


  Job Finished at 10:30.30 17th May        2022                               

