------------------------------------------------------------
          Invoking FHI-aims ...

          When using FHI-aims, please cite the following reference:

            Volker Blum, Ralf Gehrke, Felix Hanke, Paula Havu,
            Ville Havu, Xinguo Ren, Karsten Reuter, and Matthias Scheffler,
            'Ab Initio Molecular Simulations with Numeric Atom-Centered Orbitals',
            Computer Physics Communications 180, 2175-2196 (2009)

          In addition, many other developments in FHI-aims are likely important for
          your particular application. A partial list of references is given at the end of
          this file. Thank you for giving credit to the authors of these developments.

          For any questions about FHI-aims, please visit our slack channel at

            https://fhi-aims.slack.com

          and our main development and support site at

            https://aims-git.rz-berlin.mpg.de .

          The latter site, in particular, has a wiki to collect information, as well
          as an issue tracker to log discussions, suggest improvements, and report issues
          or bugs. https://aims-git.rz-berlin.mpg.de is also the main development site
          of the project and all new and updated code versions can be obtained there.
          Please send an email to aims-coordinators@fhi-berlin.mpg.de and we will add
          you to these sites. They are for you and everyone is welcome there.

------------------------------------------------------------



  Date     :  20220517, Time     :  122056.886
  Time zero on CPU 1             :   0.402010000000000E-01  s.
  Internal wall clock time zero  :           422022056.886  s.

  FHI-aims created a unique identifier for this run for later identification
  aims_uuid : D312BBDD-418A-4519-AD5E-23710187433D

  Build configuration of the current instance of FHI-aims
  -------------------------------------------------------
  FHI-aims version      : 210914
  Commit number         : GITDIR-NOTFOUND
  CMake host system     : Linux-3.10.0-693.17.1.el7.x86_64
  CMake version         : 3.21.1
  Fortran compiler      : /shared/ucl/apps/intel/2018.Update3/impi/2018.3.222/intel64/bin/mpiifort (Intel) version 18.0.3.20180410
  Fortran compiler flags: -O3 -ip -fp-model precise
  C compiler            : /shared/ucl/apps/intel/2018.Update3/compilers_and_libraries_2018.3.222/linux/bin/intel64/icc (Intel) version 18.0.3.20180410
  C compiler flags      : -O3 -ip -fp-model precise -std=gnu99
  ELPA2 kernel          : AVX2
  Using MPI
  Using ScaLAPACK
  Using LibXC
  Using i-PI
  Using RLSY
  Linking against: /shared/ucl/apps/intel/2019.Update5/compilers_and_libraries_2019.5.281/linux/mkl/lib/intel64/libmkl_intel_lp64.so
                   /shared/ucl/apps/intel/2019.Update5/compilers_and_libraries_2019.5.281/linux/mkl/lib/intel64/libmkl_sequential.so
                   /shared/ucl/apps/intel/2019.Update5/compilers_and_libraries_2019.5.281/linux/mkl/lib/intel64/libmkl_core.so
                   /shared/ucl/apps/intel/2019.Update5/compilers_and_libraries_2019.5.281/linux/mkl/lib/intel64/libmkl_blacs_intelmpi_lp64.so
                   /shared/ucl/apps/intel/2019.Update5/compilers_and_libraries_2019.5.281/linux/mkl/lib/intel64/libmkl_scalapack_lp64.so

  Using       24 parallel tasks.
  Task        0 on host node-k98a-028 reporting.
  Task        1 on host node-k98a-028 reporting.
  Task        2 on host node-k98a-028 reporting.
  Task        3 on host node-k98a-028 reporting.
  Task        4 on host node-k98a-028 reporting.
  Task        5 on host node-k98a-028 reporting.
  Task        6 on host node-k98a-028 reporting.
  Task        7 on host node-k98a-028 reporting.
  Task        8 on host node-k98a-028 reporting.
  Task        9 on host node-k98a-028 reporting.
  Task       10 on host node-k98a-028 reporting.
  Task       11 on host node-k98a-028 reporting.
  Task       12 on host node-k98a-028 reporting.
  Task       13 on host node-k98a-028 reporting.
  Task       14 on host node-k98a-028 reporting.
  Task       15 on host node-k98a-028 reporting.
  Task       16 on host node-k98a-028 reporting.
  Task       17 on host node-k98a-028 reporting.
  Task       18 on host node-k98a-028 reporting.
  Task       19 on host node-k98a-028 reporting.
  Task       20 on host node-k98a-028 reporting.
  Task       21 on host node-k98a-028 reporting.
  Task       22 on host node-k98a-028 reporting.
  Task       23 on host node-k98a-028 reporting.

  Performing system and environment tests:
  | Environment variable OMP_NUM_THREADS correctly set to 1.
  | Checking for ScaLAPACK...
  | Testing pdtran()...
  | All pdtran() tests passed.

  Obtaining array dimensions for all initial allocations:
  
  -----------------------------------------------------------------------
  Parsing control.in (first pass over file, find array dimensions only).
  The contents of control.in will be repeated verbatim below
  unless switched off by setting 'verbatim_writeout .false.' .
  in the first line of control.in .
  -----------------------------------------------------------------------
  
  #########################################################################################  Physical model
  #########################################################################################
  xc                 pbesol
  spin               none
  relativistic       atomic_zora scalar
  charge             0.0
  #  SCF convergence
  occupation_type    gaussian 0.01
  mixer              pulay
  n_max_pulay        10
  charge_mix_param   0.5
  sc_accuracy_rho    1E-5
  sc_accuracy_eev    1E-3
  sc_accuracy_etot   1E-6
  sc_accuracy_forces 1E-4
  sc_iter_limit      1500
  #  Relaxation
  #relax_geometry   bfgs 1.e-3
  
  ################################################################################
  #
  #  FHI-aims code project
  #  VB, Fritz-Haber Institut, 2009
  #
  #  Suggested "light" defaults for Al atom (to be pasted into control.in file)
  #  Be sure to double-check any results obtained with these settings for post-processing,
  #  e.g., with the "tight" defaults and larger basis sets.
  #
  ################################################################################
    species        Al
  #     global species definitions
      nucleus             13
      mass                26.9815386
  #
      l_hartree           4
  #
      cut_pot             3.5          1.5  1.0
      basis_dep_cutoff    1e-4
  #
      radial_base         41 5.0
      radial_multiplier   1
      angular_grids       specified
        division   0.6594  110
        division   0.8170  194
        division   0.9059  302
  #      division   1.0363  434
  #      division   1.1443  590
  #      division   1.2621  770
  #      division   2.8177  974
  #      outer_grid   974
        outer_grid   302
  ################################################################################
  #
  #  Definition of "minimal" basis
  #
  ################################################################################
  #     valence basis states
      valence      3  s   2.
      valence      3  p   1.
  #     ion occupancy
      ion_occ      3  s   1.
      ion_occ      2  p   6.
  ################################################################################
  #
  #  Suggested additional basis functions. For production calculations,
  #  uncomment them one after another (the most important basis functions are
  #  listed first).
  #
  #  Constructed for dimers: 2.0 A, 2.5 A, 3.0 A, 3.75 A, 4.5 A
  #
  ################################################################################
  #  "First tier" - improvements: -199.47 meV to -10.63 meV
       ionic 3 d auto
       ionic 3 p auto
  #     hydro 4 f 4.7
       ionic 3 s auto
  #  "Second tier" - improvements: -5.35 meV to -1.57 meV
  #     hydro 5 g 7
  #     hydro 3 d 6
  #     hydro 2 s 11.6
  #     hydro 2 p 0.9
  #  "Third tier" - improvements: -0.63 meV to -0.20 meV
  #     hydro 5 f 7.6
  #     hydro 4 p 7.2
  #     hydro 4 s 3.7
  #     hydro 4 d 7.6
  #  "Fourth tier" - improvements: -0.17 meV to -0.08 meV
  #     hydro 4 d 13.6
  #     hydro 5 g 11.2
  #     hydro 4 d 0.9
  #     hydro 1 s 0.4
  #     hydro 4 p 0.1
  #     hydro 5 f 9.8
  #  Further basis functions that fell out of the optimization - noise level...
  #     hydro 4 p 5
  
  ################################################################################
  #
  #  FHI-aims code project
  #  VB, Fritz-Haber Institut, 2009
  #
  #  Suggested "light" defaults for F atom (to be pasted into control.in file)
  #  Be sure to double-check any results obtained with these settings for post-processing,
  #  e.g., with the "tight" defaults and larger basis sets.
  #
  ################################################################################
    species        F
  #     global species definitions
      nucleus             9
      mass                18.9984032
  #
      l_hartree           4
  #
      cut_pot             3.5  1.5  1.0
      basis_dep_cutoff    1e-4
  #
      radial_base         37 5.0
      radial_multiplier   1
      angular_grids specified
        division   0.4014  110
        division   0.5291  194
        division   0.6019  302
  #      division   0.6814  434
  #      division   0.7989  590
  #      division   0.8965  770
  #      division   1.3427  974
  #      outer_grid   974
        outer_grid   302
  ################################################################################
  #
  #  Definition of "minimal" basis
  #
  ################################################################################
  #     valence basis states
      valence      2  s   2.
      valence      2  p   5.
  #     ion occupancy
      ion_occ      2  s   1.
      ion_occ      2  p   4.
  ################################################################################
  #
  #  Suggested additional basis functions. For production calculations,
  #  uncomment them one after another (the most important basis functions are
  #  listed first).
  #
  #  Constructed for dimers: 1.2 A, 1.418 A, 1.75 A, 2.25 A, 3.25 A
  #
  ################################################################################
  #  "First tier" - improvements: -149.44 meV to -45.88 meV
       hydro 2 p 1.7
       hydro 3 d 7.4
       hydro 3 s 6.8
  #  "Second tier" - improvements: -12.96 meV to -1.56 meV
  #     hydro 4 f 11.2
  #     ionic 2 p auto
  #     hydro 1 s 0.75
  #     hydro 4 d 8.8
  #     hydro 5 g 16.8
  #  "Third tier" - improvements: -0.58 meV to -0.05 meV
  #     hydro 3 p 6.2
  #     hydro 3 s 3.2
  #     hydro 4 f 9.6
  #     hydro 3 s 19.6
  #     hydro 4 d 8.6
  #     hydro 5 g 14.4
  # Further basis functions: -0.05 meV and below
  #     hydro 3 p 4.2
  
  -----------------------------------------------------------------------
  Completed first pass over input file control.in .
  -----------------------------------------------------------------------
  
  
  -----------------------------------------------------------------------
  Parsing geometry.in (first pass over file, find array dimensions only).
  The contents of geometry.in will be repeated verbatim below
  unless switched off by setting 'verbatim_writeout .false.' .
  in the first line of geometry.in .
  -----------------------------------------------------------------------
  
  atom -1.692015189 2.562702285 -1.221738006 Al
  atom -0.441073170 0.025384404 -2.442307356 Al
  atom -2.288361386 -0.350474112 -0.415262049 Al
  atom -0.747698680 3.699195111 -0.150431773 F
  atom -3.006504770 3.154109466 -2.309999319 F
  atom -1.374255088 -1.284653437 -1.645540154 F
  atom -2.437739880 1.394863710 -0.091191215 F
  atom -3.373344730 -1.424982146 0.736564564 F
  atom 0.760771090 -0.583833660 -3.799836600 F
  atom -0.456966893 1.797881722 -2.264710522 F
  atom -2.440665557 0.451594351 -2.295443828 F
  atom -0.334100963 0.121792380 -0.436840588 F
  
  -----------------------------------------------------------------------
  Completed first pass over input file geometry.in .
  -----------------------------------------------------------------------
  

  Basic array size parameters:
  | Number of species                 :        2
  | Number of atoms                   :       12
  | Max. basis fn. angular momentum   :        2
  | Max. atomic/ionic basis occupied n:        3
  | Max. number of basis fn. types    :        3
  | Max. radial fns per species/type  :        5
  | Max. logarithmic grid size        :     1340
  | Max. radial integration grid size :       41
  | Max. angular integration grid size:      302
  | Max. angular grid division number :        8
  | Radial grid for Hartree potential :     1340
  | Number of spin channels           :        1

------------------------------------------------------------
          Reading file control.in.
------------------------------------------------------------
  XC: Using PBEsol gradient-corrected functionals.
  Spin treatment: No spin polarisation.
  Scalar relativistic treatment of kinetic energy: on-site free-atom approximation to ZORA.
  Charge =   0.000000E+00: Neutral system requested explicitly.
  Occupation type: Gaussian broadening, width =   0.100000E-01 eV.
  Using pulay charge density mixing.
  Pulay mixing - number of memorized iterations:   10
  Charge density mixing - mixing parameter:     0.5000
  Convergence accuracy of self-consistent charge density:  0.1000E-04
  Convergence accuracy of sum of eigenvalues:  0.1000E-02
  Convergence accuracy of total energy:  0.1000E-05
  Convergence accuracy of forces:  0.1000E-03
  Maximum number of s.-c. iterations  :  1500
 
  Reading configuration options for species Al                  .
  | Found nuclear charge :  13.0000
  | Found atomic mass :    26.9815386000000      amu
  | Found l_max for Hartree potential  :   4
  | Found cutoff potl. onset [A], width [A], scale factor :    3.50000    1.50000    1.00000
  | Threshold for basis-dependent cutoff potential is   0.100000E-03
  | Found data for basic radial integration grid :    41 points, outermost radius =    5.000 A
  | Found multiplier for basic radial grid :   1
  | Found angular grid specification: user-specified.
  | Specified grid contains     4 separate shells.
  | Check grid settings after all constraints further below.
  | Found free-atom valence shell :  3 s   2.000
  | Found free-atom valence shell :  3 p   1.000
  | Found free-ion valence shell :  3 s   1.000
  | Found free-ion valence shell :  2 p   6.000
  | Found ionic basis function :  3 d , default cutoff radius.
  | Found ionic basis function :  3 p , default cutoff radius.
  | Found ionic basis function :  3 s , default cutoff radius.
  Species Al                  : Missing cutoff potential type.
  Defaulting to exp(1/x)/(1-x)^2 type cutoff potential.
  Species Al: No 'logarithmic' tag. Using default grid for free atom:
  | Default logarithmic grid data [bohr] : 0.1000E-03 0.1000E+03 0.1012E+01
  | Will include ionic basis functions of  2.0-fold positive Al                   ion.
  Species Al: On-site basis accuracy parameter (for Gram-Schmidt orthonormalisation) not specified.
  Using default value basis_acc =  0.1000000E-03.
  Species Al                  : Using default innermost maximum threshold i_radial=  2 for radial functions.
  Species Al                  : Default cutoff onset for free atom density etc. : 0.35000000E+01 AA.
  Species Al                  : Basic radial grid will be enhanced according to radial_multiplier =   1, to contain    41 grid points.
 
  Reading configuration options for species F                   .
  | Found nuclear charge :   9.0000
  | Found atomic mass :    18.9984032000000      amu
  | Found l_max for Hartree potential  :   4
  | Found cutoff potl. onset [A], width [A], scale factor :    3.50000    1.50000    1.00000
  | Threshold for basis-dependent cutoff potential is   0.100000E-03
  | Found data for basic radial integration grid :    37 points, outermost radius =    5.000 A
  | Found multiplier for basic radial grid :   1
  | Found angular grid specification: user-specified.
  | Specified grid contains     4 separate shells.
  | Check grid settings after all constraints further below.
  | Found free-atom valence shell :  2 s   2.000
  | Found free-atom valence shell :  2 p   5.000
  | Found free-ion valence shell :  2 s   1.000
  | Found free-ion valence shell :  2 p   4.000
  | Found hydrogenic basis function :  2 p   1.700
  | Found hydrogenic basis function :  3 d   7.400
  | Found hydrogenic basis function :  3 s   6.800
  Species F                   : Missing cutoff potential type.
  Defaulting to exp(1/x)/(1-x)^2 type cutoff potential.
  Species F : No 'logarithmic' tag. Using default grid for free atom:
  | Default logarithmic grid data [bohr] : 0.1000E-03 0.1000E+03 0.1012E+01
  Species F : On-site basis accuracy parameter (for Gram-Schmidt orthonormalisation) not specified.
  Using default value basis_acc =  0.1000000E-03.
  Species F                   : Using default innermost maximum threshold i_radial=  2 for radial functions.
  Species F                   : Default cutoff onset for free atom density etc. : 0.35000000E+01 AA.
  Species F                   : Basic radial grid will be enhanced according to radial_multiplier =   1, to contain    37 grid points.
 
  Finished reading input file 'control.in'.
 
------------------------------------------------------------


------------------------------------------------------------
          Reading geometry description geometry.in.
------------------------------------------------------------
  | The smallest distance between any two atoms is         1.78144322 AA.
  | The first atom of this pair is atom number                      3 .
  | The second atom of this pair is atom number                     7 .
  Input structure read successfully.
  The structure contains       12 atoms,  and a total of        120.000 electrons.

  Input geometry:
  | No unit cell requested.
  | Atomic structure:
  |       Atom                x [A]            y [A]            z [A]
  |    1: Species Al           -1.69201519        2.56270228       -1.22173801
  |    2: Species Al           -0.44107317        0.02538440       -2.44230736
  |    3: Species Al           -2.28836139       -0.35047411       -0.41526205
  |    4: Species F            -0.74769868        3.69919511       -0.15043177
  |    5: Species F            -3.00650477        3.15410947       -2.30999932
  |    6: Species F            -1.37425509       -1.28465344       -1.64554015
  |    7: Species F            -2.43773988        1.39486371       -0.09119122
  |    8: Species F            -3.37334473       -1.42498215        0.73656456
  |    9: Species F             0.76077109       -0.58383366       -3.79983660
  |   10: Species F            -0.45696689        1.79788172       -2.26471052
  |   11: Species F            -2.44066556        0.45159435       -2.29544383
  |   12: Species F            -0.33410096        0.12179238       -0.43684059

 
  Finished reading input file 'control.in'.
 

------------------------------------------------------------
          Reading geometry description geometry.in.
------------------------------------------------------------
 
  Consistency checks for stacksize environment parameter are next.
 
  | Maximum stacksize for task 0: unlimited
  | Maximum stacksize for task 1: unlimited
  | Maximum stacksize for task 2: unlimited
  | Maximum stacksize for task 3: unlimited
  | Maximum stacksize for task 4: unlimited
  | Maximum stacksize for task 5: unlimited
  | Maximum stacksize for task 6: unlimited
  | Maximum stacksize for task 7: unlimited
  | Maximum stacksize for task 8: unlimited
  | Maximum stacksize for task 9: unlimited
  | Maximum stacksize for task 10: unlimited
  | Maximum stacksize for task 11: unlimited
  | Maximum stacksize for task 12: unlimited
  | Maximum stacksize for task 13: unlimited
  | Maximum stacksize for task 14: unlimited
  | Maximum stacksize for task 15: unlimited
  | Maximum stacksize for task 16: unlimited
  | Maximum stacksize for task 17: unlimited
  | Maximum stacksize for task 18: unlimited
  | Maximum stacksize for task 19: unlimited
  | Maximum stacksize for task 20: unlimited
  | Maximum stacksize for task 21: unlimited
  | Maximum stacksize for task 22: unlimited
  | Maximum stacksize for task 23: unlimited
  | Current stacksize for task 0: unlimited
  | Current stacksize for task 1: unlimited
  | Current stacksize for task 2: unlimited
  | Current stacksize for task 3: unlimited
  | Current stacksize for task 4: unlimited
  | Current stacksize for task 5: unlimited
  | Current stacksize for task 6: unlimited
  | Current stacksize for task 7: unlimited
  | Current stacksize for task 8: unlimited
  | Current stacksize for task 9: unlimited
  | Current stacksize for task 10: unlimited
  | Current stacksize for task 11: unlimited
  | Current stacksize for task 12: unlimited
  | Current stacksize for task 13: unlimited
  | Current stacksize for task 14: unlimited
  | Current stacksize for task 15: unlimited
  | Current stacksize for task 16: unlimited
  | Current stacksize for task 17: unlimited
  | Current stacksize for task 18: unlimited
  | Current stacksize for task 19: unlimited
  | Current stacksize for task 20: unlimited
  | Current stacksize for task 21: unlimited
  | Current stacksize for task 22: unlimited
  | Current stacksize for task 23: unlimited
 
  Consistency checks for the contents of control.in are next.
 
  MPI_IN_PLACE appears to work with this MPI implementation.
  | Keeping use_mpi_in_place .true. (see manual).
  Target number of points in a grid batch is not set. Defaulting to  100
  Method for grid partitioning is not set. Defaulting to parallel hash+maxmin partitioning.
  Batch size limit is not set. Defaulting to    200
  By default, will store active basis functions for each batch.
  If in need of memory, prune_basis_once .false. can be used to disable this option.
  communication_type for Hartree potential was not specified.
  Defaulting to calc_hartree .
  Pulay mixer: Number of initial linear mixing iterations not set.
  Defaulting to    0 iterations.
  Work space size for distributed Hartree potential not set.
  Defaulting to   0.200000E+03 MB.
  Algorithm-dependent basis array size parameters:
  | n_max_pulay                         :       10
  Presetting      1001 iterations before the initial mixing cycle
  is restarted anyway using the sc_init_iter criterion / keyword.
  Presetting a factor      1.000 between actual scf density residual
  and density convergence criterion sc_accuracy_rho below which sc_init_iter
  takes no effect.
  Geometry relaxation not requested: no relaxation will be performed.
  Forces evaluation will include force correction term due to incomplete self-consistency (default).
  Handling of forces: Unphysical translation and rotation will be removed from forces.
  No accuracy limit for integral partition fn. given. Defaulting to  0.1000E-14.
  No threshold value for u(r) in integrations given. Defaulting to  0.1000E-05.
  No accuracy for occupation numbers given. Defaulting to  0.1000E-12.
  No threshold value for occupation numbers given. Defaulting to  0.0000E+00.
  No accuracy for fermi level given. Defaulting to  0.1000E-19.
  Maximum # of iterations to find E_F not set. Defaulting to  200.
  Preferred method for the eigenvalue solver ('KS_method') not specified in 'control.in'.
  Calling BLACS routine to test compilation state
  Since ScaLAPACK support is enabled, defaulting to ELPA (via ELSI).
  Will not use alltoall communication since running on < 1024 CPUs.
  Threshold for basis singularities not set.
  Default threshold for basis singularities:  0.1000E-04
  partition_type (choice of integration weights) for integrals was not specified.
  | Using a version of the partition function of Stratmann and coworkers ('stratmann_sparse').
  | At each grid point, the set of atoms used to build the partition table is smoothly restricted to
  | only those atoms whose free-atom density would be non-zero at that grid point.
  Partitioning for Hartree potential was not defined. Using partition_type for integrals.
  | Adjusted default value of keyword multip_moments_threshold to:       0.10000000E-11
  | This value may affect high angular momentum components of the Hartree potential in periodic systems.
  No q(lm)/r^(l+1) cutoff set for long-range Hartree potential.
  | Using default value of  0.100000E-09 .
  | Verify using the multipole_threshold keyword.
  Defaulting to new monopole extrapolation.
  Density update method: automatic selection selected.
  Charge integration errors on the 3D integration grid will be compensated
  by explicit normalization and distribution of residual charges.
  Use the "compensate_multipole_errors" flag to change this behaviour.
  Set 'collect_eigenvectors' to be '.true.' for use_density_matrix .false.
 
  Consistency checks for the contents of geometry.in are next.
 
  Number of empty states per atom not set in control.in - providing a guess from actual geometry.
  | Total number of empty states used during s.c.f. cycle:       36
  If you use a very high smearing, use empty_states (per atom!) in control.in to increase this value.

  Structure-dependent array size parameters: 
  | Maximum number of distinct radial functions  :       14
  | Maximum number of basis functions            :      180
  | Number of Kohn-Sham states (occupied + empty):       96
------------------------------------------------------------

------------------------------------------------------------
          Preparing all fixed parts of the calculation.
------------------------------------------------------------
  Determining machine precision:
    2.225073858507201E-308
  Setting up grids for atomic and cluster calculations.

  Creating wave function, potential, and density for free atoms.

  Species: Al

  List of occupied orbitals and eigenvalues:
    n    l              occ      energy [Ha]    energy [eV]
    1    0           2.0000       -55.621123     -1513.5278
    2    0           2.0000        -3.957030      -107.6763
    3    0           2.0000        -0.272233        -7.4078
    2    1           6.0000        -2.540949       -69.1427
    3    1           1.0000        -0.083300        -2.2667


  Species: F

  List of occupied orbitals and eigenvalues:
    n    l              occ      energy [Ha]    energy [eV]
    1    0           2.0000       -24.399611      -663.9472
    2    0           2.0000        -1.098702       -29.8972
    2    1           5.0000        -0.408210       -11.1080


  Adding cutoff potential to free-atom effective potential.
  Creating fixed part of basis set: Ionic, confined, hydrogenic.
 
  Al                   ion:

  List of free ionic orbitals and eigenvalues:
    n    l      energy [Ha]    energy [eV]
    1    0       -56.418846     -1535.2349
    2    0        -4.732717      -128.7838
    3    0        -0.872690       -23.7471
    2    1        -3.317230       -90.2664


  List of ionic basis orbitals and eigenvalues:
    n    l      energy [Ha]    energy [eV]    outer radius [A]
    3    2        -0.346815        -9.4373       4.594041
    3    1        -0.631870       -17.1940       4.538221
    3    0        -0.872657       -23.7462       4.538221

 
  F                    hydrogenic:
 
  List of hydrogenic basis orbitals: 
    n    l      effective z      eigenvalue [eV]  inner max. [A]     outer max. [A]     outer radius [A]   
    2    1         1.700000        -9.7616           1.243167           1.243167           4.598524
    3    2         7.400000       -82.7828           0.642437           0.642437           3.305741
    3    0         6.800000       -69.9026           0.057798           1.022307           3.781556
 
  Creating atomic-like basis functions for current effective potential.

  Species Al                  :

  List of atomic basis orbitals and eigenvalues:
    n    l      energy [Ha]    energy [eV]    outer radius [A]
    1    0       -55.621123     -1513.5278       0.850197
    2    0        -3.957030      -107.6763       3.144911
    3    0        -0.272233        -7.4078       4.594041
    2    1        -2.540949       -69.1427       3.731966
    3    1        -0.083300        -2.2667       4.594041


  Species F                   :

  List of atomic basis orbitals and eigenvalues:
    n    l      energy [Ha]    energy [eV]    outer radius [A]
    1    0       -24.399611      -663.9472       1.258458
    2    0        -1.098702       -29.8972       4.325857
    2    1        -0.408210       -11.1080       4.487453

  Assembling full basis from fixed parts.
  | Species Al :   atomic orbital   1 s accepted.
  | Species Al :   atomic orbital   2 s accepted.
  | Species Al :    ionic orbital   3 s accepted.
  | Species Al :   atomic orbital   3 s accepted.
  | Species Al :   atomic orbital   2 p accepted.
  | Species Al :    ionic orbital   3 p accepted.
  | Species Al :   atomic orbital   3 p accepted.
  | Species Al :    ionic orbital   3 d accepted.
  | Species F :   atomic orbital   1 s accepted.
  | Species F :    hydro orbital   3 s accepted.
  | Species F :   atomic orbital   2 s accepted.
  | Species F :   atomic orbital   2 p accepted.
  | Species F :    hydro orbital   2 p accepted.
  | Species F :    hydro orbital   3 d accepted.
 
  Basis size parameters after reduction:
  | Total number of radial functions:       14
  | Total number of basis functions :      180
 
  Per-task memory consumption for arrays in subroutine allocate_ext:
  |           4.807768MB.
  Testing on-site integration grid accuracy.
  |  Species  Function  <phi|h_atom|phi> (log., in eV)  <phi|h_atom|phi> (rad., in eV)
           1        1              -1513.5277717935              -1513.5271881332
           1        2               -107.6762691836               -107.6762662489
           1        3                 -6.9467474784                 -6.9471269649
           1        4                  5.5771951849                  5.4862107220 ***
           1        5                -69.1427313144                -69.1427312731
           1        6                 -1.5197375330                 -1.5230432022
           1        7                  6.8210948310                  6.5529872240 ***
           1        8                  4.3216540965                  4.2851170187 ***
           2        9               -663.9471986398               -663.9470363334
           2       10                 16.8514011578                 16.8512525338
           2       11                -28.4490593856                -28.4490661472
           2       12                -11.1080115307                -11.1080620173
           2       13                  7.1940182175                  7.1685154137
           2       14                 44.8544281765                 44.8543763625
 * Note: Onsite integrals marked "***" above are less accurate than
 * onsite_accuracy_threshold =    0.03000 eV. Usually, this is harmless.
 * When in doubt, tighten the "radial" and/or "radial_multiplier" flags to check.

  Preparing densities etc. for the partition functions (integrals / Hartree potential).

  Preparations completed.
  max(cpu_time)          :      0.184 s.
  Wall clock time (cpu1) :      0.184 s.
------------------------------------------------------------

------------------------------------------------------------
          Begin self-consistency loop: Initialization.

          Date     :  20220517, Time     :  122057.115
------------------------------------------------------------

  Initializing index lists of integration centers etc. from given atomic structure:
  | Number of centers in hartree potential         :        12
  | Number of centers in hartree multipole         :        12
  | Number of centers in electron density summation:        12
  | Number of centers in basis integrals           :        12
  | Number of centers in integrals                 :        12
  | Number of centers in hamiltonian               :        12
  * Using 24 tasks for Scalapack Eigenvalue solver.
  Detailed listing of tasks and assigned k-points:
  (for non-periodic systems, the "k-point" denotes an internal label only)
   Task     0 k-point     1 on node-k98a-028
   Task     1 k-point     1 on node-k98a-028
   Task     2 k-point     1 on node-k98a-028
   Task     3 k-point     1 on node-k98a-028
   Task     4 k-point     1 on node-k98a-028
   Task     5 k-point     1 on node-k98a-028
   Task     6 k-point     1 on node-k98a-028
   Task     7 k-point     1 on node-k98a-028
   Task     8 k-point     1 on node-k98a-028
   Task     9 k-point     1 on node-k98a-028
   Task    10 k-point     1 on node-k98a-028
   Task    11 k-point     1 on node-k98a-028
   Task    12 k-point     1 on node-k98a-028
   Task    13 k-point     1 on node-k98a-028
   Task    14 k-point     1 on node-k98a-028
   Task    15 k-point     1 on node-k98a-028
   Task    16 k-point     1 on node-k98a-028
   Task    17 k-point     1 on node-k98a-028
   Task    18 k-point     1 on node-k98a-028
   Task    19 k-point     1 on node-k98a-028
   Task    20 k-point     1 on node-k98a-028
   Task    21 k-point     1 on node-k98a-028
   Task    22 k-point     1 on node-k98a-028
   Task    23 k-point     1 on node-k98a-028
  Tasks:    24 split into      6 X      4 BLACS grid
  Calculating block size based on n_basis =          180  max_nprow =            6  max_npcol =            4
  ScaLAPACK block size set to:           16
  Allocating        0.012 MB for ovlp
  Allocating        0.012 MB for ham
  Allocating        0.012 MB for eigenvec
  Required Scalapack workspace - INTEGER:            1  REAL:             1
  Partitioning the integration grid into batches with parallel hashing+maxmin method.
  | Number of batches:     1037
  | Maximal batch size:     199
  | Minimal batch size:      35
  | Average batch size:      88.640
  | Standard deviation of batch sizes:      24.152

  Integration load balanced across    24 MPI tasks.
  Work distribution over tasks is as follows:
  Task     0 has       3819 integration points.
  Task     1 has       3848 integration points.
  Task     2 has       3822 integration points.
  Task     3 has       3868 integration points.
  Task     4 has       3756 integration points.
  Task     5 has       3806 integration points.
  Task     6 has       3822 integration points.
  Task     7 has       3842 integration points.
  Task     8 has       3823 integration points.
  Task     9 has       3950 integration points.
  Task    10 has       3843 integration points.
  Task    11 has       3849 integration points.
  Task    12 has       3833 integration points.
  Task    13 has       3838 integration points.
  Task    14 has       3844 integration points.
  Task    15 has       3806 integration points.
  Task    16 has       3837 integration points.
  Task    17 has       3830 integration points.
  Task    18 has       3759 integration points.
  Task    19 has       3828 integration points.
  Task    20 has       3828 integration points.
  Task    21 has       3821 integration points.
  Task    22 has       3818 integration points.
  Task    23 has       3830 integration points.
  Initializing partition tables, free-atom densities, potentials, etc. across the integration grid (initialize_grid_storage).
  | initialize_grid_storage: Actual outermost partition radius vs. multipole_radius_free
  | (-- VB: in principle, multipole_radius_free should be larger, hence this output)
  | Species        1: Confinement radius =              4.999999999999999 AA, multipole_radius_free =              5.004487022111096 AA.
  | Species        1: outer_partition_radius set to              5.004487022111096 AA .
  | Species        2: Confinement radius =              4.999999999999999 AA, multipole_radius_free =              5.009370088163274 AA.
  | Species        2: outer_partition_radius set to              5.009370088163274 AA .
  | The sparse table of interatomic distances needs          1.64 kbyte instead of         1.15 kbyte of memory.
  | Using the partition_type stratmann_smoother will reduce your memory usage.
  | Net number of integration points:    91920
  | of which are non-zero points    :    84854
  Renormalizing the initial density to the exact electron count on the 3D integration grid.
  | Initial density: Formal number of electrons (from input files) :     120.0000000000
  | Integrated number of electrons on 3D grid     :     119.9999759934
  | Charge integration error                      :      -0.0000240066
  | Normalization factor for density and gradient :       1.0000002001
  Renormalizing the free-atom superposition density to the exact electron count on the 3D integration grid.
  | Formal number of electrons (from input files) :     120.0000000000
  | Integrated number of electrons on 3D grid     :     119.9999759934
  | Charge integration error                      :      -0.0000240066
  | Normalization factor for density and gradient :       1.0000002001
  Obtaining max. number of non-zero basis functions in each batch (get_n_compute_maxes).
  | Maximal number of non-zero basis functions:      170 in task     0
  | Maximal number of non-zero basis functions:      165 in task     1
  | Maximal number of non-zero basis functions:      167 in task     2
  | Maximal number of non-zero basis functions:      165 in task     3
  | Maximal number of non-zero basis functions:      167 in task     4
  | Maximal number of non-zero basis functions:      166 in task     5
  | Maximal number of non-zero basis functions:      166 in task     6
  | Maximal number of non-zero basis functions:      167 in task     7
  | Maximal number of non-zero basis functions:      165 in task     8
  | Maximal number of non-zero basis functions:      164 in task     9
  | Maximal number of non-zero basis functions:      173 in task    10
  | Maximal number of non-zero basis functions:      164 in task    11
  | Maximal number of non-zero basis functions:      167 in task    12
  | Maximal number of non-zero basis functions:      166 in task    13
  | Maximal number of non-zero basis functions:      165 in task    14
  | Maximal number of non-zero basis functions:      167 in task    15
  | Maximal number of non-zero basis functions:      163 in task    16
  | Maximal number of non-zero basis functions:      172 in task    17
  | Maximal number of non-zero basis functions:      167 in task    18
  | Maximal number of non-zero basis functions:      171 in task    19
  | Maximal number of non-zero basis functions:      174 in task    20
  | Maximal number of non-zero basis functions:      166 in task    21
  | Maximal number of non-zero basis functions:      164 in task    22
  | Maximal number of non-zero basis functions:      165 in task    23
  Selecting the method for density update.
  Loop over occupied states selected for charge density update.
  Allocating        0.132 MB for KS_eigenvector
  Integrating Hamiltonian matrix: batch-based integration.
  Time summed over all CPUs for integration: real work        0.762 s, elapsed        0.792 s
  Integrating overlap matrix.
  Time summed over all CPUs for integration: real work        0.293 s, elapsed        0.307 s
  Deallocating overlap matrix.

  Updating Kohn-Sham eigenvalues and eigenvectors using ELSI and the ELPA eigensolver.
  Overlap matrix is not singular
  | Lowest and highest eigenvalues :  0.2421E-02,  0.5985E+01
  Finished singularity check of overlap matrix
  | Time :     0.004 s
  Starting ELPA eigensolver
  Finished Cholesky decomposition
  | Time :     0.001 s
  Finished transformation to standard eigenproblem
  | Time :     0.001 s
  Finished solving standard eigenproblem
  | Time :     0.004 s
  Finished back-transformation of eigenvectors
  | Time :     0.000 s

  Obtaining occupation numbers and chemical potential using ELSI.
  | Chemical potential (Fermi level):    -7.55462922 eV
  Writing Kohn-Sham eigenvalues.

  State    Occupation    Eigenvalue [Ha]    Eigenvalue [eV]
      1       2.00000         -55.484936        -1509.82194
      2       2.00000         -55.484936        -1509.82194
      3       2.00000         -55.484624        -1509.81343
      4       2.00000         -24.387449         -663.61625
      5       2.00000         -24.387449         -663.61625
      6       2.00000         -24.385302         -663.55783
      7       2.00000         -24.346245         -662.49502
      8       2.00000         -24.345104         -662.46398
      9       2.00000         -24.341774         -662.37338
     10       2.00000         -24.339529         -662.31228
     11       2.00000         -24.330697         -662.07196
     12       2.00000         -24.330697         -662.07196
     13       2.00000          -3.950553         -107.50000
     14       2.00000          -3.950516         -107.49902
     15       2.00000          -3.950477         -107.49794
     16       2.00000          -2.543898          -69.22299
     17       2.00000          -2.543565          -69.21393
     18       2.00000          -2.543136          -69.20226
     19       2.00000          -2.542934          -69.19675
     20       2.00000          -2.542611          -69.18797
     21       2.00000          -2.542454          -69.18371
     22       2.00000          -2.542320          -69.18005
     23       2.00000          -2.540593          -69.13306
     24       2.00000          -2.540547          -69.13181
     25       2.00000          -1.230813          -33.49211
     26       2.00000          -1.216880          -33.11300
     27       2.00000          -1.214191          -33.03982
     28       2.00000          -1.159790          -31.55948
     29       2.00000          -1.152869          -31.37116
     30       2.00000          -1.150636          -31.31040
     31       2.00000          -1.147022          -31.21206
     32       2.00000          -1.134890          -30.88193
     33       2.00000          -1.134809          -30.87972
     34       2.00000          -0.590544          -16.06952
     35       2.00000          -0.585787          -15.94008
     36       2.00000          -0.577939          -15.72651
     37       2.00000          -0.561578          -15.28131
     38       2.00000          -0.548444          -14.92393
     39       2.00000          -0.538951          -14.66561
     40       2.00000          -0.529491          -14.40819
     41       2.00000          -0.520590          -14.16597
     42       2.00000          -0.520034          -14.15086
     43       2.00000          -0.497541          -13.53877
     44       2.00000          -0.482368          -13.12589
     45       2.00000          -0.478568          -13.02249
     46       2.00000          -0.478351          -13.01659
     47       2.00000          -0.473606          -12.88748
     48       2.00000          -0.468121          -12.73823
     49       2.00000          -0.460691          -12.53605
     50       2.00000          -0.458965          -12.48908
     51       2.00000          -0.456982          -12.43512
     52       2.00000          -0.452620          -12.31640
     53       2.00000          -0.448566          -12.20610
     54       2.00000          -0.448551          -12.20568
     55       2.00000          -0.442050          -12.02879
     56       2.00000          -0.441113          -12.00331
     57       2.00000          -0.441039          -12.00127
     58       2.00000          -0.440293          -11.98097
     59       2.00000          -0.439398          -11.95662
     60       2.00000          -0.429902          -11.69823
     61       0.00000          -0.136441           -3.71274
     62       0.00000          -0.090862           -2.47249
     63       0.00000          -0.074069           -2.01552
     64       0.00000          -0.033410           -0.90915
     65       0.00000          -0.009102           -0.24768
     66       0.00000           0.014702            0.40006
     67       0.00000           0.019074            0.51903
     68       0.00000           0.039469            1.07400
     69       0.00000           0.056505            1.53757
     70       0.00000           0.072178            1.96406
     71       0.00000           0.094114            2.56096
     72       0.00000           0.126529            3.44302
     73       0.00000           0.141649            3.85445
     74       0.00000           0.163316            4.44406
     75       0.00000           0.172113            4.68343
     76       0.00000           0.183828            5.00222
     77       0.00000           0.193690            5.27056
     78       0.00000           0.201467            5.48221
     79       0.00000           0.204009            5.55137
     80       0.00000           0.214147            5.82723
     81       0.00000           0.223796            6.08979
     82       0.00000           0.233352            6.34984
     83       0.00000           0.237052            6.45053
     84       0.00000           0.251233            6.83640
     85       0.00000           0.257962            7.01951
     86       0.00000           0.262852            7.15257
     87       0.00000           0.266473            7.25110
     88       0.00000           0.279686            7.61064
     89       0.00000           0.305774            8.32052
     90       0.00000           0.307458            8.36636
     91       0.00000           0.327530            8.91254
     92       0.00000           0.337181            9.17515
     93       0.00000           0.353959            9.63172
     94       0.00000           0.362000            9.85052
     95       0.00000           0.365326            9.94101
     96       0.00000           0.377005           10.25882

  Highest occupied state (VBM) at    -11.69822548 eV
  | Occupation number:      2.00000000

  Lowest unoccupied state (CBM) at    -3.71273947 eV
  | Occupation number:      0.00000000

  Overall HOMO-LUMO gap:      7.98548601 eV.
  Calculating total energy contributions from superposition of free atom densities.

  Total energy components:
  | Sum of eigenvalues            :        -888.27265949 Ha      -24171.12887835 eV
  | XC energy correction          :        -144.47391405 Ha       -3931.33522556 eV
  | XC potential correction       :         188.12296112 Ha        5119.08622835 eV
  | Free-atom electrostatic energy:        -780.70424872 Ha      -21244.04349267 eV
  | Hartree energy correction     :           0.00000000 Ha           0.00000000 eV
  | Entropy correction            :           0.00000000 Ha           0.00000000 eV
  | ---------------------------
  | Total energy                  :       -1625.32786115 Ha      -44227.42136823 eV
  | Total energy, T -> 0          :       -1625.32786115 Ha      -44227.42136823 eV  <-- do not rely on this value for anything but (periodic) metals
  | Electronic free energy        :       -1625.32786115 Ha      -44227.42136823 eV

  Derived energy quantities:
  | Kinetic energy                :        1627.96499423 Ha       44299.18141049 eV
  | Electrostatic energy          :       -3108.81894132 Ha      -84595.26755316 eV
  | Energy correction for multipole
  | error in Hartree potential    :           0.00000000 Ha           0.00000000 eV
  | Sum of eigenvalues per atom                           :       -2014.26073986 eV
  | Total energy (T->0) per atom                          :       -3685.61844735 eV  <-- do not rely on this value for anything but (periodic) metals
  | Electronic free energy per atom                       :       -3685.61844735 eV
  Initialize hartree_potential_storage
  Max. number of atoms included in rho_multipole:           12

  End scf initialization - timings             :  max(cpu_time)    wall_clock(cpu1)
  | Time for scf. initialization                :        0.120 s           0.121 s
  | Boundary condition initialization           :        0.000 s           0.001 s
  | Integration                                 :        0.047 s           0.047 s
  | Solution of K.-S. eqns.                     :        0.011 s           0.011 s
  | Grid partitioning                           :        0.039 s           0.039 s
  | Preloading free-atom quantities on grid     :        0.016 s           0.016 s
  | Free-atom superposition energy              :        0.005 s           0.005 s
  | Total energy evaluation                     :        0.000 s           0.000 s

  Partial memory accounting:
  | Current value for overall tracked memory usage:
  |   Minimum:        0.273 MB (on task 23)
  |   Maximum:        0.292 MB (on task  0)
  |   Average:        0.287 MB
  | Peak value for overall tracked memory usage:
  |   Minimum:        1.359 MB (on task 22 after allocating wave)
  |   Maximum:        1.436 MB (on task 10 after allocating wave)
  |   Average:        1.388 MB
  | Largest tracked array allocation so far:
  |   Minimum:        0.247 MB (H_times_psi on task 16)
  |   Maximum:        0.544 MB (all_coords on task 10)
  |   Average:        0.286 MB
  Note:  These values currently only include a subset of arrays which are explicitly tracked.
  The "true" memory usage will be greater.
------------------------------------------------------------
  Evaluating new KS density.
  Integration grid: deviation in total charge (<rho> - N_e) =   0.000000E+00

  Time for density update prior                :  max(cpu_time)    wall_clock(cpu1)
  | self-consistency iterative process          :        0.029 s           0.029 s

------------------------------------------------------------
          Begin self-consistency iteration #    1

  Date     :  20220517, Time     :  122057.265
------------------------------------------------------------
  Pulay mixing of updated and previous charge densities.
  Renormalizing the density to the exact electron count on the 3D integration grid.
  | Formal number of electrons (from input files) :     120.0000000000
  | Integrated number of electrons on 3D grid     :     120.0000000000
  | Charge integration error                      :       0.0000000000
  | Normalization factor for density and gradient :       1.0000000000

  Evaluating partitioned Hartree potential by multipole expansion.
  | Original multipole sum: apparent total charge =  -0.399467E-13
  | Sum of charges compensated after spline to logarithmic grids =   0.106638E-03
  | Analytical far-field extrapolation by fixed multipoles:
  | Hartree multipole sum: apparent total charge =  -0.389382E-13
  Summing up the Hartree potential.
  Time summed over all CPUs for potential: real work        0.381 s, elapsed        0.398 s
  | RMS charge density error from multipole expansion :   0.114009E-01

  Integrating Hamiltonian matrix: batch-based integration.
  Time summed over all CPUs for integration: real work        0.709 s, elapsed        0.731 s

  Updating Kohn-Sham eigenvalues and eigenvectors using ELSI and the ELPA eigensolver.
  Starting ELPA eigensolver
  Finished transformation to standard eigenproblem
  | Time :     0.001 s
  Finished solving standard eigenproblem
  | Time :     0.003 s
  Finished back-transformation of eigenvectors
  | Time :     0.000 s

  Obtaining occupation numbers and chemical potential using ELSI.
  | Chemical potential (Fermi level):    -7.18363149 eV
  Writing Kohn-Sham eigenvalues.

  State    Occupation    Eigenvalue [Ha]    Eigenvalue [eV]
      1       2.00000         -55.655461        -1514.46215
      2       2.00000         -55.655455        -1514.46199
      3       2.00000         -55.611976        -1513.27885
      4       2.00000         -24.245220         -659.74600
      5       2.00000         -24.245217         -659.74594
      6       2.00000         -24.199936         -658.51376
      7       2.00000         -24.155070         -657.29290
      8       2.00000         -24.151341         -657.19143
      9       2.00000         -24.059467         -654.69142
     10       2.00000         -24.059467         -654.69141
     11       2.00000         -24.051893         -654.48530
     12       2.00000         -24.051589         -654.47703
     13       2.00000          -4.092957         -111.37503
     14       2.00000          -4.092925         -111.37416
     15       2.00000          -4.053822         -110.31012
     16       2.00000          -2.686328          -73.09870
     17       2.00000          -2.686176          -73.09457
     18       2.00000          -2.686055          -73.09127
     19       2.00000          -2.686017          -73.09025
     20       2.00000          -2.685131          -73.06613
     21       2.00000          -2.684840          -73.05823
     22       2.00000          -2.647520          -72.04269
     23       2.00000          -2.647299          -72.03667
     24       2.00000          -2.644608          -71.96345
     25       2.00000          -1.188269          -32.33443
     26       2.00000          -1.177431          -32.03952
     27       2.00000          -1.165631          -31.71844
     28       2.00000          -1.085414          -29.53561
     29       2.00000          -1.078885          -29.35795
     30       2.00000          -1.002308          -27.27418
     31       2.00000          -1.000338          -27.22057
     32       2.00000          -1.000172          -27.21607
     33       2.00000          -0.997665          -27.14785
     34       2.00000          -0.568595          -15.47225
     35       2.00000          -0.564413          -15.35845
     36       2.00000          -0.543061          -14.77745
     37       2.00000          -0.527027          -14.34114
     38       2.00000          -0.503410          -13.69849
     39       2.00000          -0.490799          -13.35533
     40       2.00000          -0.487342          -13.26124
     41       2.00000          -0.481685          -13.10732
     42       2.00000          -0.472102          -12.84656
     43       2.00000          -0.417797          -11.36884
     44       2.00000          -0.408613          -11.11893
     45       2.00000          -0.392578          -10.68260
     46       2.00000          -0.385178          -10.48122
     47       2.00000          -0.381503          -10.38122
     48       2.00000          -0.376766          -10.25231
     49       2.00000          -0.366668           -9.97755
     50       2.00000          -0.366120           -9.96263
     51       2.00000          -0.355617           -9.67682
     52       2.00000          -0.346588           -9.43114
     53       2.00000          -0.315527           -8.58594
     54       2.00000          -0.315222           -8.57762
     55       2.00000          -0.314465           -8.55703
     56       2.00000          -0.314269           -8.55169
     57       2.00000          -0.313427           -8.52877
     58       2.00000          -0.311685           -8.48139
     59       2.00000          -0.305965           -8.32573
     60       2.00000          -0.299514           -8.15019
     61       0.00000          -0.144215           -3.92430
     62       0.00000          -0.094032           -2.55875
     63       0.00000          -0.056510           -1.53772
     64       0.00000          -0.054387           -1.47995
     65       0.00000          -0.026542           -0.72223
     66       0.00000           0.018886            0.51392
     67       0.00000           0.025141            0.68412
     68       0.00000           0.032494            0.88420
     69       0.00000           0.066526            1.81027
     70       0.00000           0.074400            2.02453
     71       0.00000           0.086959            2.36628
     72       0.00000           0.115563            3.14464
     73       0.00000           0.148696            4.04622
     74       0.00000           0.152323            4.14491
     75       0.00000           0.159800            4.34837
     76       0.00000           0.170789            4.64739
     77       0.00000           0.202612            5.51336
     78       0.00000           0.208256            5.66693
     79       0.00000           0.210859            5.73777
     80       0.00000           0.212374            5.77900
     81       0.00000           0.216256            5.88462
     82       0.00000           0.231734            6.30580
     83       0.00000           0.232469            6.32580
     84       0.00000           0.243701            6.63144
     85       0.00000           0.254857            6.93503
     86       0.00000           0.259344            7.05710
     87       0.00000           0.271050            7.37565
     88       0.00000           0.275969            7.50950
     89       0.00000           0.297241            8.08835
     90       0.00000           0.308397            8.39192
     91       0.00000           0.320942            8.73326
     92       0.00000           0.349538            9.51142
     93       0.00000           0.362047            9.85180
     94       0.00000           0.363964            9.90397
     95       0.00000           0.379578           10.32885
     96       0.00000           0.392822           10.68924

  Highest occupied state (VBM) at     -8.15019146 eV
  | Occupation number:      2.00000000

  Lowest unoccupied state (CBM) at    -3.92429617 eV
  | Occupation number:      0.00000000

  Overall HOMO-LUMO gap:      4.22589529 eV.

  Total energy components:
  | Sum of eigenvalues            :        -882.11564149 Ha      -24003.58789394 eV
  | XC energy correction          :        -145.83828431 Ha       -3968.46162905 eV
  | XC potential correction       :         189.91614695 Ha        5167.88129731 eV
  | Free-atom electrostatic energy:        -780.70424872 Ha      -21244.04349267 eV
  | Hartree energy correction     :          -6.36100255 Ha        -173.09168625 eV
  | Entropy correction            :           0.00000000 Ha           0.00000000 eV
  | ---------------------------
  | Total energy                  :       -1625.10303012 Ha      -44221.30340460 eV
  | Total energy, T -> 0          :       -1625.10303012 Ha      -44221.30340460 eV  <-- do not rely on this value for anything but (periodic) metals
  | Electronic free energy        :       -1625.10303012 Ha      -44221.30340460 eV

  Derived energy quantities:
  | Kinetic energy                :        1634.65001741 Ha       44481.09014677 eV
  | Electrostatic energy          :       -3113.91476322 Ha      -84733.93192232 eV
  | Energy correction for multipole
  | error in Hartree potential    :           0.03637927 Ha           0.98993022 eV
  | Sum of eigenvalues per atom                           :       -2000.29899116 eV
  | Total energy (T->0) per atom                          :       -3685.10861705 eV  <-- do not rely on this value for anything but (periodic) metals
  | Electronic free energy per atom                       :       -3685.10861705 eV
  Evaluating new KS density.
  Integration grid: deviation in total charge (<rho> - N_e) =   1.421085E-14

  Self-consistency convergence accuracy:
  | Change of charge density      :  0.6172E+00
  | Change of sum of eigenvalues  :  0.1675E+03 eV
  | Change of total energy        :  0.6118E+01 eV


------------------------------------------------------------
  End self-consistency iteration #     1       :  max(cpu_time)    wall_clock(cpu1)
  | Time for this iteration                     :        0.083 s           0.083 s
  | Charge density update                       :        0.028 s           0.028 s
  | Density mixing                              :        0.001 s           0.001 s
  | Hartree multipole update                    :        0.001 s           0.001 s
  | Hartree multipole summation                 :        0.017 s           0.017 s
  | Integration                                 :        0.031 s           0.031 s
  | Solution of K.-S. eqns.                     :        0.004 s           0.005 s
  | Total energy evaluation                     :        0.000 s           0.000 s

  Partial memory accounting:
  | Current value for overall tracked memory usage:
  |   Minimum:        0.273 MB (on task 23)
  |   Maximum:        0.292 MB (on task  0)
  |   Average:        0.287 MB
  | Peak value for overall tracked memory usage:
  |   Minimum:        1.359 MB (on task 22 after allocating wave)
  |   Maximum:        1.436 MB (on task 10 after allocating wave)
  |   Average:        1.388 MB
  | Largest tracked array allocation so far:
  |   Minimum:        0.742 MB (gradient_basis_wave on task 16)
  |   Maximum:        0.793 MB (gradient_basis_wave on task 20)
  |   Average:        0.760 MB
  Note:  These values currently only include a subset of arrays which are explicitly tracked.
  The "true" memory usage will be greater.
------------------------------------------------------------

------------------------------------------------------------
          Begin self-consistency iteration #    2

  Date     :  20220517, Time     :  122057.354
------------------------------------------------------------
  Pulay mixing of updated and previous charge densities.
  Renormalizing the density to the exact electron count on the 3D integration grid.
  | Formal number of electrons (from input files) :     120.0000000000
  | Integrated number of electrons on 3D grid     :     120.0000000000
  | Charge integration error                      :      -0.0000000000
  | Normalization factor for density and gradient :       1.0000000000

  Evaluating partitioned Hartree potential by multipole expansion.
  | Original multipole sum: apparent total charge =  -0.719238E-13
  | Sum of charges compensated after spline to logarithmic grids =   0.604383E-04
  | Analytical far-field extrapolation by fixed multipoles:
  | Hartree multipole sum: apparent total charge =  -0.698330E-13
  Summing up the Hartree potential.
  Time summed over all CPUs for potential: real work        0.380 s, elapsed        0.396 s
  | RMS charge density error from multipole expansion :   0.133070E-01

  Integrating Hamiltonian matrix: batch-based integration.
  Time summed over all CPUs for integration: real work        0.710 s, elapsed        0.732 s

  Updating Kohn-Sham eigenvalues and eigenvectors using ELSI and the ELPA eigensolver.
  Starting ELPA eigensolver
  Finished transformation to standard eigenproblem
  | Time :     0.001 s
  Finished solving standard eigenproblem
  | Time :     0.003 s
  Finished back-transformation of eigenvectors
  | Time :     0.000 s

  Obtaining occupation numbers and chemical potential using ELSI.
  | Chemical potential (Fermi level):    -7.57104314 eV
  Highest occupied state (VBM) at     -9.16327832 eV
  | Occupation number:      2.00000000

  Lowest unoccupied state (CBM) at    -4.23664505 eV
  | Occupation number:      0.00000000

  Overall HOMO-LUMO gap:      4.92663327 eV.

  Checking to see if s.c.f. parameters should be adjusted.

  Total energy components:
  | Sum of eigenvalues            :        -885.18964200 Ha      -24087.23570387 eV
  | XC energy correction          :        -145.36137270 Ha       -3955.48420407 eV
  | XC potential correction       :         189.28858191 Ha        5150.80438391 eV
  | Free-atom electrostatic energy:        -780.70424872 Ha      -21244.04349267 eV
  | Hartree energy correction     :          -3.07611370 Ha         -83.70531276 eV
  | Entropy correction            :           0.00000000 Ha           0.00000000 eV
  | ---------------------------
  | Total energy                  :       -1625.04279521 Ha      -44219.66432945 eV
  | Total energy, T -> 0          :       -1625.04279521 Ha      -44219.66432945 eV  <-- do not rely on this value for anything but (periodic) metals
  | Electronic free energy        :       -1625.04279521 Ha      -44219.66432945 eV

  Derived energy quantities:
  | Kinetic energy                :        1630.78794157 Ha       44375.99771595 eV
  | Electrostatic energy          :       -3110.46936408 Ha      -84640.17784134 eV
  | Energy correction for multipole
  | error in Hartree potential    :           0.04123575 Ha           1.12208177 eV
  | Sum of eigenvalues per atom                           :       -2007.26964199 eV
  | Total energy (T->0) per atom                          :       -3684.97202745 eV  <-- do not rely on this value for anything but (periodic) metals
  | Electronic free energy per atom                       :       -3684.97202745 eV
  Evaluating new KS density.
  Integration grid: deviation in total charge (<rho> - N_e) =   0.000000E+00

  Self-consistency convergence accuracy:
  | Change of charge density      :  0.4720E+00
  | Change of sum of eigenvalues  : -0.8365E+02 eV
  | Change of total energy        :  0.1639E+01 eV


------------------------------------------------------------
  End self-consistency iteration #     2       :  max(cpu_time)    wall_clock(cpu1)
  | Time for this iteration                     :        0.086 s           0.083 s
  | Charge density update                       :        0.028 s           0.028 s
  | Density mixing                              :        0.004 s           0.001 s
  | Hartree multipole update                    :        0.001 s           0.002 s
  | Hartree multipole summation                 :        0.017 s           0.016 s
  | Integration                                 :        0.031 s           0.031 s
  | Solution of K.-S. eqns.                     :        0.004 s           0.004 s
  | Total energy evaluation                     :        0.000 s           0.000 s

  Partial memory accounting:
  | Current value for overall tracked memory usage:
  |   Minimum:        0.274 MB (on task 23)
  |   Maximum:        0.293 MB (on task  0)
  |   Average:        0.288 MB
  | Peak value for overall tracked memory usage:
  |   Minimum:        1.359 MB (on task 22 after allocating wave)
  |   Maximum:        1.436 MB (on task 10 after allocating wave)
  |   Average:        1.388 MB
  | Largest tracked array allocation so far:
  |   Minimum:        0.742 MB (gradient_basis_wave on task 16)
  |   Maximum:        0.793 MB (gradient_basis_wave on task 20)
  |   Average:        0.760 MB
  Note:  These values currently only include a subset of arrays which are explicitly tracked.
  The "true" memory usage will be greater.
------------------------------------------------------------

------------------------------------------------------------
          Begin self-consistency iteration #    3

  Date     :  20220517, Time     :  122057.441
------------------------------------------------------------
  Pulay mixing of updated and previous charge densities.
  Renormalizing the density to the exact electron count on the 3D integration grid.
  | Formal number of electrons (from input files) :     120.0000000000
  | Integrated number of electrons on 3D grid     :     120.0000000000
  | Charge integration error                      :      -0.0000000000
  | Normalization factor for density and gradient :       1.0000000000

  Evaluating partitioned Hartree potential by multipole expansion.
  | Original multipole sum: apparent total charge =  -0.721944E-13
  | Sum of charges compensated after spline to logarithmic grids =   0.713033E-04
  | Analytical far-field extrapolation by fixed multipoles:
  | Hartree multipole sum: apparent total charge =  -0.710875E-13
  Summing up the Hartree potential.
  Time summed over all CPUs for potential: real work        0.380 s, elapsed        0.397 s
  | RMS charge density error from multipole expansion :   0.168067E-01

  Integrating Hamiltonian matrix: batch-based integration.
  Time summed over all CPUs for integration: real work        0.710 s, elapsed        0.732 s

  Updating Kohn-Sham eigenvalues and eigenvectors using ELSI and the ELPA eigensolver.
  Starting ELPA eigensolver
  Finished transformation to standard eigenproblem
  | Time :     0.000 s
  Finished solving standard eigenproblem
  | Time :     0.003 s
  Finished back-transformation of eigenvectors
  | Time :     0.000 s

  Obtaining occupation numbers and chemical potential using ELSI.
  | Chemical potential (Fermi level):    -7.60753939 eV
  Highest occupied state (VBM) at     -9.00977986 eV
  | Occupation number:      2.00000000

  Lowest unoccupied state (CBM) at    -4.33136929 eV
  | Occupation number:      0.00000000

  Overall HOMO-LUMO gap:      4.67841057 eV.

  Total energy components:
  | Sum of eigenvalues            :        -886.07263426 Ha      -24111.26314581 eV
  | XC energy correction          :        -145.34135604 Ha       -3954.93952283 eV
  | XC potential correction       :         189.26133285 Ha        5150.06289923 eV
  | Free-atom electrostatic energy:        -780.70424872 Ha      -21244.04349267 eV
  | Hartree energy correction     :          -2.18462627 Ha         -59.44670553 eV
  | Entropy correction            :           0.00000000 Ha           0.00000000 eV
  | ---------------------------
  | Total energy                  :       -1625.04153244 Ha      -44219.62996761 eV
  | Total energy, T -> 0          :       -1625.04153244 Ha      -44219.62996761 eV  <-- do not rely on this value for anything but (periodic) metals
  | Electronic free energy        :       -1625.04153244 Ha      -44219.62996761 eV

  Derived energy quantities:
  | Kinetic energy                :        1629.48948359 Ha       44340.66487671 eV
  | Electrostatic energy          :       -3109.18965999 Ha      -84605.35532149 eV
  | Energy correction for multipole
  | error in Hartree potential    :           0.05230314 Ha           1.42324090 eV
  | Sum of eigenvalues per atom                           :       -2009.27192882 eV
  | Total energy (T->0) per atom                          :       -3684.96916397 eV  <-- do not rely on this value for anything but (periodic) metals
  | Electronic free energy per atom                       :       -3684.96916397 eV
  Evaluating new KS density.
  Integration grid: deviation in total charge (<rho> - N_e) =   2.842171E-14

  Self-consistency convergence accuracy:
  | Change of charge density      :  0.1261E+00
  | Change of sum of eigenvalues  : -0.2403E+02 eV
  | Change of total energy        :  0.3436E-01 eV


------------------------------------------------------------
  End self-consistency iteration #     3       :  max(cpu_time)    wall_clock(cpu1)
  | Time for this iteration                     :        0.086 s           0.085 s
  | Charge density update                       :        0.028 s           0.028 s
  | Density mixing                              :        0.004 s           0.004 s
  | Hartree multipole update                    :        0.001 s           0.001 s
  | Hartree multipole summation                 :        0.017 s           0.017 s
  | Integration                                 :        0.031 s           0.031 s
  | Solution of K.-S. eqns.                     :        0.004 s           0.004 s
  | Total energy evaluation                     :        0.000 s           0.000 s

  Partial memory accounting:
  | Current value for overall tracked memory usage:
  |   Minimum:        0.274 MB (on task 23)
  |   Maximum:        0.293 MB (on task  0)
  |   Average:        0.288 MB
  | Peak value for overall tracked memory usage:
  |   Minimum:        1.359 MB (on task 22 after allocating wave)
  |   Maximum:        1.436 MB (on task 10 after allocating wave)
  |   Average:        1.388 MB
  | Largest tracked array allocation so far:
  |   Minimum:        0.742 MB (gradient_basis_wave on task 16)
  |   Maximum:        0.793 MB (gradient_basis_wave on task 20)
  |   Average:        0.760 MB
  Note:  These values currently only include a subset of arrays which are explicitly tracked.
  The "true" memory usage will be greater.
------------------------------------------------------------

------------------------------------------------------------
          Begin self-consistency iteration #    4

  Date     :  20220517, Time     :  122057.532
------------------------------------------------------------
  Pulay mixing of updated and previous charge densities.
  Renormalizing the density to the exact electron count on the 3D integration grid.
  | Formal number of electrons (from input files) :     120.0000000000
  | Integrated number of electrons on 3D grid     :     120.0000000000
  | Charge integration error                      :       0.0000000000
  | Normalization factor for density and gradient :       1.0000000000

  Evaluating partitioned Hartree potential by multipole expansion.
  | Original multipole sum: apparent total charge =   0.964231E-14
  | Sum of charges compensated after spline to logarithmic grids =   0.789888E-04
  | Analytical far-field extrapolation by fixed multipoles:
  | Hartree multipole sum: apparent total charge =   0.996208E-14
  Summing up the Hartree potential.
  Time summed over all CPUs for potential: real work        0.380 s, elapsed        0.396 s
  | RMS charge density error from multipole expansion :   0.199269E-01

  Integrating Hamiltonian matrix: batch-based integration.
  Time summed over all CPUs for integration: real work        0.710 s, elapsed        0.731 s

  Updating Kohn-Sham eigenvalues and eigenvectors using ELSI and the ELPA eigensolver.
  Starting ELPA eigensolver
  Finished transformation to standard eigenproblem
  | Time :     0.000 s
  Finished solving standard eigenproblem
  | Time :     0.003 s
  Finished back-transformation of eigenvectors
  | Time :     0.000 s

  Obtaining occupation numbers and chemical potential using ELSI.
  | Chemical potential (Fermi level):    -7.68032997 eV
  Highest occupied state (VBM) at     -8.89700530 eV
  | Occupation number:      2.00000000

  Lowest unoccupied state (CBM) at    -4.37267026 eV
  | Occupation number:      0.00000000

  Overall HOMO-LUMO gap:      4.52433504 eV.

  Total energy components:
  | Sum of eigenvalues            :        -886.41164728 Ha      -24120.48815940 eV
  | XC energy correction          :        -145.31272509 Ha       -3954.16043527 eV
  | XC potential correction       :         189.22261647 Ha        5149.00937298 eV
  | Free-atom electrostatic energy:        -780.70424872 Ha      -21244.04349267 eV
  | Hartree energy correction     :          -1.83319229 Ha         -49.88370021 eV
  | Entropy correction            :           0.00000000 Ha           0.00000000 eV
  | ---------------------------
  | Total energy                  :       -1625.03919691 Ha      -44219.56641458 eV
  | Total energy, T -> 0          :       -1625.03919691 Ha      -44219.56641458 eV  <-- do not rely on this value for anything but (periodic) metals
  | Electronic free energy        :       -1625.03919691 Ha      -44219.56641458 eV

  Derived energy quantities:
  | Kinetic energy                :        1628.38219928 Ha       44310.53413747 eV
  | Electrostatic energy          :       -3108.10867109 Ha      -84575.94011678 eV
  | Energy correction for multipole
  | error in Hartree potential    :           0.06135584 Ha           1.66957734 eV
  | Sum of eigenvalues per atom                           :       -2010.04067995 eV
  | Total energy (T->0) per atom                          :       -3684.96386788 eV  <-- do not rely on this value for anything but (periodic) metals
  | Electronic free energy per atom                       :       -3684.96386788 eV
  Evaluating new KS density.
  Integration grid: deviation in total charge (<rho> - N_e) =   2.842171E-14

  Self-consistency convergence accuracy:
  | Change of charge density      :  0.9858E-01
  | Change of sum of eigenvalues  : -0.9225E+01 eV
  | Change of total energy        :  0.6355E-01 eV


------------------------------------------------------------
  End self-consistency iteration #     4       :  max(cpu_time)    wall_clock(cpu1)
  | Time for this iteration                     :        0.086 s           0.083 s
  | Charge density update                       :        0.028 s           0.028 s
  | Density mixing                              :        0.004 s           0.002 s
  | Hartree multipole update                    :        0.001 s           0.001 s
  | Hartree multipole summation                 :        0.017 s           0.017 s
  | Integration                                 :        0.031 s           0.031 s
  | Solution of K.-S. eqns.                     :        0.004 s           0.004 s
  | Total energy evaluation                     :        0.000 s           0.000 s

  Partial memory accounting:
  | Current value for overall tracked memory usage:
  |   Minimum:        0.274 MB (on task 23)
  |   Maximum:        0.293 MB (on task  0)
  |   Average:        0.288 MB
  | Peak value for overall tracked memory usage:
  |   Minimum:        1.359 MB (on task 22 after allocating wave)
  |   Maximum:        1.436 MB (on task 10 after allocating wave)
  |   Average:        1.388 MB
  | Largest tracked array allocation so far:
  |   Minimum:        0.742 MB (gradient_basis_wave on task 16)
  |   Maximum:        0.793 MB (gradient_basis_wave on task 20)
  |   Average:        0.760 MB
  Note:  These values currently only include a subset of arrays which are explicitly tracked.
  The "true" memory usage will be greater.
------------------------------------------------------------

------------------------------------------------------------
          Begin self-consistency iteration #    5

  Date     :  20220517, Time     :  122057.621
------------------------------------------------------------
  Pulay mixing of updated and previous charge densities.
  Renormalizing the density to the exact electron count on the 3D integration grid.
  | Formal number of electrons (from input files) :     120.0000000000
  | Integrated number of electrons on 3D grid     :     120.0000000000
  | Charge integration error                      :      -0.0000000000
  | Normalization factor for density and gradient :       1.0000000000

  Evaluating partitioned Hartree potential by multipole expansion.
  | Original multipole sum: apparent total charge =  -0.512125E-13
  | Sum of charges compensated after spline to logarithmic grids =   0.796987E-04
  | Analytical far-field extrapolation by fixed multipoles:
  | Hartree multipole sum: apparent total charge =  -0.558861E-13
  Summing up the Hartree potential.
  Time summed over all CPUs for potential: real work        0.380 s, elapsed        0.396 s
  | RMS charge density error from multipole expansion :   0.199119E-01

  Integrating Hamiltonian matrix: batch-based integration.
  Time summed over all CPUs for integration: real work        0.710 s, elapsed        0.733 s

  Updating Kohn-Sham eigenvalues and eigenvectors using ELSI and the ELPA eigensolver.
  Starting ELPA eigensolver
  Finished transformation to standard eigenproblem
  | Time :     0.000 s
  Finished solving standard eigenproblem
  | Time :     0.003 s
  Finished back-transformation of eigenvectors
  | Time :     0.001 s

  Obtaining occupation numbers and chemical potential using ELSI.
  | Chemical potential (Fermi level):    -7.66231188 eV
  Highest occupied state (VBM) at     -8.97282903 eV
  | Occupation number:      2.00000000

  Lowest unoccupied state (CBM) at    -4.34363154 eV
  | Occupation number:      0.00000000

  Overall HOMO-LUMO gap:      4.62919749 eV.

  Total energy components:
  | Sum of eigenvalues            :        -886.31096582 Ha      -24117.74847744 eV
  | XC energy correction          :        -145.30972104 Ha       -3954.07869079 eV
  | XC potential correction       :         189.21873849 Ha        5148.90384760 eV
  | Free-atom electrostatic energy:        -780.70424872 Ha      -21244.04349267 eV
  | Hartree energy correction     :          -1.93285448 Ha         -52.59564644 eV
  | Entropy correction            :           0.00000000 Ha           0.00000000 eV
[...]
   Total forces(   7)            : -0.550988E+00  0.593181E-01  0.104275E+01
  atom #    8
   Hellmann-Feynman              : -0.145762E+01 -0.139591E+01  0.153265E+01
   Ionic forces                  :  0.000000E+00  0.000000E+00  0.000000E+00
   Multipole                     : -0.452453E+00 -0.481008E+00  0.506739E+00
   Hartree pot. SCF incomplete   : -0.100635E-05 -0.673504E-06  0.683190E-06
   Pulay + GGA                   :  0.435500E+01  0.433145E+01 -0.463824E+01
   ----------------------------------------------------------------
   Total forces(   8)            :  0.244493E+01  0.245454E+01 -0.259885E+01
  atom #    9
   Hellmann-Feynman              :  0.159068E+01 -0.775646E+00 -0.181416E+01
   Ionic forces                  :  0.000000E+00  0.000000E+00  0.000000E+00
   Multipole                     :  0.533632E+00 -0.280666E+00 -0.575302E+00
   Hartree pot. SCF incomplete   :  0.676715E-06 -0.321124E-06 -0.116464E-05
   Pulay + GGA                   : -0.484306E+01  0.246064E+01  0.545437E+01
   ----------------------------------------------------------------
   Total forces(   9)            : -0.271875E+01  0.140433E+01  0.306491E+01
  atom #   10
   Hellmann-Feynman              :  0.117837E+01  0.668237E+00 -0.638525E+00
   Ionic forces                  :  0.000000E+00  0.000000E+00  0.000000E+00
   Multipole                     :  0.604254E-01  0.246451E+00 -0.513493E-01
   Hartree pot. SCF incomplete   :  0.296768E-05  0.512400E-05 -0.205684E-05
   Pulay + GGA                   : -0.291890E+00 -0.548888E+00  0.879232E-01
   ----------------------------------------------------------------
   Total forces(  10)            :  0.946912E+00  0.365805E+00 -0.601953E+00
  atom #   11
   Hellmann-Feynman              :  0.925315E+00  0.910059E+00  0.101321E+01
   Ionic forces                  :  0.000000E+00  0.000000E+00  0.000000E+00
   Multipole                     : -0.316956E+00  0.205189E+00 -0.251031E+00
   Hartree pot. SCF incomplete   : -0.342326E-05  0.169525E-05 -0.281534E-05
   Pulay + GGA                   : -0.252411E+00 -0.687018E+00 -0.357240E+00
   ----------------------------------------------------------------
   Total forces(  11)            :  0.355944E+00  0.428232E+00  0.404933E+00
  atom #   12
   Hellmann-Feynman              : -0.279432E+00  0.127115E+01 -0.203686E-01
   Ionic forces                  :  0.000000E+00  0.000000E+00  0.000000E+00
   Multipole                     :  0.364786E+00  0.476624E-01  0.340828E+00
   Hartree pot. SCF incomplete   :  0.351663E-05  0.209457E-05  0.359571E-05
   Pulay + GGA                   : -0.355114E+00 -0.547793E+00 -0.423589E+00
   ----------------------------------------------------------------
   Total forces(  12)            : -0.269757E+00  0.771020E+00 -0.103126E+00


  Self-consistency convergence accuracy:
  | Change of charge density      :  0.3132E-06
  | Change of sum of eigenvalues  : -0.3191E-04 eV
  | Change of total energy        :  0.6651E-08 eV
  | Change of forces              :  0.1296E-05 eV/A

  Writing Kohn-Sham eigenvalues.

  State    Occupation    Eigenvalue [Ha]    Eigenvalue [eV]
      1       2.00000         -55.649554        -1514.30140
      2       2.00000         -55.649543        -1514.30112
      3       2.00000         -55.594429        -1512.80138
      4       2.00000         -24.305534         -661.38724
      5       2.00000         -24.305532         -661.38719
      6       2.00000         -24.276235         -660.58996
      7       2.00000         -24.252752         -659.95095
      8       2.00000         -24.251827         -659.92579
      9       2.00000         -24.220766         -659.08057
     10       2.00000         -24.220763         -659.08049
     11       2.00000         -24.184826         -658.10259
     12       2.00000         -24.181956         -658.02451
     13       2.00000          -4.100279         -111.57428
     14       2.00000          -4.100248         -111.57342
     15       2.00000          -4.049564         -110.19426
     16       2.00000          -2.694014          -73.30785
     17       2.00000          -2.693977          -73.30684
     18       2.00000          -2.692458          -73.26552
     19       2.00000          -2.692323          -73.26183
     20       2.00000          -2.689652          -73.18917
     21       2.00000          -2.689348          -73.18088
     22       2.00000          -2.643323          -71.92848
     23       2.00000          -2.642122          -71.89579
     24       2.00000          -2.637706          -71.77563
     25       2.00000          -1.205337          -32.79889
     26       2.00000          -1.194369          -32.50043
     27       2.00000          -1.185223          -32.25155
     28       2.00000          -1.112810          -30.28111
     29       2.00000          -1.105482          -30.08170
     30       2.00000          -1.056421          -28.74667
     31       2.00000          -1.056284          -28.74296
     32       2.00000          -1.033493          -28.12277
     33       2.00000          -1.029859          -28.02390
     34       2.00000          -0.585141          -15.92250
     35       2.00000          -0.582110          -15.84001
     36       2.00000          -0.559451          -15.22344
     37       2.00000          -0.547361          -14.89444
     38       2.00000          -0.521458          -14.18960
     39       2.00000          -0.508524          -13.83764
     40       2.00000          -0.504112          -13.71759
     41       2.00000          -0.500276          -13.61321
     42       2.00000          -0.490613          -13.35026
     43       2.00000          -0.444830          -12.10444
     44       2.00000          -0.434079          -11.81188
     45       2.00000          -0.424408          -11.54873
     46       2.00000          -0.417338          -11.35634
     47       2.00000          -0.416801          -11.34174
     48       2.00000          -0.411497          -11.19740
     49       2.00000          -0.404329          -11.00234
     50       2.00000          -0.395316          -10.75710
     51       2.00000          -0.382225          -10.40087
     52       2.00000          -0.376762          -10.25223
     53       2.00000          -0.366063           -9.96108
     54       2.00000          -0.366052           -9.96079
     55       2.00000          -0.363874           -9.90151
     56       2.00000          -0.363006           -9.87789
     57       2.00000          -0.342215           -9.31215
     58       2.00000          -0.341840           -9.30193
     59       2.00000          -0.335951           -9.14170
     60       2.00000          -0.329335           -8.96165
     61       0.00000          -0.159014           -4.32700
     62       0.00000          -0.111505           -3.03422
     63       0.00000          -0.063850           -1.73744
     64       0.00000          -0.061204           -1.66544
     65       0.00000          -0.035123           -0.95575
     66       0.00000           0.014007            0.38116
     67       0.00000           0.020938            0.56975
     68       0.00000           0.024912            0.67788
     69       0.00000           0.061371            1.66999
     70       0.00000           0.069894            1.90191
     71       0.00000           0.082331            2.24034
     72       0.00000           0.107319            2.92030
     73       0.00000           0.140092            3.81210
     74       0.00000           0.150263            4.08886
     75       0.00000           0.151311            4.11738
     76       0.00000           0.165245            4.49656
     77       0.00000           0.197648            5.37829
     78       0.00000           0.203719            5.54349
     79       0.00000           0.206133            5.60916
     80       0.00000           0.207319            5.64143
     81       0.00000           0.211226            5.74774
     82       0.00000           0.225664            6.14064
     83       0.00000           0.226217            6.15567
     84       0.00000           0.235855            6.41795
     85       0.00000           0.244785            6.66095
     86       0.00000           0.250427            6.81447
     87       0.00000           0.261237            7.10863
     88       0.00000           0.263223            7.16265
     89       0.00000           0.287884            7.83372
     90       0.00000           0.302810            8.23987
     91       0.00000           0.318510            8.66709
     92       0.00000           0.340995            9.27896
     93       0.00000           0.352774            9.59948
     94       0.00000           0.355716            9.67954
     95       0.00000           0.371144           10.09934
     96       0.00000           0.375387           10.21481

  Highest occupied state (VBM) at     -8.96165159 eV
  | Occupation number:      2.00000000

  Lowest unoccupied state (CBM) at    -4.32699793 eV
  | Occupation number:      0.00000000

  Overall HOMO-LUMO gap:      4.63465366 eV.
  | Chemical Potential                          :    -7.65061923 eV

  Self-consistency cycle converged.


------------------------------------------------------------
  End self-consistency iteration #    14       :  max(cpu_time)    wall_clock(cpu1)
  | Time for this iteration                     :        0.272 s           0.271 s
  | Charge density & force component update     :        0.151 s           0.151 s
  | Density mixing                              :        0.005 s           0.003 s
  | Hartree multipole update                    :        0.001 s           0.001 s
  | Hartree multipole summation                 :        0.049 s           0.049 s
  | Hartree pot. SCF incomplete forces          :        0.031 s           0.031 s
  | Integration                                 :        0.031 s           0.031 s
  | Solution of K.-S. eqns.                     :        0.004 s           0.004 s
  | Total energy evaluation                     :        0.000 s           0.000 s

  Partial memory accounting:
  | Current value for overall tracked memory usage:
  |   Minimum:        0.274 MB (on task 23)
  |   Maximum:        0.293 MB (on task  0)
  |   Average:        0.289 MB
  | Peak value for overall tracked memory usage:
  |   Minimum:        3.041 MB (on task 16 after allocating hessian_basis_wave)
  |   Maximum:        3.195 MB (on task 20 after allocating hessian_basis_wave)
  |   Average:        3.096 MB
  | Largest tracked array allocation so far:
  |   Minimum:        1.485 MB (hessian_basis_wave on task 16)
  |   Maximum:        1.585 MB (hessian_basis_wave on task 20)
  |   Average:        1.521 MB
  Note:  These values currently only include a subset of arrays which are explicitly tracked.
  The "true" memory usage will be greater.
------------------------------------------------------------
  Removing unitary transformations (pure translations, rotations) from forces on atoms.
  Atomic forces before filtering:
  | Net force on center of mass :   0.465600E-02 -0.170624E-02  0.473647E-02 eV/A
  | Net torque on center of mass:   0.101798E-01  0.703416E-02 -0.134142E-01 eV
  Atomic forces after filtering:
  | Net force on center of mass :  -0.669023E-15  0.535218E-15 -0.535218E-15 eV/A
  | Net torque on center of mass:  -0.188817E-15 -0.129812E-14 -0.273785E-14 eV

  Energy and forces in a compact form:
  | Total energy uncorrected      :         -0.442195620393682E+05 eV
  | Total energy corrected        :         -0.442195620393682E+05 eV  <-- do not rely on this value for anything but (periodic) metals
  | Electronic free energy        :         -0.442195620393682E+05 eV
  Total atomic forces (unitary forces cleaned) [eV/Ang]:
  |    1         -0.956355071855104E+00          0.351921484178891E+01         -0.220250812516224E+00
  |    2          0.102080269822527E+01         -0.106168988578384E+01         -0.106639803504048E+01
  |    3         -0.740393428194010E+00         -0.142050034879277E+01          0.862205684802141E+00
  |    4         -0.161735309853348E+01         -0.203427348813185E+01         -0.185191342532624E+01
  |    5          0.214278467450847E+01         -0.747243159607959E+00          0.181357087918225E+01
  |    6         -0.564067791446867E-01         -0.373981014043222E+01         -0.744397287721257E+00
  |    7         -0.551802044103346E+00          0.594800604392126E-01          0.104202842716706E+01
  |    8          0.244485498698469E+01          0.245461191651847E+01         -0.259902821372126E+01
  |    9         -0.271824370220250E+01          0.140456898686808E+01          0.306527947597367E+01
  |   10          0.946374647041447E+00          0.366044407472101E+00         -0.602409692548143E+00
  |   11          0.355839529912755E+00          0.427834839176544E+00          0.404448045152686E+00
  |   12         -0.270102412639509E+00          0.771761970485322E+00         -0.103135045404197E+00

  ------------------------------------ 
  Start decomposition of the XC Energy 
  ------------------------------------ 
  X and C from original XC functional choice 
  Hartree-Fock Energy :          0.000000000 Ha              0.000000000 eV
  X Energy            :       -140.344694987 Ha          -3818.973457830 eV
  C Energy            :         -4.967789122 Ha           -135.180419919 eV
  Total XC Energy     :       -145.312484109 Ha          -3954.153877750 eV
  ------------------------------------ 
  LDA X and C from self-consistent density 
  X Energy LDA        :       -132.943872555 Ha          -3617.586833013 eV
  C Energy LDA        :         -8.835762237 Ha           -240.433323594 eV
  ------------------------------------ 
  End decomposition of the XC Energy 
  ------------------------------------ 

------------------------------------------------------------

------------------------------------------------------------------------------
  Final output of selected total energy values:

  The following output summarizes some interesting total energy values
  at the end of a run (AFTER all relaxation, molecular dynamics, etc.).

  | Total energy of the DFT / Hartree-Fock s.c.f. calculation      :         -44219.562039368 eV
  | Final zero-broadening corrected energy (caution - metals only) :         -44219.562039368 eV
  | For reference only, the value of 1 Hartree used in FHI-aims is :             27.211384500 eV

  Before relying on these values, please be sure to understand exactly which
  total energy value is referred to by a given number. Different objects may
  all carry the same name 'total energy'. Definitions:

  Total energy of the DFT / Hartree-Fock s.c.f. calculation:
  | Note that this energy does not include ANY quantities calculated after the
  | s.c.f. cycle, in particular not ANY RPA, MP2, etc. many-body perturbation terms.

  Final zero-broadening corrected energy:
  | For metallic systems only, a broadening of the occupation numbers at the Fermi
  | level can be extrapolated back to zero broadening by an electron-gas inspired
  | formula. For all systems that are not real metals, this value can be
  | meaningless and should be avoided.

------------------------------------------------------------------------------
  Methods described in the following list of references were used in this FHI-aims run.
  If you publish the results, please make sure to cite these reference if they apply.
  FHI-aims is an academic code, and for our developers (often, Ph.D. students
  and postdocs), scientific credit in the community is essential.
  Thank you for helping us!

  For any use of FHI-aims, please cite:

    Volker Blum, Ralf Gehrke, Felix Hanke, Paula Havu, Ville Havu,
    Xinguo Ren, Karsten Reuter, and Matthias Scheffler
    'Ab initio molecular simulations with numeric atom-centered orbitals'
    Computer Physics Communications 180, 2175-2196 (2009)
    http://dx.doi.org/10.1016/j.cpc.2009.06.022


  The ELSI infrastructure was used in your run to solve the Kohn-Sham electronic structure.
  Please check out http://elsi-interchange.org to learn more.
  If scalability is important for your project, please acknowledge ELSI by citing:

    V. W-z. Yu, F. Corsetti, A. Garcia, W. P. Huhn, M. Jacquelin, W. Jia,
    B. Lange, L. Lin, J. Lu, W. Mi, A. Seifitokaldani, A. Vazquez-Mayagoitia,
    C. Yang, H. Yang, and V. Blum
    'ELSI: A unified software interface for Kohn-Sham electronic structure solvers'
    Computer Physics Communications 222, 267-285 (2018).
    http://dx.doi.org/10.1016/j.cpc.2017.09.007


  For the real-space grid partitioning and parallelization used in this calculation, please cite:

    Ville Havu, Volker Blum, Paula Havu, and Matthias Scheffler,
    'Efficient O(N) integration for all-electron electronic structure calculation'
    'using numerically tabulated basis functions'
    Journal of Computational Physics 228, 8367-8379 (2009).
    http://dx.doi.org/10.1016/j.jcp.2009.08.008

  Of course, there are many other important community references, e.g., those cited in the
  above references. Our list is limited to references that describe implementations in the
  FHI-aims code. The reason is purely practical (length of this list) - please credit others as well.

------------------------------------------------------------
          Leaving FHI-aims.
          Date     :  20220517, Time     :  122058.908

          Computational steps:
          | Number of self-consistency cycles          :           14
          | Number of SCF (re)initializations          :            1

          Detailed time accounting                     :  max(cpu_time)    wall_clock(cpu1)
          | Total time                                  :        1.957 s           2.022 s
          | Preparation time                            :        0.184 s           0.184 s
          | Boundary condition initalization            :        0.000 s           0.001 s
          | Grid partitioning                           :        0.039 s           0.039 s
          | Preloading free-atom quantities on grid     :        0.016 s           0.016 s
          | Free-atom superposition energy              :        0.005 s           0.005 s
          | Total time for integrations                 :        0.479 s           0.481 s
          | Total time for solution of K.-S. equations  :        0.067 s           0.068 s
          | Total time for density & force components   :        0.670 s           0.670 s
          | Total time for mixing                       :        0.061 s           0.036 s
          | Total time for Hartree multipole update     :        0.018 s           0.017 s
          | Total time for Hartree multipole sum        :        0.300 s           0.299 s
          | Total time for total energy evaluation      :        0.002 s           0.001 s
          | Total time NSC force correction             :        0.062 s           0.062 s
          | Total time for scaled ZORA corrections      :        0.000 s           0.000 s

          Partial memory accounting:
          | Residual value for overall tracked memory usage across tasks:     0.000000 MB (should be 0.000000 MB)
          | Peak values for overall tracked memory usage:
          |   Minimum:        3.041 MB (on task 16 after allocating hessian_basis_wave)
          |   Maximum:        3.195 MB (on task 20 after allocating hessian_basis_wave)
          |   Average:        3.096 MB
          | Largest tracked array allocation:
          |   Minimum:        1.485 MB (hessian_basis_wave on task 16)
          |   Maximum:        1.585 MB (hessian_basis_wave on task 20)
          |   Average:        1.521 MB
          Note:  These values currently only include a subset of arrays which are explicitly tracked.
          The "true" memory usage will be greater.

          Have a nice day.
------------------------------------------------------------
