12
Properties=species:S:1:pos:R:3:forces:R:3 energy=-185.71757886 pbc="F F F"
Al    0.072722443    1.685234796    2.131889821    0.755153    -0.768576    0.161297
Al    2.627755996    2.669957925    1.614705875    -1.062328    -1.251467    -3.11947
Al    1.194188558    2.569406781    -0.7141909529999999    -0.039277    1.075659    -0.175864
F    1.101653252    3.194856519    2.663575532    0.180121    0.200268    0.035933
F    -1.330302747    2.896640543    2.335141095    -0.091129    0.671901    0.072315
F    -0.33488756000000003    -0.015554618    2.7649618599999997    -0.321309    -0.094038    0.088196
F    1.852956469    0.883675185    1.7056673340000001    0.062664    -0.185472    0.296605
F    2.915179142    1.883758572    -0.096260554    -0.09922    0.178684    0.978383
F    1.120260214    3.170490752    -2.493019204    0.161697    -0.09189    -0.408483
F    1.585978868    3.9317446869999997    0.582057865    0.00575    -0.027932    0.141795
F    3.830359866    2.8859585109999997    3.2417217679999997    0.649933    0.885564    1.54684
F    -0.2062542    1.606749468    0.118919705    -0.202055    -0.592699    0.382453
