12
Properties=species:S:1:pos:R:3:forces:R:3 energy=-184.06357105 pbc="F F F"
Al    0.191030472    -2.651870611    -1.903814361    -0.216603    -0.688352    -0.180052
Al    2.11985813    -0.678396256    -0.784151124    -1.087613    -1.35203    -0.659191
Al    -0.484689206    0.193292903    -1.8845095829999998    -0.014068    -1.59308    -0.191883
F    3.659092288    -0.17232461599999999    -0.015020523000000008    -1.233601    -0.329421    -0.607548
F    -0.313403474    -4.607596393    -2.364165636    -0.543073    -2.131628    -0.498649
F    2.500729138    -1.510376776    -2.342514589    1.796668    1.831414    0.788475
F    1.360963495    0.514257839    -1.9604444200000002    -0.515397    -0.816606    1.435514
F    -1.490464922    1.6526220310000002    -2.178771911    0.624603    -0.767895    0.198844
F    -1.420251986    -0.856054852    -0.6808022690000001    -0.854779    2.212442    0.49784
F    -0.097809474    -0.522531009    -3.546809681    -0.377132    2.332908    -0.537316
F    0.634915496    0.33114549800000004    -0.386941502    0.815207    -0.481023    -1.448184
F    1.268751134    -1.8210856100000001    0.32743732699999994    1.605789    1.783272    1.202149
