12
Properties=species:S:1:pos:R:3:forces:R:3 energy=-180.81402991 pbc="F F F"
Al    -0.640243238    0.97576336    -1.705847836    -1.112366    -0.13553    5.498839
Al    -0.259385614    1.107774153    0.900083836    6.024719    1.001139    -15.77782
Al    -2.8996357190000004    0.484291189    -1.872349442    -1.215938    -0.268679    -0.309084
F    -3.6728027610000002    0.28479690799999996    -3.571064008    -0.385941    -0.10528    -1.146671
F    -0.8531165569999999    -0.850832301    -1.861348845    3.315807    3.567403    0.355994
F    -1.586929687    2.544591103    -1.926108583    4.489829    -1.864905    0.459601
F    -2.116652525    0.703143139    0.7300751240000001    0.060281    0.029971    0.888336
F    0.270826327    1.198929543    -0.328633411    -7.134315    -1.406619    7.091127
F    -0.319705675    2.5240398969999998    1.945366447    -0.304505    -1.279811    -0.155596
F    0.262088115    -0.167977058    1.9967086450000002    -0.804427    1.033375    -0.199712
F    -4.275566692    0.20982377000000002    -0.671851065    -0.951898    -0.185834    1.042851
F    0.49633992700000007    1.1981446370000002    -2.925185829    -1.981248    -0.385231    2.252134
