12
Properties=species:S:1:pos:R:3:forces:R:3 energy=-187.35959878 pbc="F F F"
Al    1.55496518    -0.012990182999999988    2.3664120730000002    0.735197    0.561775    0.144913
Al    1.216085    1.2550255    -0.1015845    -0.029752    0.050309    -0.110276
Al    -0.494811562    0.79261525    -2.241040273    -0.604675    -0.666616    0.294882
F    -1.859823172    -0.347943953    -2.013116106    0.344322    0.330888    -0.066252
F    2.452625753    -0.11103395299999999    0.6901689520000001    -0.014533    -0.073221    0.049285
F    -0.084603361    1.63186279    -3.828458333    0.098298    0.24664    -0.3483
F    -0.41685680999999997    2.015658253    -0.798852049    0.05099    0.06375    0.048506
F    2.387441057    2.627731512    -0.36503794300000003    0.040914    0.033973    0.001556
F    1.115820239    -0.008550595    -1.535827754    0.086837    0.018399    0.024752
F    0.262796617    1.2679089289999999    1.5871960390000002    -0.046896    -0.028423    0.045247
F    2.484826969    0.972138576    3.6646154369999997    -0.269859    -0.141895    -0.20504
F    0.554590175    -1.573562852    2.692787571    -0.390841    -0.395578    0.120727
