------------------------------------------------------------
          Invoking FHI-aims ...

          When using FHI-aims, please cite the following reference:

            Volker Blum, Ralf Gehrke, Felix Hanke, Paula Havu,
            Ville Havu, Xinguo Ren, Karsten Reuter, and Matthias Scheffler,
            'Ab Initio Molecular Simulations with Numeric Atom-Centered Orbitals',
            Computer Physics Communications 180, 2175-2196 (2009)

          In addition, many other developments in FHI-aims are likely important for
          your particular application. A partial list of references is given at the end of
          this file. Thank you for giving credit to the authors of these developments.

          For any questions about FHI-aims, please visit our slack channel at

            https://fhi-aims.slack.com

          and our main development and support site at

            https://aims-git.rz-berlin.mpg.de .

          The latter site, in particular, has a wiki to collect information, as well
          as an issue tracker to log discussions, suggest improvements, and report issues
          or bugs. https://aims-git.rz-berlin.mpg.de is also the main development site
          of the project and all new and updated code versions can be obtained there.
          Please send an email to aims-coordinators@fhi-berlin.mpg.de and we will add
          you to these sites. They are for you and everyone is welcome there.

------------------------------------------------------------



  Date     :  20220517, Time     :  105454.796
  Time zero on CPU 1             :   0.396130000000000E-01  s.
  Internal wall clock time zero  :           422016894.796  s.

  FHI-aims created a unique identifier for this run for later identification
  aims_uuid : D91F5F6C-AC0A-497A-A852-C5D7004258DC

  Build configuration of the current instance of FHI-aims
  -------------------------------------------------------
  FHI-aims version      : 210914
  Commit number         : GITDIR-NOTFOUND
  CMake host system     : Linux-3.10.0-693.17.1.el7.x86_64
  CMake version         : 3.21.1
  Fortran compiler      : /shared/ucl/apps/intel/2018.Update3/impi/2018.3.222/intel64/bin/mpiifort (Intel) version 18.0.3.20180410
  Fortran compiler flags: -O3 -ip -fp-model precise
  C compiler            : /shared/ucl/apps/intel/2018.Update3/compilers_and_libraries_2018.3.222/linux/bin/intel64/icc (Intel) version 18.0.3.20180410
  C compiler flags      : -O3 -ip -fp-model precise -std=gnu99
  ELPA2 kernel          : AVX2
  Using MPI
  Using ScaLAPACK
  Using LibXC
  Using i-PI
  Using RLSY
  Linking against: /shared/ucl/apps/intel/2019.Update5/compilers_and_libraries_2019.5.281/linux/mkl/lib/intel64/libmkl_intel_lp64.so
                   /shared/ucl/apps/intel/2019.Update5/compilers_and_libraries_2019.5.281/linux/mkl/lib/intel64/libmkl_sequential.so
                   /shared/ucl/apps/intel/2019.Update5/compilers_and_libraries_2019.5.281/linux/mkl/lib/intel64/libmkl_core.so
                   /shared/ucl/apps/intel/2019.Update5/compilers_and_libraries_2019.5.281/linux/mkl/lib/intel64/libmkl_blacs_intelmpi_lp64.so
                   /shared/ucl/apps/intel/2019.Update5/compilers_and_libraries_2019.5.281/linux/mkl/lib/intel64/libmkl_scalapack_lp64.so

  Using       24 parallel tasks.
  Task        0 on host node-k98i-010 reporting.
  Task        1 on host node-k98i-010 reporting.
  Task        2 on host node-k98i-010 reporting.
  Task        3 on host node-k98i-010 reporting.
  Task        4 on host node-k98i-010 reporting.
  Task        5 on host node-k98i-010 reporting.
  Task        6 on host node-k98i-010 reporting.
  Task        7 on host node-k98i-010 reporting.
  Task        8 on host node-k98i-010 reporting.
  Task        9 on host node-k98i-010 reporting.
  Task       10 on host node-k98i-010 reporting.
  Task       11 on host node-k98i-010 reporting.
  Task       12 on host node-k98i-010 reporting.
  Task       13 on host node-k98i-010 reporting.
  Task       14 on host node-k98i-010 reporting.
  Task       15 on host node-k98i-010 reporting.
  Task       16 on host node-k98i-010 reporting.
  Task       17 on host node-k98i-010 reporting.
  Task       18 on host node-k98i-010 reporting.
  Task       19 on host node-k98i-010 reporting.
  Task       20 on host node-k98i-010 reporting.
  Task       21 on host node-k98i-010 reporting.
  Task       22 on host node-k98i-010 reporting.
  Task       23 on host node-k98i-010 reporting.

  Performing system and environment tests:
  | Environment variable OMP_NUM_THREADS correctly set to 1.
  | Checking for ScaLAPACK...
  | Testing pdtran()...
  | All pdtran() tests passed.

  Obtaining array dimensions for all initial allocations:
  
  -----------------------------------------------------------------------
  Parsing control.in (first pass over file, find array dimensions only).
  The contents of control.in will be repeated verbatim below
  unless switched off by setting 'verbatim_writeout .false.' .
  in the first line of control.in .
  -----------------------------------------------------------------------
  
  #########################################################################################  Physical model
  #########################################################################################
  xc                 pbesol
  spin               none
  relativistic       atomic_zora scalar
  charge             0.0
  #  SCF convergence
  occupation_type    gaussian 0.01
  mixer              pulay
  n_max_pulay        10
  charge_mix_param   0.5
  sc_accuracy_rho    1E-5
  sc_accuracy_eev    1E-3
  sc_accuracy_etot   1E-6
  sc_accuracy_forces 1E-4
  sc_iter_limit      1500
  #  Relaxation
  #relax_geometry   bfgs 1.e-3
  
  ################################################################################
  #
  #  FHI-aims code project
  #  VB, Fritz-Haber Institut, 2009
  #
  #  Suggested "light" defaults for Al atom (to be pasted into control.in file)
  #  Be sure to double-check any results obtained with these settings for post-processing,
  #  e.g., with the "tight" defaults and larger basis sets.
  #
  ################################################################################
    species        Al
  #     global species definitions
      nucleus             13
      mass                26.9815386
  #
      l_hartree           4
  #
      cut_pot             3.5          1.5  1.0
      basis_dep_cutoff    1e-4
  #
      radial_base         41 5.0
      radial_multiplier   1
      angular_grids       specified
        division   0.6594  110
        division   0.8170  194
        division   0.9059  302
  #      division   1.0363  434
  #      division   1.1443  590
  #      division   1.2621  770
  #      division   2.8177  974
  #      outer_grid   974
        outer_grid   302
  ################################################################################
  #
  #  Definition of "minimal" basis
  #
  ################################################################################
  #     valence basis states
      valence      3  s   2.
      valence      3  p   1.
  #     ion occupancy
      ion_occ      3  s   1.
      ion_occ      2  p   6.
  ################################################################################
  #
  #  Suggested additional basis functions. For production calculations,
  #  uncomment them one after another (the most important basis functions are
  #  listed first).
  #
  #  Constructed for dimers: 2.0 A, 2.5 A, 3.0 A, 3.75 A, 4.5 A
  #
  ################################################################################
  #  "First tier" - improvements: -199.47 meV to -10.63 meV
       ionic 3 d auto
       ionic 3 p auto
  #     hydro 4 f 4.7
       ionic 3 s auto
  #  "Second tier" - improvements: -5.35 meV to -1.57 meV
  #     hydro 5 g 7
  #     hydro 3 d 6
  #     hydro 2 s 11.6
  #     hydro 2 p 0.9
  #  "Third tier" - improvements: -0.63 meV to -0.20 meV
  #     hydro 5 f 7.6
  #     hydro 4 p 7.2
  #     hydro 4 s 3.7
  #     hydro 4 d 7.6
  #  "Fourth tier" - improvements: -0.17 meV to -0.08 meV
  #     hydro 4 d 13.6
  #     hydro 5 g 11.2
  #     hydro 4 d 0.9
  #     hydro 1 s 0.4
  #     hydro 4 p 0.1
  #     hydro 5 f 9.8
  #  Further basis functions that fell out of the optimization - noise level...
  #     hydro 4 p 5
  
  ################################################################################
  #
  #  FHI-aims code project
  #  VB, Fritz-Haber Institut, 2009
  #
  #  Suggested "light" defaults for F atom (to be pasted into control.in file)
  #  Be sure to double-check any results obtained with these settings for post-processing,
  #  e.g., with the "tight" defaults and larger basis sets.
  #
  ################################################################################
    species        F
  #     global species definitions
      nucleus             9
      mass                18.9984032
  #
      l_hartree           4
  #
      cut_pot             3.5  1.5  1.0
      basis_dep_cutoff    1e-4
  #
      radial_base         37 5.0
      radial_multiplier   1
      angular_grids specified
        division   0.4014  110
        division   0.5291  194
        division   0.6019  302
  #      division   0.6814  434
  #      division   0.7989  590
  #      division   0.8965  770
  #      division   1.3427  974
  #      outer_grid   974
        outer_grid   302
  ################################################################################
  #
  #  Definition of "minimal" basis
  #
  ################################################################################
  #     valence basis states
      valence      2  s   2.
      valence      2  p   5.
  #     ion occupancy
      ion_occ      2  s   1.
      ion_occ      2  p   4.
  ################################################################################
  #
  #  Suggested additional basis functions. For production calculations,
  #  uncomment them one after another (the most important basis functions are
  #  listed first).
  #
  #  Constructed for dimers: 1.2 A, 1.418 A, 1.75 A, 2.25 A, 3.25 A
  #
  ################################################################################
  #  "First tier" - improvements: -149.44 meV to -45.88 meV
       hydro 2 p 1.7
       hydro 3 d 7.4
       hydro 3 s 6.8
  #  "Second tier" - improvements: -12.96 meV to -1.56 meV
  #     hydro 4 f 11.2
  #     ionic 2 p auto
  #     hydro 1 s 0.75
  #     hydro 4 d 8.8
  #     hydro 5 g 16.8
  #  "Third tier" - improvements: -0.58 meV to -0.05 meV
  #     hydro 3 p 6.2
  #     hydro 3 s 3.2
  #     hydro 4 f 9.6
  #     hydro 3 s 19.6
  #     hydro 4 d 8.6
  #     hydro 5 g 14.4
  # Further basis functions: -0.05 meV and below
  #     hydro 3 p 4.2
  
  -----------------------------------------------------------------------
  Completed first pass over input file control.in .
  -----------------------------------------------------------------------
  
  
  -----------------------------------------------------------------------
  Parsing geometry.in (first pass over file, find array dimensions only).
  The contents of geometry.in will be repeated verbatim below
  unless switched off by setting 'verbatim_writeout .false.' .
  in the first line of geometry.in .
  -----------------------------------------------------------------------
  
  atom 1.258899662 0.076624516 2.456381437 Al
  atom 1.276784000 1.189243000 -0.083083000 Al
  atom -0.295364785 0.808107764 -2.334794273 Al
  atom -1.562870204 -0.495490144 -2.275666877 F
  atom 1.955088192 -0.405230354 0.739432313 F
  atom -0.033797016 1.917907254 -3.753673594 F
  atom -0.412815426 1.833656881 -0.722581095 F
  atom 2.587876553 2.420946509 -0.320355444 F
  atom 1.344901423 0.106941128 -1.686468777 F
  atom 0.521072471 1.625585823 1.644738702 F
  atom 2.627295130 0.498091019 3.580281009 F
  atom -0.087128441 -1.075056859 2.870232786 F
  
  -----------------------------------------------------------------------
  Completed first pass over input file geometry.in .
  -----------------------------------------------------------------------
  

  Basic array size parameters:
  | Number of species                 :        2
  | Number of atoms                   :       12
  | Max. basis fn. angular momentum   :        2
  | Max. atomic/ionic basis occupied n:        3
  | Max. number of basis fn. types    :        3
  | Max. radial fns per species/type  :        5
  | Max. logarithmic grid size        :     1340
  | Max. radial integration grid size :       41
  | Max. angular integration grid size:      302
  | Max. angular grid division number :        8
  | Radial grid for Hartree potential :     1340
  | Number of spin channels           :        1

------------------------------------------------------------
          Reading file control.in.
------------------------------------------------------------
  XC: Using PBEsol gradient-corrected functionals.
  Spin treatment: No spin polarisation.
  Scalar relativistic treatment of kinetic energy: on-site free-atom approximation to ZORA.
  Charge =   0.000000E+00: Neutral system requested explicitly.
  Occupation type: Gaussian broadening, width =   0.100000E-01 eV.
  Using pulay charge density mixing.
  Pulay mixing - number of memorized iterations:   10
  Charge density mixing - mixing parameter:     0.5000
  Convergence accuracy of self-consistent charge density:  0.1000E-04
  Convergence accuracy of sum of eigenvalues:  0.1000E-02
  Convergence accuracy of total energy:  0.1000E-05
  Convergence accuracy of forces:  0.1000E-03
  Maximum number of s.-c. iterations  :  1500
 
  Reading configuration options for species Al                  .
  | Found nuclear charge :  13.0000
  | Found atomic mass :    26.9815386000000      amu
  | Found l_max for Hartree potential  :   4
  | Found cutoff potl. onset [A], width [A], scale factor :    3.50000    1.50000    1.00000
  | Threshold for basis-dependent cutoff potential is   0.100000E-03
  | Found data for basic radial integration grid :    41 points, outermost radius =    5.000 A
  | Found multiplier for basic radial grid :   1
  | Found angular grid specification: user-specified.
  | Specified grid contains     4 separate shells.
  | Check grid settings after all constraints further below.
  | Found free-atom valence shell :  3 s   2.000
  | Found free-atom valence shell :  3 p   1.000
  | Found free-ion valence shell :  3 s   1.000
  | Found free-ion valence shell :  2 p   6.000
  | Found ionic basis function :  3 d , default cutoff radius.
  | Found ionic basis function :  3 p , default cutoff radius.
  | Found ionic basis function :  3 s , default cutoff radius.
  Species Al                  : Missing cutoff potential type.
  Defaulting to exp(1/x)/(1-x)^2 type cutoff potential.
  Species Al: No 'logarithmic' tag. Using default grid for free atom:
  | Default logarithmic grid data [bohr] : 0.1000E-03 0.1000E+03 0.1012E+01
  | Will include ionic basis functions of  2.0-fold positive Al                   ion.
  Species Al: On-site basis accuracy parameter (for Gram-Schmidt orthonormalisation) not specified.
  Using default value basis_acc =  0.1000000E-03.
  Species Al                  : Using default innermost maximum threshold i_radial=  2 for radial functions.
  Species Al                  : Default cutoff onset for free atom density etc. : 0.35000000E+01 AA.
  Species Al                  : Basic radial grid will be enhanced according to radial_multiplier =   1, to contain    41 grid points.
 
  Reading configuration options for species F                   .
  | Found nuclear charge :   9.0000
  | Found atomic mass :    18.9984032000000      amu
  | Found l_max for Hartree potential  :   4
  | Found cutoff potl. onset [A], width [A], scale factor :    3.50000    1.50000    1.00000
  | Threshold for basis-dependent cutoff potential is   0.100000E-03
  | Found data for basic radial integration grid :    37 points, outermost radius =    5.000 A
  | Found multiplier for basic radial grid :   1
  | Found angular grid specification: user-specified.
  | Specified grid contains     4 separate shells.
  | Check grid settings after all constraints further below.
  | Found free-atom valence shell :  2 s   2.000
  | Found free-atom valence shell :  2 p   5.000
  | Found free-ion valence shell :  2 s   1.000
  | Found free-ion valence shell :  2 p   4.000
  | Found hydrogenic basis function :  2 p   1.700
  | Found hydrogenic basis function :  3 d   7.400
  | Found hydrogenic basis function :  3 s   6.800
  Species F                   : Missing cutoff potential type.
  Defaulting to exp(1/x)/(1-x)^2 type cutoff potential.
  Species F : No 'logarithmic' tag. Using default grid for free atom:
  | Default logarithmic grid data [bohr] : 0.1000E-03 0.1000E+03 0.1012E+01
  Species F : On-site basis accuracy parameter (for Gram-Schmidt orthonormalisation) not specified.
  Using default value basis_acc =  0.1000000E-03.
  Species F                   : Using default innermost maximum threshold i_radial=  2 for radial functions.
  Species F                   : Default cutoff onset for free atom density etc. : 0.35000000E+01 AA.
  Species F                   : Basic radial grid will be enhanced according to radial_multiplier =   1, to contain    37 grid points.
 
  Finished reading input file 'control.in'.
 
------------------------------------------------------------


------------------------------------------------------------
          Reading geometry description geometry.in.
------------------------------------------------------------
  | The smallest distance between any two atoms is         1.81448489 AA.
  | The first atom of this pair is atom number                      2 .
  | The second atom of this pair is atom number                     8 .
  Input structure read successfully.
  The structure contains       12 atoms,  and a total of        120.000 electrons.

  Input geometry:
  | No unit cell requested.
  | Atomic structure:
  |       Atom                x [A]            y [A]            z [A]
  |    1: Species Al            1.25889966        0.07662452        2.45638144
  |    2: Species Al            1.27678400        1.18924300       -0.08308300
  |    3: Species Al           -0.29536479        0.80810776       -2.33479427
  |    4: Species F            -1.56287020       -0.49549014       -2.27566688
  |    5: Species F             1.95508819       -0.40523035        0.73943231
  |    6: Species F            -0.03379702        1.91790725       -3.75367359
  |    7: Species F            -0.41281543        1.83365688       -0.72258110
  |    8: Species F             2.58787655        2.42094651       -0.32035544
  |    9: Species F             1.34490142        0.10694113       -1.68646878
  |   10: Species F             0.52107247        1.62558582        1.64473870
  |   11: Species F             2.62729513        0.49809102        3.58028101
  |   12: Species F            -0.08712844       -1.07505686        2.87023279

 
  Finished reading input file 'control.in'.
 

------------------------------------------------------------
          Reading geometry description geometry.in.
------------------------------------------------------------
 
  Consistency checks for stacksize environment parameter are next.
 
  | Maximum stacksize for task 0: unlimited
  | Maximum stacksize for task 1: unlimited
  | Maximum stacksize for task 2: unlimited
  | Maximum stacksize for task 3: unlimited
  | Maximum stacksize for task 4: unlimited
  | Maximum stacksize for task 5: unlimited
  | Maximum stacksize for task 6: unlimited
  | Maximum stacksize for task 7: unlimited
  | Maximum stacksize for task 8: unlimited
  | Maximum stacksize for task 9: unlimited
  | Maximum stacksize for task 10: unlimited
  | Maximum stacksize for task 11: unlimited
  | Maximum stacksize for task 12: unlimited
  | Maximum stacksize for task 13: unlimited
  | Maximum stacksize for task 14: unlimited
  | Maximum stacksize for task 15: unlimited
  | Maximum stacksize for task 16: unlimited
  | Maximum stacksize for task 17: unlimited
  | Maximum stacksize for task 18: unlimited
  | Maximum stacksize for task 19: unlimited
  | Maximum stacksize for task 20: unlimited
  | Maximum stacksize for task 21: unlimited
  | Maximum stacksize for task 22: unlimited
  | Maximum stacksize for task 23: unlimited
  | Current stacksize for task 0: unlimited
  | Current stacksize for task 1: unlimited
  | Current stacksize for task 2: unlimited
  | Current stacksize for task 3: unlimited
  | Current stacksize for task 4: unlimited
  | Current stacksize for task 5: unlimited
  | Current stacksize for task 6: unlimited
  | Current stacksize for task 7: unlimited
  | Current stacksize for task 8: unlimited
  | Current stacksize for task 9: unlimited
  | Current stacksize for task 10: unlimited
  | Current stacksize for task 11: unlimited
  | Current stacksize for task 12: unlimited
  | Current stacksize for task 13: unlimited
  | Current stacksize for task 14: unlimited
  | Current stacksize for task 15: unlimited
  | Current stacksize for task 16: unlimited
  | Current stacksize for task 17: unlimited
  | Current stacksize for task 18: unlimited
  | Current stacksize for task 19: unlimited
  | Current stacksize for task 20: unlimited
  | Current stacksize for task 21: unlimited
  | Current stacksize for task 22: unlimited
  | Current stacksize for task 23: unlimited
 
  Consistency checks for the contents of control.in are next.
 
  MPI_IN_PLACE appears to work with this MPI implementation.
  | Keeping use_mpi_in_place .true. (see manual).
  Target number of points in a grid batch is not set. Defaulting to  100
  Method for grid partitioning is not set. Defaulting to parallel hash+maxmin partitioning.
  Batch size limit is not set. Defaulting to    200
  By default, will store active basis functions for each batch.
  If in need of memory, prune_basis_once .false. can be used to disable this option.
  communication_type for Hartree potential was not specified.
  Defaulting to calc_hartree .
  Pulay mixer: Number of initial linear mixing iterations not set.
  Defaulting to    0 iterations.
  Work space size for distributed Hartree potential not set.
  Defaulting to   0.200000E+03 MB.
  Algorithm-dependent basis array size parameters:
  | n_max_pulay                         :       10
  Presetting      1001 iterations before the initial mixing cycle
  is restarted anyway using the sc_init_iter criterion / keyword.
  Presetting a factor      1.000 between actual scf density residual
  and density convergence criterion sc_accuracy_rho below which sc_init_iter
  takes no effect.
  Geometry relaxation not requested: no relaxation will be performed.
  Forces evaluation will include force correction term due to incomplete self-consistency (default).
  Handling of forces: Unphysical translation and rotation will be removed from forces.
  No accuracy limit for integral partition fn. given. Defaulting to  0.1000E-14.
  No threshold value for u(r) in integrations given. Defaulting to  0.1000E-05.
  No accuracy for occupation numbers given. Defaulting to  0.1000E-12.
  No threshold value for occupation numbers given. Defaulting to  0.0000E+00.
  No accuracy for fermi level given. Defaulting to  0.1000E-19.
  Maximum # of iterations to find E_F not set. Defaulting to  200.
  Preferred method for the eigenvalue solver ('KS_method') not specified in 'control.in'.
  Calling BLACS routine to test compilation state
  Since ScaLAPACK support is enabled, defaulting to ELPA (via ELSI).
  Will not use alltoall communication since running on < 1024 CPUs.
  Threshold for basis singularities not set.
  Default threshold for basis singularities:  0.1000E-04
  partition_type (choice of integration weights) for integrals was not specified.
  | Using a version of the partition function of Stratmann and coworkers ('stratmann_sparse').
  | At each grid point, the set of atoms used to build the partition table is smoothly restricted to
  | only those atoms whose free-atom density would be non-zero at that grid point.
  Partitioning for Hartree potential was not defined. Using partition_type for integrals.
  | Adjusted default value of keyword multip_moments_threshold to:       0.10000000E-11
  | This value may affect high angular momentum components of the Hartree potential in periodic systems.
  No q(lm)/r^(l+1) cutoff set for long-range Hartree potential.
  | Using default value of  0.100000E-09 .
  | Verify using the multipole_threshold keyword.
  Defaulting to new monopole extrapolation.
  Density update method: automatic selection selected.
  Charge integration errors on the 3D integration grid will be compensated
  by explicit normalization and distribution of residual charges.
  Use the "compensate_multipole_errors" flag to change this behaviour.
  Set 'collect_eigenvectors' to be '.true.' for use_density_matrix .false.
 
  Consistency checks for the contents of geometry.in are next.
 
  Number of empty states per atom not set in control.in - providing a guess from actual geometry.
  | Total number of empty states used during s.c.f. cycle:       36
  If you use a very high smearing, use empty_states (per atom!) in control.in to increase this value.

  Structure-dependent array size parameters: 
  | Maximum number of distinct radial functions  :       14
  | Maximum number of basis functions            :      180
  | Number of Kohn-Sham states (occupied + empty):       96
------------------------------------------------------------

------------------------------------------------------------
          Preparing all fixed parts of the calculation.
------------------------------------------------------------
  Determining machine precision:
    2.225073858507201E-308
  Setting up grids for atomic and cluster calculations.

  Creating wave function, potential, and density for free atoms.

  Species: Al

  List of occupied orbitals and eigenvalues:
    n    l              occ      energy [Ha]    energy [eV]
    1    0           2.0000       -55.621123     -1513.5278
    2    0           2.0000        -3.957030      -107.6763
    3    0           2.0000        -0.272233        -7.4078
    2    1           6.0000        -2.540949       -69.1427
    3    1           1.0000        -0.083300        -2.2667


  Species: F

  List of occupied orbitals and eigenvalues:
    n    l              occ      energy [Ha]    energy [eV]
    1    0           2.0000       -24.399611      -663.9472
    2    0           2.0000        -1.098702       -29.8972
    2    1           5.0000        -0.408210       -11.1080


  Adding cutoff potential to free-atom effective potential.
  Creating fixed part of basis set: Ionic, confined, hydrogenic.
 
  Al                   ion:

  List of free ionic orbitals and eigenvalues:
    n    l      energy [Ha]    energy [eV]
    1    0       -56.418846     -1535.2349
    2    0        -4.732717      -128.7838
    3    0        -0.872690       -23.7471
    2    1        -3.317230       -90.2664


  List of ionic basis orbitals and eigenvalues:
    n    l      energy [Ha]    energy [eV]    outer radius [A]
    3    2        -0.346815        -9.4373       4.594041
    3    1        -0.631870       -17.1940       4.538221
    3    0        -0.872657       -23.7462       4.538221

 
  F                    hydrogenic:
 
  List of hydrogenic basis orbitals: 
    n    l      effective z      eigenvalue [eV]  inner max. [A]     outer max. [A]     outer radius [A]   
    2    1         1.700000        -9.7616           1.243167           1.243167           4.598524
    3    2         7.400000       -82.7828           0.642437           0.642437           3.305741
    3    0         6.800000       -69.9026           0.057798           1.022307           3.781556
 
  Creating atomic-like basis functions for current effective potential.

  Species Al                  :

  List of atomic basis orbitals and eigenvalues:
    n    l      energy [Ha]    energy [eV]    outer radius [A]
    1    0       -55.621123     -1513.5278       0.850197
    2    0        -3.957030      -107.6763       3.144911
    3    0        -0.272233        -7.4078       4.594041
    2    1        -2.540949       -69.1427       3.731966
    3    1        -0.083300        -2.2667       4.594041


  Species F                   :

  List of atomic basis orbitals and eigenvalues:
    n    l      energy [Ha]    energy [eV]    outer radius [A]
    1    0       -24.399611      -663.9472       1.258458
    2    0        -1.098702       -29.8972       4.325857
    2    1        -0.408210       -11.1080       4.487453

  Assembling full basis from fixed parts.
  | Species Al :   atomic orbital   1 s accepted.
  | Species Al :   atomic orbital   2 s accepted.
  | Species Al :    ionic orbital   3 s accepted.
  | Species Al :   atomic orbital   3 s accepted.
  | Species Al :   atomic orbital   2 p accepted.
  | Species Al :    ionic orbital   3 p accepted.
  | Species Al :   atomic orbital   3 p accepted.
  | Species Al :    ionic orbital   3 d accepted.
  | Species F :   atomic orbital   1 s accepted.
  | Species F :    hydro orbital   3 s accepted.
  | Species F :   atomic orbital   2 s accepted.
  | Species F :   atomic orbital   2 p accepted.
  | Species F :    hydro orbital   2 p accepted.
  | Species F :    hydro orbital   3 d accepted.
 
  Basis size parameters after reduction:
  | Total number of radial functions:       14
  | Total number of basis functions :      180
 
  Per-task memory consumption for arrays in subroutine allocate_ext:
  |           4.807768MB.
  Testing on-site integration grid accuracy.
  |  Species  Function  <phi|h_atom|phi> (log., in eV)  <phi|h_atom|phi> (rad., in eV)
           1        1              -1513.5277717935              -1513.5271881332
           1        2               -107.6762691836               -107.6762662489
           1        3                 -6.9467474784                 -6.9471269649
           1        4                  5.5771951849                  5.4862107220 ***
           1        5                -69.1427313144                -69.1427312731
           1        6                 -1.5197375330                 -1.5230432022
           1        7                  6.8210948310                  6.5529872240 ***
           1        8                  4.3216540965                  4.2851170187 ***
           2        9               -663.9471986398               -663.9470363334
           2       10                 16.8514011578                 16.8512525338
           2       11                -28.4490593856                -28.4490661472
           2       12                -11.1080115307                -11.1080620173
           2       13                  7.1940182175                  7.1685154137
           2       14                 44.8544281765                 44.8543763625
 * Note: Onsite integrals marked "***" above are less accurate than
 * onsite_accuracy_threshold =    0.03000 eV. Usually, this is harmless.
 * When in doubt, tighten the "radial" and/or "radial_multiplier" flags to check.

  Preparing densities etc. for the partition functions (integrals / Hartree potential).

  Preparations completed.
  max(cpu_time)          :      0.183 s.
  Wall clock time (cpu1) :      0.186 s.
------------------------------------------------------------

------------------------------------------------------------
          Begin self-consistency loop: Initialization.

          Date     :  20220517, Time     :  105455.027
------------------------------------------------------------

  Initializing index lists of integration centers etc. from given atomic structure:
  | Number of centers in hartree potential         :        12
  | Number of centers in hartree multipole         :        12
  | Number of centers in electron density summation:        12
  | Number of centers in basis integrals           :        12
  | Number of centers in integrals                 :        12
  | Number of centers in hamiltonian               :        12
  * Using 24 tasks for Scalapack Eigenvalue solver.
  Detailed listing of tasks and assigned k-points:
  (for non-periodic systems, the "k-point" denotes an internal label only)
   Task     0 k-point     1 on node-k98i-010
   Task     1 k-point     1 on node-k98i-010
   Task     2 k-point     1 on node-k98i-010
   Task     3 k-point     1 on node-k98i-010
   Task     4 k-point     1 on node-k98i-010
   Task     5 k-point     1 on node-k98i-010
   Task     6 k-point     1 on node-k98i-010
   Task     7 k-point     1 on node-k98i-010
   Task     8 k-point     1 on node-k98i-010
   Task     9 k-point     1 on node-k98i-010
   Task    10 k-point     1 on node-k98i-010
   Task    11 k-point     1 on node-k98i-010
   Task    12 k-point     1 on node-k98i-010
   Task    13 k-point     1 on node-k98i-010
   Task    14 k-point     1 on node-k98i-010
   Task    15 k-point     1 on node-k98i-010
   Task    16 k-point     1 on node-k98i-010
   Task    17 k-point     1 on node-k98i-010
   Task    18 k-point     1 on node-k98i-010
   Task    19 k-point     1 on node-k98i-010
   Task    20 k-point     1 on node-k98i-010
   Task    21 k-point     1 on node-k98i-010
   Task    22 k-point     1 on node-k98i-010
   Task    23 k-point     1 on node-k98i-010
  Tasks:    24 split into      6 X      4 BLACS grid
  Calculating block size based on n_basis =          180  max_nprow =            6  max_npcol =            4
  ScaLAPACK block size set to:           16
  Allocating        0.012 MB for ovlp
  Allocating        0.012 MB for ham
  Allocating        0.012 MB for eigenvec
  Required Scalapack workspace - INTEGER:            1  REAL:             1
  Partitioning the integration grid into batches with parallel hashing+maxmin method.
  | Number of batches:     1083
  | Maximal batch size:     198
  | Minimal batch size:      24
  | Average batch size:      84.875
  | Standard deviation of batch sizes:      25.569

  Integration load balanced across    24 MPI tasks.
  Work distribution over tasks is as follows:
  Task     0 has       3774 integration points.
  Task     1 has       3851 integration points.
  Task     2 has       3900 integration points.
  Task     3 has       3772 integration points.
  Task     4 has       3896 integration points.
  Task     5 has       3771 integration points.
  Task     6 has       3824 integration points.
  Task     7 has       3894 integration points.
  Task     8 has       3813 integration points.
  Task     9 has       3828 integration points.
  Task    10 has       3830 integration points.
  Task    11 has       3892 integration points.
  Task    12 has       3817 integration points.
  Task    13 has       3902 integration points.
  Task    14 has       3901 integration points.
  Task    15 has       3749 integration points.
  Task    16 has       3832 integration points.
  Task    17 has       3826 integration points.
  Task    18 has       3777 integration points.
  Task    19 has       3856 integration points.
  Task    20 has       3828 integration points.
  Task    21 has       3751 integration points.
  Task    22 has       3815 integration points.
  Task    23 has       3821 integration points.
  Initializing partition tables, free-atom densities, potentials, etc. across the integration grid (initialize_grid_storage).
  | initialize_grid_storage: Actual outermost partition radius vs. multipole_radius_free
  | (-- VB: in principle, multipole_radius_free should be larger, hence this output)
  | Species        1: Confinement radius =              4.999999999999999 AA, multipole_radius_free =              5.004487022111096 AA.
  | Species        1: outer_partition_radius set to              5.004487022111096 AA .
  | Species        2: Confinement radius =              4.999999999999999 AA, multipole_radius_free =              5.009370088163274 AA.
  | Species        2: outer_partition_radius set to              5.009370088163274 AA .
  | The sparse table of interatomic distances needs          1.64 kbyte instead of         1.15 kbyte of memory.
  | Using the partition_type stratmann_smoother will reduce your memory usage.
  | Net number of integration points:    91920
  | of which are non-zero points    :    85864
  Renormalizing the initial density to the exact electron count on the 3D integration grid.
  | Initial density: Formal number of electrons (from input files) :     120.0000000000
  | Integrated number of electrons on 3D grid     :     119.9999912686
  | Charge integration error                      :      -0.0000087314
  | Normalization factor for density and gradient :       1.0000000728
  Renormalizing the free-atom superposition density to the exact electron count on the 3D integration grid.
  | Formal number of electrons (from input files) :     120.0000000000
  | Integrated number of electrons on 3D grid     :     119.9999912686
  | Charge integration error                      :      -0.0000087314
  | Normalization factor for density and gradient :       1.0000000728
  Obtaining max. number of non-zero basis functions in each batch (get_n_compute_maxes).
  | Maximal number of non-zero basis functions:      158 in task     0
  | Maximal number of non-zero basis functions:      161 in task     1
  | Maximal number of non-zero basis functions:      163 in task     2
  | Maximal number of non-zero basis functions:      166 in task     3
  | Maximal number of non-zero basis functions:      163 in task     4
  | Maximal number of non-zero basis functions:      160 in task     5
  | Maximal number of non-zero basis functions:      160 in task     6
  | Maximal number of non-zero basis functions:      164 in task     7
  | Maximal number of non-zero basis functions:      164 in task     8
  | Maximal number of non-zero basis functions:      165 in task     9
  | Maximal number of non-zero basis functions:      166 in task    10
  | Maximal number of non-zero basis functions:      160 in task    11
  | Maximal number of non-zero basis functions:      163 in task    12
  | Maximal number of non-zero basis functions:      164 in task    13
  | Maximal number of non-zero basis functions:      159 in task    14
  | Maximal number of non-zero basis functions:      160 in task    15
  | Maximal number of non-zero basis functions:      164 in task    16
  | Maximal number of non-zero basis functions:      167 in task    17
  | Maximal number of non-zero basis functions:      159 in task    18
  | Maximal number of non-zero basis functions:      158 in task    19
  | Maximal number of non-zero basis functions:      160 in task    20
  | Maximal number of non-zero basis functions:      165 in task    21
  | Maximal number of non-zero basis functions:      156 in task    22
  | Maximal number of non-zero basis functions:      154 in task    23
  Selecting the method for density update.
  Loop over occupied states selected for charge density update.
  Allocating        0.132 MB for KS_eigenvector
  Integrating Hamiltonian matrix: batch-based integration.
  Time summed over all CPUs for integration: real work        0.685 s, elapsed        0.721 s
  Integrating overlap matrix.
  Time summed over all CPUs for integration: real work        0.265 s, elapsed        0.302 s
  Deallocating overlap matrix.

  Updating Kohn-Sham eigenvalues and eigenvectors using ELSI and the ELPA eigensolver.
  Overlap matrix is not singular
  | Lowest and highest eigenvalues :  0.3430E-02,  0.4858E+01
  Finished singularity check of overlap matrix
  | Time :     0.012 s
  Starting ELPA eigensolver
  Finished Cholesky decomposition
  | Time :     0.011 s
  Finished transformation to standard eigenproblem
  | Time :     0.000 s
  Finished solving standard eigenproblem
  | Time :     0.009 s
  Finished back-transformation of eigenvectors
  | Time :     0.003 s

  Obtaining occupation numbers and chemical potential using ELSI.
  | Chemical potential (Fermi level):    -7.62449363 eV
  Writing Kohn-Sham eigenvalues.

  State    Occupation    Eigenvalue [Ha]    Eigenvalue [eV]
      1       2.00000         -55.485746        -1509.84397
      2       2.00000         -55.483936        -1509.79472
      3       2.00000         -55.483936        -1509.79472
      4       2.00000         -24.359276         -662.84963
      5       2.00000         -24.359276         -662.84963
      6       2.00000         -24.359258         -662.84913
      7       2.00000         -24.359258         -662.84913
      8       2.00000         -24.340757         -662.34569
      9       2.00000         -24.340195         -662.33041
     10       2.00000         -24.340195         -662.33041
     11       2.00000         -24.340071         -662.32702
     12       2.00000         -24.340071         -662.32702
     13       2.00000          -3.951398         -107.52301
     14       2.00000          -3.948980         -107.45721
     15       2.00000          -3.948979         -107.45719
     16       2.00000          -2.543919          -69.22356
     17       2.00000          -2.543230          -69.20482
     18       2.00000          -2.542725          -69.19107
     19       2.00000          -2.541386          -69.15462
     20       2.00000          -2.541379          -69.15445
     21       2.00000          -2.541334          -69.15321
     22       2.00000          -2.541321          -69.15287
     23       2.00000          -2.539761          -69.11040
     24       2.00000          -2.539759          -69.11037
     25       2.00000          -1.190076          -32.38361
     26       2.00000          -1.180376          -32.11968
     27       2.00000          -1.177758          -32.04844
     28       2.00000          -1.169965          -31.83635
     29       2.00000          -1.149656          -31.28374
     30       2.00000          -1.149384          -31.27632
     31       2.00000          -1.149092          -31.26839
     32       2.00000          -1.147236          -31.21789
     33       2.00000          -1.147227          -31.21765
     34       2.00000          -0.555370          -15.11239
     35       2.00000          -0.548518          -14.92594
     36       2.00000          -0.538714          -14.65917
     37       2.00000          -0.532023          -14.47708
     38       2.00000          -0.514330          -13.99563
     39       2.00000          -0.504617          -13.73132
     40       2.00000          -0.496262          -13.50397
     41       2.00000          -0.494842          -13.46534
     42       2.00000          -0.492587          -13.40398
     43       2.00000          -0.486527          -13.23906
     44       2.00000          -0.485549          -13.21247
     45       2.00000          -0.482701          -13.13497
     46       2.00000          -0.479156          -13.03850
     47       2.00000          -0.476997          -12.97975
     48       2.00000          -0.475263          -12.93258
     49       2.00000          -0.471676          -12.83495
     50       2.00000          -0.466001          -12.68054
     51       2.00000          -0.454653          -12.37173
     52       2.00000          -0.454230          -12.36023
     53       2.00000          -0.453215          -12.33260
     54       2.00000          -0.451347          -12.28179
     55       2.00000          -0.450809          -12.26713
     56       2.00000          -0.449993          -12.24494
     57       2.00000          -0.448087          -12.19308
     58       2.00000          -0.447760          -12.18417
     59       2.00000          -0.447066          -12.16528
     60       2.00000          -0.445928          -12.13432
     61       0.00000          -0.137118           -3.73117
     62       0.00000          -0.108314           -2.94738
     63       0.00000          -0.061942           -1.68552
     64       0.00000          -0.027098           -0.73738
     65       0.00000          -0.021949           -0.59725
     66       0.00000          -0.006928           -0.18853
     67       0.00000          -0.006893           -0.18758
     68       0.00000           0.037674            1.02517
     69       0.00000           0.048527            1.32048
     70       0.00000           0.065190            1.77391
     71       0.00000           0.083352            2.26811
     72       0.00000           0.120035            3.26631
     73       0.00000           0.143617            3.90802
     74       0.00000           0.153295            4.17138
     75       0.00000           0.171291            4.66107
     76       0.00000           0.174320            4.74349
     77       0.00000           0.174845            4.75779
     78       0.00000           0.179914            4.89570
     79       0.00000           0.190342            5.17946
     80       0.00000           0.202322            5.50546
     81       0.00000           0.206733            5.62549
     82       0.00000           0.215154            5.85465
     83       0.00000           0.224560            6.11060
     84       0.00000           0.232765            6.33387
     85       0.00000           0.250624            6.81982
     86       0.00000           0.267054            7.26691
     87       0.00000           0.269911            7.34464
     88       0.00000           0.273367            7.43868
     89       0.00000           0.280197            7.62454
     90       0.00000           0.292221            7.95173
     91       0.00000           0.294229            8.00638
     92       0.00000           0.304719            8.29182
     93       0.00000           0.336501            9.15667
     94       0.00000           0.348191            9.47475
     95       0.00000           0.362251            9.85735
     96       0.00000           0.374416           10.18839

  Highest occupied state (VBM) at    -12.13432305 eV
  | Occupation number:      2.00000000

  Lowest unoccupied state (CBM) at    -3.73116825 eV
  | Occupation number:      0.00000000

  Overall HOMO-LUMO gap:      8.40315480 eV.
  Calculating total energy contributions from superposition of free atom densities.

  Total energy components:
  | Sum of eigenvalues            :        -887.56227934 Ha      -24151.79845071 eV
  | XC energy correction          :        -144.33175052 Ha       -3927.46675884 eV
  | XC potential correction       :         187.92738153 Ha        5113.76423690 eV
  | Free-atom electrostatic energy:        -781.39546388 Ha      -21262.85241413 eV
  | Hartree energy correction     :           0.00000000 Ha           0.00000000 eV
  | Entropy correction            :           0.00000000 Ha           0.00000000 eV
  | ---------------------------
  | Total energy                  :       -1625.36211220 Ha      -44228.35338679 eV
  | Total energy, T -> 0          :       -1625.36211220 Ha      -44228.35338679 eV  <-- do not rely on this value for anything but (periodic) metals
  | Electronic free energy        :       -1625.36211220 Ha      -44228.35338679 eV

  Derived energy quantities:
  | Kinetic energy                :        1627.60237816 Ha       44289.31412532 eV
  | Electrostatic energy          :       -3108.63273985 Ha      -84590.20075327 eV
  | Energy correction for multipole
  | error in Hartree potential    :           0.00000000 Ha           0.00000000 eV
  | Sum of eigenvalues per atom                           :       -2012.64987089 eV
  | Total energy (T->0) per atom                          :       -3685.69611557 eV  <-- do not rely on this value for anything but (periodic) metals
  | Electronic free energy per atom                       :       -3685.69611557 eV
  Initialize hartree_potential_storage
  Max. number of atoms included in rho_multipole:           12

  End scf initialization - timings             :  max(cpu_time)    wall_clock(cpu1)
  | Time for scf. initialization                :        0.166 s           0.167 s
  | Boundary condition initialization           :        0.000 s           0.001 s
  | Integration                                 :        0.050 s           0.050 s
  | Solution of K.-S. eqns.                     :        0.038 s           0.039 s
  | Grid partitioning                           :        0.042 s           0.043 s
  | Preloading free-atom quantities on grid     :        0.016 s           0.016 s
  | Free-atom superposition energy              :        0.005 s           0.005 s
  | Total energy evaluation                     :        0.000 s           0.000 s

  Partial memory accounting:
  | Current value for overall tracked memory usage:
  |   Minimum:        0.273 MB (on task 23)
  |   Maximum:        0.292 MB (on task  0)
  |   Average:        0.287 MB
  | Peak value for overall tracked memory usage:
  |   Minimum:        1.280 MB (on task 23 after allocating wave)
  |   Maximum:        1.389 MB (on task 17 after allocating wave)
  |   Average:        1.347 MB
  | Largest tracked array allocation so far:
  |   Minimum:        0.233 MB (H_times_psi on task 23)
  |   Maximum:        0.430 MB (all_coords on task 10)
  |   Average:        0.265 MB
  Note:  These values currently only include a subset of arrays which are explicitly tracked.
  The "true" memory usage will be greater.
------------------------------------------------------------
  Evaluating new KS density.
  Integration grid: deviation in total charge (<rho> - N_e) =   2.842171E-14

  Time for density update prior                :  max(cpu_time)    wall_clock(cpu1)
  | self-consistency iterative process          :        0.027 s           0.027 s

------------------------------------------------------------
          Begin self-consistency iteration #    1

  Date     :  20220517, Time     :  105455.226
------------------------------------------------------------
  Pulay mixing of updated and previous charge densities.
  Renormalizing the density to the exact electron count on the 3D integration grid.
  | Formal number of electrons (from input files) :     120.0000000000
  | Integrated number of electrons on 3D grid     :     120.0000000000
  | Charge integration error                      :       0.0000000000
  | Normalization factor for density and gradient :       1.0000000000

  Evaluating partitioned Hartree potential by multipole expansion.
  | Original multipole sum: apparent total charge =   0.452352E-13
  | Sum of charges compensated after spline to logarithmic grids =   0.105943E-03
  | Analytical far-field extrapolation by fixed multipoles:
  | Hartree multipole sum: apparent total charge =   0.450385E-13
  Summing up the Hartree potential.
  Time summed over all CPUs for potential: real work        0.382 s, elapsed        0.399 s
  | RMS charge density error from multipole expansion :   0.106621E-01

  Integrating Hamiltonian matrix: batch-based integration.
  Time summed over all CPUs for integration: real work        0.639 s, elapsed        0.675 s

  Updating Kohn-Sham eigenvalues and eigenvectors using ELSI and the ELPA eigensolver.
  Starting ELPA eigensolver
  Finished transformation to standard eigenproblem
  | Time :     0.005 s
  Finished solving standard eigenproblem
  | Time :     0.017 s
  Finished back-transformation of eigenvectors
  | Time :     0.000 s

  Obtaining occupation numbers and chemical potential using ELSI.
  | Chemical potential (Fermi level):    -7.72665766 eV
  Writing Kohn-Sham eigenvalues.

  State    Occupation    Eigenvalue [Ha]    Eigenvalue [eV]
      1       2.00000         -55.657050        -1514.50538
      2       2.00000         -55.642528        -1514.11024
      3       2.00000         -55.642525        -1514.11013
      4       2.00000         -24.230080         -659.33403
      5       2.00000         -24.230074         -659.33387
      6       2.00000         -24.225832         -659.21844
      7       2.00000         -24.225829         -659.21836
      8       2.00000         -24.073917         -655.08460
      9       2.00000         -24.073916         -655.08459
     10       2.00000         -24.071113         -655.00831
     11       2.00000         -24.071112         -655.00828
     12       2.00000         -24.069178         -654.95566
     13       2.00000          -4.096543         -111.47261
     14       2.00000          -4.081682         -111.06821
     15       2.00000          -4.081679         -111.06812
     16       2.00000          -2.690817          -73.22087
     17       2.00000          -2.688587          -73.16018
     18       2.00000          -2.688220          -73.15020
     19       2.00000          -2.675277          -72.79800
     20       2.00000          -2.675272          -72.79787
     21       2.00000          -2.674866          -72.78681
     22       2.00000          -2.674861          -72.78668
     23       2.00000          -2.672830          -72.73141
     24       2.00000          -2.672829          -72.73137
     25       2.00000          -1.161141          -31.59627
     26       2.00000          -1.149841          -31.28877
     27       2.00000          -1.143788          -31.12406
     28       2.00000          -1.134913          -30.88256
     29       2.00000          -1.020841          -27.77849
     30       2.00000          -1.020802          -27.77744
     31       2.00000          -1.016519          -27.66090
     32       2.00000          -1.015686          -27.63821
     33       2.00000          -1.015667          -27.63770
     34       2.00000          -0.544784          -14.82432
     35       2.00000          -0.532277          -14.48401
     36       2.00000          -0.520420          -14.16135
     37       2.00000          -0.512146          -13.93619
     38       2.00000          -0.485277          -13.20505
     39       2.00000          -0.471304          -12.82484
     40       2.00000          -0.465398          -12.66411
     41       2.00000          -0.447836          -12.18624
     42       2.00000          -0.446079          -12.13844
     43       2.00000          -0.442341          -12.03672
     44       2.00000          -0.439654          -11.96358
     45       2.00000          -0.426531          -11.60649
     46       2.00000          -0.399172          -10.86202
     47       2.00000          -0.393862          -10.71752
     48       2.00000          -0.375872          -10.22798
     49       2.00000          -0.366682           -9.97794
     50       2.00000          -0.366667           -9.97752
     51       2.00000          -0.335119           -9.11905
     52       2.00000          -0.334720           -9.10818
     53       2.00000          -0.333717           -9.08091
     54       2.00000          -0.332129           -9.03768
     55       2.00000          -0.325885           -8.86778
     56       2.00000          -0.324004           -8.81660
     57       2.00000          -0.323432           -8.80104
     58       2.00000          -0.322926           -8.78726
     59       2.00000          -0.320325           -8.71649
     60       2.00000          -0.319889           -8.70463
     61       0.00000          -0.147134           -4.00371
     62       0.00000          -0.105750           -2.87759
     63       0.00000          -0.069714           -1.89702
     64       0.00000          -0.040568           -1.10391
     65       0.00000          -0.034455           -0.93756
     66       0.00000          -0.015923           -0.43329
     67       0.00000          -0.015287           -0.41599
     68       0.00000           0.024743            0.67329
     69       0.00000           0.032567            0.88619
     70       0.00000           0.061072            1.66185
     71       0.00000           0.062706            1.70632
     72       0.00000           0.106755            2.90495
     73       0.00000           0.136019            3.70126
     74       0.00000           0.144367            3.92843
     75       0.00000           0.168316            4.58012
     76       0.00000           0.172067            4.68218
     77       0.00000           0.175132            4.76558
     78       0.00000           0.180874            4.92184
     79       0.00000           0.195117            5.30941
     80       0.00000           0.195525            5.32051
     81       0.00000           0.201909            5.49422
     82       0.00000           0.211400            5.75249
     83       0.00000           0.217906            5.92951
     84       0.00000           0.226591            6.16585
     85       0.00000           0.239988            6.53040
     86       0.00000           0.248627            6.76550
     87       0.00000           0.253041            6.88561
     88       0.00000           0.255018            6.93941
     89       0.00000           0.264430            7.19552
     90       0.00000           0.272692            7.42033
     91       0.00000           0.296016            8.05500
     92       0.00000           0.306586            8.34262
     93       0.00000           0.322253            8.76896
     94       0.00000           0.359291            9.77682
     95       0.00000           0.367568           10.00204
     96       0.00000           0.372649           10.14028

  Highest occupied state (VBM) at     -8.70463310 eV
  | Occupation number:      2.00000000

  Lowest unoccupied state (CBM) at    -4.00371073 eV
  | Occupation number:      0.00000000

  Overall HOMO-LUMO gap:      4.70092237 eV.

  Total energy components:
  | Sum of eigenvalues            :        -882.34853191 Ha      -24009.92516489 eV
  | XC energy correction          :        -145.65384956 Ha       -3963.44290432 eV
  | XC potential correction       :         189.66539707 Ha        5161.05804606 eV
  | Free-atom electrostatic energy:        -781.39546388 Ha      -21262.85241413 eV
  | Hartree energy correction     :          -5.42234166 Ha        -147.54942391 eV
  | Entropy correction            :           0.00000000 Ha           0.00000000 eV
  | ---------------------------
  | Total energy                  :       -1625.15478994 Ha      -44222.71186119 eV
  | Total energy, T -> 0          :       -1625.15478994 Ha      -44222.71186119 eV  <-- do not rely on this value for anything but (periodic) metals
  | Electronic free energy        :       -1625.15478994 Ha      -44222.71186119 eV

  Derived energy quantities:
  | Kinetic energy                :        1633.90493814 Ha       44460.81550809 eV
  | Electrostatic energy          :       -3113.40587852 Ha      -84720.08446496 eV
  | Energy correction for multipole
  | error in Hartree potential    :           0.04129506 Ha           1.12369579 eV
  | Sum of eigenvalues per atom                           :       -2000.82709707 eV
  | Total energy (T->0) per atom                          :       -3685.22598843 eV  <-- do not rely on this value for anything but (periodic) metals
  | Electronic free energy per atom                       :       -3685.22598843 eV
  Evaluating new KS density.
  Integration grid: deviation in total charge (<rho> - N_e) =   2.842171E-14

  Self-consistency convergence accuracy:
  | Change of charge density      :  0.5958E+00
  | Change of sum of eigenvalues  :  0.1419E+03 eV
  | Change of total energy        :  0.5642E+01 eV


------------------------------------------------------------
  End self-consistency iteration #     1       :  max(cpu_time)    wall_clock(cpu1)
  | Time for this iteration                     :        0.114 s           0.115 s
  | Charge density update                       :        0.027 s           0.027 s
  | Density mixing                              :        0.001 s           0.003 s
  | Hartree multipole update                    :        0.008 s           0.008 s
  | Hartree multipole summation                 :        0.019 s           0.020 s
  | Integration                                 :        0.032 s           0.033 s
  | Solution of K.-S. eqns.                     :        0.023 s           0.023 s
  | Total energy evaluation                     :        0.000 s           0.001 s

  Partial memory accounting:
  | Current value for overall tracked memory usage:
  |   Minimum:        0.273 MB (on task 23)
  |   Maximum:        0.292 MB (on task  0)
  |   Average:        0.287 MB
  | Peak value for overall tracked memory usage:
  |   Minimum:        1.280 MB (on task 23 after allocating wave)
  |   Maximum:        1.389 MB (on task 17 after allocating wave)
  |   Average:        1.347 MB
  | Largest tracked array allocation so far:
  |   Minimum:        0.698 MB (gradient_basis_wave on task 23)
  |   Maximum:        0.757 MB (gradient_basis_wave on task 17)
  |   Average:        0.732 MB
  Note:  These values currently only include a subset of arrays which are explicitly tracked.
  The "true" memory usage will be greater.
------------------------------------------------------------

------------------------------------------------------------
          Begin self-consistency iteration #    2

  Date     :  20220517, Time     :  105455.350
------------------------------------------------------------
  Pulay mixing of updated and previous charge densities.
  Renormalizing the density to the exact electron count on the 3D integration grid.
  | Formal number of electrons (from input files) :     120.0000000000
  | Integrated number of electrons on 3D grid     :     120.0000000000
  | Charge integration error                      :      -0.0000000000
  | Normalization factor for density and gradient :       1.0000000000

  Evaluating partitioned Hartree potential by multipole expansion.
  | Original multipole sum: apparent total charge =  -0.233433E-13
  | Sum of charges compensated after spline to logarithmic grids =   0.687712E-04
  | Analytical far-field extrapolation by fixed multipoles:
  | Hartree multipole sum: apparent total charge =  -0.238106E-13
  Summing up the Hartree potential.
  Time summed over all CPUs for potential: real work        0.381 s, elapsed        0.397 s
  | RMS charge density error from multipole expansion :   0.125106E-01

  Integrating Hamiltonian matrix: batch-based integration.
  Time summed over all CPUs for integration: real work        0.642 s, elapsed        0.691 s

  Updating Kohn-Sham eigenvalues and eigenvectors using ELSI and the ELPA eigensolver.
  Starting ELPA eigensolver
  Finished transformation to standard eigenproblem
  | Time :     0.003 s
  Finished solving standard eigenproblem
  | Time :     0.020 s
  Finished back-transformation of eigenvectors
  | Time :     0.002 s

  Obtaining occupation numbers and chemical potential using ELSI.
  | Chemical potential (Fermi level):    -7.79289800 eV
  Highest occupied state (VBM) at     -9.89550504 eV
  | Occupation number:      2.00000000

  Lowest unoccupied state (CBM) at    -4.21076688 eV
  | Occupation number:      0.00000000

  Overall HOMO-LUMO gap:      5.68473816 eV.

  Checking to see if s.c.f. parameters should be adjusted.

  Total energy components:
  | Sum of eigenvalues            :        -885.46272998 Ha      -24094.66680592 eV
  | XC energy correction          :        -145.16183117 Ha       -3950.05440274 eV
  | XC potential correction       :         189.01804424 Ha        5143.44267929 eV
  | Free-atom electrostatic energy:        -781.39546388 Ha      -21262.85241413 eV
  | Hartree energy correction     :          -2.08898773 Ha         -56.84424845 eV
  | Entropy correction            :           0.00000000 Ha           0.00000000 eV
  | ---------------------------
  | Total energy                  :       -1625.09096852 Ha      -44220.97519194 eV
  | Total energy, T -> 0          :       -1625.09096852 Ha      -44220.97519194 eV  <-- do not rely on this value for anything but (periodic) metals
  | Electronic free energy        :       -1625.09096852 Ha      -44220.97519194 eV

  Derived energy quantities:
  | Kinetic energy                :        1630.04044553 Ha       44355.65731385 eV
  | Electrostatic energy          :       -3109.96958288 Ha      -84626.57810305 eV
  | Energy correction for multipole
  | error in Hartree potential    :           0.04541146 Ha           1.23570864 eV
  | Sum of eigenvalues per atom                           :       -2007.88890049 eV
  | Total energy (T->0) per atom                          :       -3685.08126600 eV  <-- do not rely on this value for anything but (periodic) metals
  | Electronic free energy per atom                       :       -3685.08126600 eV
  Evaluating new KS density.
  Integration grid: deviation in total charge (<rho> - N_e) =   4.263256E-14

  Self-consistency convergence accuracy:
  | Change of charge density      :  0.4743E+00
  | Change of sum of eigenvalues  : -0.8474E+02 eV
  | Change of total energy        :  0.1737E+01 eV


------------------------------------------------------------
  End self-consistency iteration #     2       :  max(cpu_time)    wall_clock(cpu1)
  | Time for this iteration                     :        0.118 s           0.114 s
  | Charge density update                       :        0.026 s           0.026 s
  | Density mixing                              :        0.008 s           0.006 s
  | Hartree multipole update                    :        0.008 s           0.007 s
  | Hartree multipole summation                 :        0.018 s           0.019 s
  | Integration                                 :        0.031 s           0.031 s
  | Solution of K.-S. eqns.                     :        0.025 s           0.025 s
  | Total energy evaluation                     :        0.000 s           0.000 s

  Partial memory accounting:
  | Current value for overall tracked memory usage:
  |   Minimum:        0.274 MB (on task 23)
  |   Maximum:        0.293 MB (on task  0)
  |   Average:        0.288 MB
  | Peak value for overall tracked memory usage:
  |   Minimum:        1.280 MB (on task 23 after allocating wave)
  |   Maximum:        1.389 MB (on task 17 after allocating wave)
  |   Average:        1.347 MB
  | Largest tracked array allocation so far:
  |   Minimum:        0.698 MB (gradient_basis_wave on task 23)
  |   Maximum:        0.757 MB (gradient_basis_wave on task 17)
  |   Average:        0.732 MB
  Note:  These values currently only include a subset of arrays which are explicitly tracked.
  The "true" memory usage will be greater.
------------------------------------------------------------

------------------------------------------------------------
          Begin self-consistency iteration #    3

  Date     :  20220517, Time     :  105455.469
------------------------------------------------------------
  Pulay mixing of updated and previous charge densities.
  Renormalizing the density to the exact electron count on the 3D integration grid.
  | Formal number of electrons (from input files) :     120.0000000000
  | Integrated number of electrons on 3D grid     :     120.0000000000
  | Charge integration error                      :      -0.0000000000
  | Normalization factor for density and gradient :       1.0000000000

  Evaluating partitioned Hartree potential by multipole expansion.
  | Original multipole sum: apparent total charge =  -0.117922E-12
  | Sum of charges compensated after spline to logarithmic grids =   0.894943E-04
  | Analytical far-field extrapolation by fixed multipoles:
  | Hartree multipole sum: apparent total charge =  -0.116151E-12
  Summing up the Hartree potential.
  Time summed over all CPUs for potential: real work        0.380 s, elapsed        0.396 s
  | RMS charge density error from multipole expansion :   0.173281E-01

  Integrating Hamiltonian matrix: batch-based integration.
  Time summed over all CPUs for integration: real work        0.637 s, elapsed        0.671 s

  Updating Kohn-Sham eigenvalues and eigenvectors using ELSI and the ELPA eigensolver.
  Starting ELPA eigensolver
  Finished transformation to standard eigenproblem
  | Time :     0.000 s
  Finished solving standard eigenproblem
  | Time :     0.003 s
  Finished back-transformation of eigenvectors
  | Time :     0.000 s

  Obtaining occupation numbers and chemical potential using ELSI.
  | Chemical potential (Fermi level):    -7.96699996 eV
  Highest occupied state (VBM) at     -9.60817365 eV
  | Occupation number:      2.00000000

  Lowest unoccupied state (CBM) at    -4.42237570 eV
  | Occupation number:      0.00000000

  Overall HOMO-LUMO gap:      5.18579794 eV.

  Total energy components:
  | Sum of eigenvalues            :        -886.46103301 Ha      -24121.83201353 eV
  | XC energy correction          :        -145.12668268 Ha       -3949.09796367 eV
  | XC potential correction       :         188.97052361 Ha        5142.14957714 eV
  | Free-atom electrostatic energy:        -781.39546388 Ha      -21262.85241413 eV
  | Hartree energy correction     :          -1.07774330 Ha         -29.32688741 eV
  | Entropy correction            :           0.00000000 Ha           0.00000000 eV
  | ---------------------------
  | Total energy                  :       -1625.09039926 Ha      -44220.95970159 eV
  | Total energy, T -> 0          :       -1625.09039926 Ha      -44220.95970159 eV  <-- do not rely on this value for anything but (periodic) metals
  | Electronic free energy        :       -1625.09039926 Ha      -44220.95970159 eV

  Derived energy quantities:
  | Kinetic energy                :        1628.29952411 Ha       44308.28443181 eV
  | Electrostatic energy          :       -3108.26324069 Ha      -84580.14616974 eV
  | Energy correction for multipole
  | error in Hartree potential    :           0.06139084 Ha           1.67052981 eV
  | Sum of eigenvalues per atom                           :       -2010.15266779 eV
  | Total energy (T->0) per atom                          :       -3685.07997513 eV  <-- do not rely on this value for anything but (periodic) metals
  | Electronic free energy per atom                       :       -3685.07997513 eV
  Evaluating new KS density.
  Integration grid: deviation in total charge (<rho> - N_e) =  -1.421085E-14

  Self-consistency convergence accuracy:
  | Change of charge density      :  0.1236E+00
  | Change of sum of eigenvalues  : -0.2717E+02 eV
  | Change of total energy        :  0.1549E-01 eV


------------------------------------------------------------
  End self-consistency iteration #     3       :  max(cpu_time)    wall_clock(cpu1)
  | Time for this iteration                     :        0.080 s           0.079 s
  | Charge density update                       :        0.026 s           0.026 s
  | Density mixing                              :        0.004 s           0.002 s
  | Hartree multipole update                    :        0.001 s           0.001 s
  | Hartree multipole summation                 :        0.017 s           0.017 s
  | Integration                                 :        0.028 s           0.028 s
  | Solution of K.-S. eqns.                     :        0.004 s           0.004 s
  | Total energy evaluation                     :        0.000 s           0.000 s

  Partial memory accounting:
  | Current value for overall tracked memory usage:
  |   Minimum:        0.274 MB (on task 23)
  |   Maximum:        0.293 MB (on task  0)
  |   Average:        0.288 MB
  | Peak value for overall tracked memory usage:
  |   Minimum:        1.280 MB (on task 23 after allocating wave)
  |   Maximum:        1.389 MB (on task 17 after allocating wave)
  |   Average:        1.347 MB
  | Largest tracked array allocation so far:
  |   Minimum:        0.698 MB (gradient_basis_wave on task 23)
  |   Maximum:        0.757 MB (gradient_basis_wave on task 17)
  |   Average:        0.732 MB
  Note:  These values currently only include a subset of arrays which are explicitly tracked.
  The "true" memory usage will be greater.
------------------------------------------------------------

------------------------------------------------------------
          Begin self-consistency iteration #    4

  Date     :  20220517, Time     :  105455.554
------------------------------------------------------------
  Pulay mixing of updated and previous charge densities.
  Renormalizing the density to the exact electron count on the 3D integration grid.
  | Formal number of electrons (from input files) :     120.0000000000
  | Integrated number of electrons on 3D grid     :     120.0000000000
  | Charge integration error                      :       0.0000000000
  | Normalization factor for density and gradient :       1.0000000000

  Evaluating partitioned Hartree potential by multipole expansion.
  | Original multipole sum: apparent total charge =   0.262704E-13
  | Sum of charges compensated after spline to logarithmic grids =   0.968142E-04
  | Analytical far-field extrapolation by fixed multipoles:
  | Hartree multipole sum: apparent total charge =   0.253357E-13
  Summing up the Hartree potential.
  Time summed over all CPUs for potential: real work        0.380 s, elapsed        0.396 s
  | RMS charge density error from multipole expansion :   0.192253E-01

  Integrating Hamiltonian matrix: batch-based integration.
  Time summed over all CPUs for integration: real work        0.638 s, elapsed        0.671 s

  Updating Kohn-Sham eigenvalues and eigenvectors using ELSI and the ELPA eigensolver.
  Starting ELPA eigensolver
  Finished transformation to standard eigenproblem
  | Time :     0.000 s
  Finished solving standard eigenproblem
  | Time :     0.003 s
  Finished back-transformation of eigenvectors
  | Time :     0.000 s

  Obtaining occupation numbers and chemical potential using ELSI.
  | Chemical potential (Fermi level):    -7.93195868 eV
  Highest occupied state (VBM) at     -9.73559015 eV
  | Occupation number:      2.00000000

  Lowest unoccupied state (CBM) at    -4.37125307 eV
  | Occupation number:      0.00000000

  Overall HOMO-LUMO gap:      5.36433709 eV.

  Total energy components:
  | Sum of eigenvalues            :        -886.57686627 Ha      -24124.98399690 eV
  | XC energy correction          :        -145.11208726 Ha       -3948.70080200 eV
  | XC potential correction       :         188.95070467 Ha        5141.61027629 eV
  | Free-atom electrostatic energy:        -781.39546388 Ha      -21262.85241413 eV
  | Hartree energy correction     :          -0.95466725 Ha         -25.97781749 eV
  | Entropy correction            :           0.00000000 Ha           0.00000000 eV
  | ---------------------------
  | Total energy                  :       -1625.08837998 Ha      -44220.90475424 eV
  | Total energy, T -> 0          :       -1625.08837998 Ha      -44220.90475424 eV  <-- do not rely on this value for anything but (periodic) metals
  | Electronic free energy        :       -1625.08837998 Ha      -44220.90475424 eV

  Derived energy quantities:
  | Kinetic energy                :        1627.68963462 Ha       44291.68849425 eV
  | Electrostatic energy          :       -3107.66592734 Ha      -84563.89244649 eV
  | Energy correction for multipole
  | error in Hartree potential    :           0.06720720 Ha           1.82880105 eV
  | Sum of eigenvalues per atom                           :       -2010.41533308 eV
  | Total energy (T->0) per atom                          :       -3685.07539619 eV  <-- do not rely on this value for anything but (periodic) metals
  | Electronic free energy per atom                       :       -3685.07539619 eV
  Evaluating new KS density.
  Integration grid: deviation in total charge (<rho> - N_e) =   4.263256E-14

  Self-consistency convergence accuracy:
  | Change of charge density      :  0.7987E-01
  | Change of sum of eigenvalues  : -0.3152E+01 eV
  | Change of total energy        :  0.5495E-01 eV


------------------------------------------------------------
  End self-consistency iteration #     4       :  max(cpu_time)    wall_clock(cpu1)
  | Time for this iteration                     :        0.080 s           0.078 s
  | Charge density update                       :        0.026 s           0.026 s
  | Density mixing                              :        0.004 s           0.001 s
  | Hartree multipole update                    :        0.001 s           0.002 s
  | Hartree multipole summation                 :        0.017 s           0.016 s
  | Integration                                 :        0.028 s           0.029 s
  | Solution of K.-S. eqns.                     :        0.004 s           0.004 s
  | Total energy evaluation                     :        0.000 s           0.000 s

  Partial memory accounting:
  | Current value for overall tracked memory usage:
  |   Minimum:        0.274 MB (on task 23)
  |   Maximum:        0.293 MB (on task  0)
  |   Average:        0.288 MB
  | Peak value for overall tracked memory usage:
  |   Minimum:        1.280 MB (on task 23 after allocating wave)
  |   Maximum:        1.389 MB (on task 17 after allocating wave)
  |   Average:        1.347 MB
  | Largest tracked array allocation so far:
  |   Minimum:        0.698 MB (gradient_basis_wave on task 23)
  |   Maximum:        0.757 MB (gradient_basis_wave on task 17)
  |   Average:        0.732 MB
  Note:  These values currently only include a subset of arrays which are explicitly tracked.
  The "true" memory usage will be greater.
------------------------------------------------------------

------------------------------------------------------------
          Begin self-consistency iteration #    5

  Date     :  20220517, Time     :  105455.638
------------------------------------------------------------
  Pulay mixing of updated and previous charge densities.
  Renormalizing the density to the exact electron count on the 3D integration grid.
  | Formal number of electrons (from input files) :     120.0000000000
  | Integrated number of electrons on 3D grid     :     120.0000000000
  | Charge integration error                      :       0.0000000000
  | Normalization factor for density and gradient :       1.0000000000

  Evaluating partitioned Hartree potential by multipole expansion.
  | Original multipole sum: apparent total charge =   0.246961E-13
  | Sum of charges compensated after spline to logarithmic grids =   0.972452E-04
  | Analytical far-field extrapolation by fixed multipoles:
  | Hartree multipole sum: apparent total charge =   0.244010E-13
  Summing up the Hartree potential.
  Time summed over all CPUs for potential: real work        0.380 s, elapsed        0.396 s
  | RMS charge density error from multipole expansion :   0.190053E-01

  Integrating Hamiltonian matrix: batch-based integration.
  Time summed over all CPUs for integration: real work        0.637 s, elapsed        0.671 s

  Updating Kohn-Sham eigenvalues and eigenvectors using ELSI and the ELPA eigensolver.
  Starting ELPA eigensolver
  Finished transformation to standard eigenproblem
  | Time :     0.000 s
  Finished solving standard eigenproblem
  | Time :     0.003 s
  Finished back-transformation of eigenvectors
  | Time :     0.001 s

  Obtaining occupation numbers and chemical potential using ELSI.
  | Chemical potential (Fermi level):    -7.88525594 eV
  Highest occupied state (VBM) at     -9.78397662 eV
  | Occupation number:      2.00000000

  Lowest unoccupied state (CBM) at    -4.31481046 eV
  | Occupation number:      0.00000000

  Overall HOMO-LUMO gap:      5.46916617 eV.

  Total energy components:
  | Sum of eigenvalues            :        -886.38603084 Ha      -24119.79110064 eV
  | XC energy correction          :        -145.10764209 Ha       -3948.57984290 eV
  | XC potential correction       :         188.94505300 Ha        5141.45648656 eV
  | Free-atom electrostatic energy:        -781.39546388 Ha      -21262.85241413 eV
  | Hartree energy correction     :          -1.14416448 Ha         -31.13429948 eV
  | Entropy correction            :           0.00000000 Ha           0.00000000 eV
[...]
   Total forces(   7)            :  0.146888E+01 -0.153285E+01 -0.966870E+00
  atom #    8
   Hellmann-Feynman              :  0.239976E+01  0.225568E+01 -0.434627E+00
   Ionic forces                  :  0.000000E+00  0.000000E+00  0.000000E+00
   Multipole                     :  0.405762E+00  0.381433E+00 -0.732996E-01
   Hartree pot. SCF incomplete   : -0.266172E-06 -0.252924E-06  0.439462E-07
   Pulay + GGA                   : -0.519256E+01 -0.487817E+01  0.939866E+00
   ----------------------------------------------------------------
   Total forces(   8)            : -0.238703E+01 -0.224106E+01  0.431940E+00
  atom #    9
   Hellmann-Feynman              :  0.678224E+00 -0.957025E+00  0.330205E-01
   Ionic forces                  :  0.000000E+00  0.000000E+00  0.000000E+00
   Multipole                     :  0.405150E+00 -0.246086E+00 -0.210389E+00
   Hartree pot. SCF incomplete   :  0.236844E-06 -0.161510E-06 -0.208225E-05
   Pulay + GGA                   : -0.271535E+01  0.270494E+01  0.770226E+00
   ----------------------------------------------------------------
   Total forces(   9)            : -0.163198E+01  0.150183E+01  0.592855E+00
  atom #   10
   Hellmann-Feynman              : -0.914767E+00  0.734141E+00  0.882362E-02
   Ionic forces                  :  0.000000E+00  0.000000E+00  0.000000E+00
   Multipole                     : -0.183769E+00  0.453924E+00  0.170200E+00
   Hartree pot. SCF incomplete   :  0.243619E-06  0.608266E-06  0.199791E-05
   Pulay + GGA                   :  0.238793E+01 -0.301106E+01 -0.712918E+00
   ----------------------------------------------------------------
   Total forces(  10)            :  0.128939E+01 -0.182299E+01 -0.533893E+00
  atom #   11
   Hellmann-Feynman              :  0.233988E+01  0.760652E+00  0.181844E+01
   Ionic forces                  :  0.000000E+00  0.000000E+00  0.000000E+00
   Multipole                     :  0.607772E+00  0.223898E+00  0.397834E+00
   Hartree pot. SCF incomplete   :  0.555033E-06  0.570453E-06 -0.366756E-06
   Pulay + GGA                   : -0.544174E+01 -0.172097E+01 -0.430503E+01
   ----------------------------------------------------------------
   Total forces(  11)            : -0.249408E+01 -0.736424E+00 -0.208876E+01
  atom #   12
   Hellmann-Feynman              : -0.235903E+01 -0.193083E+01  0.531089E+00
   Ionic forces                  :  0.000000E+00  0.000000E+00  0.000000E+00
   Multipole                     : -0.558014E+00 -0.442332E+00  0.788705E-01
   Hartree pot. SCF incomplete   : -0.420248E-06 -0.248175E-06 -0.127855E-07
   Pulay + GGA                   :  0.529856E+01  0.445324E+01 -0.142152E+01
   ----------------------------------------------------------------
   Total forces(  12)            :  0.238152E+01  0.208007E+01 -0.811561E+00


  Self-consistency convergence accuracy:
  | Change of charge density      :  0.1007E-06
  | Change of sum of eigenvalues  : -0.3365E-05 eV
  | Change of total energy        : -0.1918E-08 eV
  | Change of forces              :  0.3147E-06 eV/A

  Writing Kohn-Sham eigenvalues.

  State    Occupation    Eigenvalue [Ha]    Eigenvalue [eV]
      1       2.00000         -55.642809        -1514.11788
      2       2.00000         -55.622294        -1513.55963
      3       2.00000         -55.622285        -1513.55938
      4       2.00000         -24.307301         -661.43532
      5       2.00000         -24.307297         -661.43521
      6       2.00000         -24.303429         -661.32995
      7       2.00000         -24.303426         -661.32986
      8       2.00000         -24.212965         -658.86830
      9       2.00000         -24.212957         -658.86808
     10       2.00000         -24.211322         -658.82359
     11       2.00000         -24.211320         -658.82353
     12       2.00000         -24.208352         -658.74278
     13       2.00000          -4.095078         -111.43274
     14       2.00000          -4.075341         -110.89567
     15       2.00000          -4.075334         -110.89548
     16       2.00000          -2.688114          -73.14732
     17       2.00000          -2.686280          -73.09740
     18       2.00000          -2.685476          -73.07552
     19       2.00000          -2.669098          -72.62984
     20       2.00000          -2.669089          -72.62960
     21       2.00000          -2.667622          -72.58970
     22       2.00000          -2.667614          -72.58946
     23       2.00000          -2.663930          -72.48923
     24       2.00000          -2.663925          -72.48909
     25       2.00000          -1.184341          -32.22755
     26       2.00000          -1.173684          -31.93758
     27       2.00000          -1.167913          -31.78053
     28       2.00000          -1.159531          -31.55245
     29       2.00000          -1.061122          -28.87461
     30       2.00000          -1.061089          -28.87369
     31       2.00000          -1.057121          -28.76574
     32       2.00000          -1.057103          -28.76524
     33       2.00000          -1.055754          -28.72853
     34       2.00000          -0.564885          -15.37130
     35       2.00000          -0.552390          -15.03130
     36       2.00000          -0.541280          -14.72899
     37       2.00000          -0.534642          -14.54835
     38       2.00000          -0.508121          -13.82667
     39       2.00000          -0.493322          -13.42397
     40       2.00000          -0.487824          -13.27437
     41       2.00000          -0.473174          -12.87571
     42       2.00000          -0.469102          -12.76491
     43       2.00000          -0.466294          -12.68850
     44       2.00000          -0.464593          -12.64222
     45       2.00000          -0.450104          -12.24796
     46       2.00000          -0.432709          -11.77462
     47       2.00000          -0.428218          -11.65242
     48       2.00000          -0.412465          -11.22373
     49       2.00000          -0.406285          -11.05559
     50       2.00000          -0.405996          -11.04771
     51       2.00000          -0.370970          -10.09461
     52       2.00000          -0.370662          -10.08622
     53       2.00000          -0.369586          -10.05694
     54       2.00000          -0.368510          -10.02766
     55       2.00000          -0.362532           -9.86498
     56       2.00000          -0.362208           -9.85619
     57       2.00000          -0.361986           -9.85014
     58       2.00000          -0.359492           -9.78227
     59       2.00000          -0.359133           -9.77251
     60       2.00000          -0.358794           -9.76328
     61       0.00000          -0.158653           -4.31718
     62       0.00000          -0.117657           -3.20161
     63       0.00000          -0.079685           -2.16834
     64       0.00000          -0.046254           -1.25862
     65       0.00000          -0.038006           -1.03419
     66       0.00000          -0.020872           -0.56796
     67       0.00000          -0.019051           -0.51840
     68       0.00000           0.019203            0.52254
     69       0.00000           0.027598            0.75097
     70       0.00000           0.056786            1.54523
     71       0.00000           0.056922            1.54892
     72       0.00000           0.101959            2.77445
     73       0.00000           0.129027            3.51101
     74       0.00000           0.142754            3.88452
     75       0.00000           0.162599            4.42455
     76       0.00000           0.166879            4.54101
     77       0.00000           0.167045            4.54553
     78       0.00000           0.175771            4.78298
     79       0.00000           0.187098            5.09120
     80       0.00000           0.189479            5.15600
     81       0.00000           0.196795            5.35507
     82       0.00000           0.206954            5.63152
     83       0.00000           0.212889            5.79301
     84       0.00000           0.219151            5.96341
     85       0.00000           0.234394            6.37819
     86       0.00000           0.244799            6.66131
     87       0.00000           0.249286            6.78342
     88       0.00000           0.249529            6.79004
     89       0.00000           0.258604            7.03698
     90       0.00000           0.269743            7.34008
     91       0.00000           0.289669            7.88231
     92       0.00000           0.302052            8.21925
     93       0.00000           0.318475            8.66614
     94       0.00000           0.350609            9.54057
     95       0.00000           0.360331            9.80510
     96       0.00000           0.366481            9.97247

  Highest occupied state (VBM) at     -9.76328346 eV
  | Occupation number:      2.00000000

  Lowest unoccupied state (CBM) at    -4.31717761 eV
  | Occupation number:      0.00000000

  Overall HOMO-LUMO gap:      5.44610585 eV.
  | Chemical Potential                          :    -7.88796863 eV

  Self-consistency cycle converged.


------------------------------------------------------------
  End self-consistency iteration #    14       :  max(cpu_time)    wall_clock(cpu1)
  | Time for this iteration                     :        0.261 s           0.259 s
  | Charge density & force component update     :        0.138 s           0.139 s
  | Density mixing                              :        0.005 s           0.003 s
  | Hartree multipole update                    :        0.001 s           0.001 s
  | Hartree multipole summation                 :        0.051 s           0.051 s
  | Hartree pot. SCF incomplete forces          :        0.033 s           0.032 s
  | Integration                                 :        0.028 s           0.028 s
  | Solution of K.-S. eqns.                     :        0.004 s           0.004 s
  | Total energy evaluation                     :        0.000 s           0.000 s

  Partial memory accounting:
  | Current value for overall tracked memory usage:
  |   Minimum:        0.274 MB (on task 23)
  |   Maximum:        0.293 MB (on task  0)
  |   Average:        0.289 MB
  | Peak value for overall tracked memory usage:
  |   Minimum:        2.872 MB (on task 23 after allocating hessian_basis_wave)
  |   Maximum:        3.088 MB (on task 17 after allocating hessian_basis_wave)
  |   Average:        3.002 MB
  | Largest tracked array allocation so far:
  |   Minimum:        1.396 MB (hessian_basis_wave on task 23)
  |   Maximum:        1.514 MB (hessian_basis_wave on task 17)
  |   Average:        1.465 MB
  Note:  These values currently only include a subset of arrays which are explicitly tracked.
  The "true" memory usage will be greater.
------------------------------------------------------------
  Removing unitary transformations (pure translations, rotations) from forces on atoms.
  Atomic forces before filtering:
  | Net force on center of mass :  -0.319173E-02  0.141834E-02 -0.897903E-03 eV/A
  | Net torque on center of mass:  -0.681627E-02  0.482771E-02  0.600842E-02 eV
  Atomic forces after filtering:
  | Net force on center of mass :   0.713624E-15 -0.107044E-14  0.178406E-15 eV/A
  | Net torque on center of mass:   0.000000E+00 -0.207699E-14 -0.755268E-15 eV

  Energy and forces in a compact form:
  | Total energy uncorrected      :         -0.442209009846706E+05 eV
  | Total energy corrected        :         -0.442209009846706E+05 eV  <-- do not rely on this value for anything but (periodic) metals
  | Electronic free energy        :         -0.442209009846706E+05 eV
  Total atomic forces (unitary forces cleaned) [eV/Ang]:
  |    1          0.108233118384162E+00         -0.105369090036829E+01          0.234927187233037E+01
  |    2          0.212868723235756E+01          0.200145313899677E+01         -0.385263605512085E+00
  |    3         -0.147147441133355E+01         -0.228378179295670E+00         -0.210123760316703E+01
  |    4          0.229834930139709E+01          0.231700436666662E+01         -0.349104152490280E-01
  |    5         -0.125496374708465E+01          0.173437270082383E+01          0.929048999535846E+00
  |    6         -0.437062615169898E+00         -0.201801677738626E+01          0.261877528186762E+01
  |    7          0.146934318624922E+01         -0.153275420546836E+01         -0.966777937597515E+00
  |    8         -0.238650463350967E+01         -0.224142044669830E+01          0.432197345744573E+00
  |    9         -0.163172697323109E+01          0.150172727612100E+01          0.592918561288599E+00
  |   10          0.128972028141740E+01         -0.182317197216171E+01         -0.533772904546489E+00
  |   11         -0.249400338734488E+01         -0.737030801073223E+00         -0.208861848386097E+01
  |   12          0.238140264786830E+01          0.207990579984359E+01         -0.811631110833885E+00

  ------------------------------------ 
  Start decomposition of the XC Energy 
  ------------------------------------ 
  X and C from original XC functional choice 
  Hartree-Fock Energy :          0.000000000 Ha              0.000000000 eV
  X Energy            :       -140.171545857 Ha          -3814.261830281 eV
  C Energy            :         -4.940350105 Ha           -134.433766273 eV
  Total XC Energy     :       -145.111895962 Ha          -3948.695596554 eV
  ------------------------------------ 
  LDA X and C from self-consistent density 
  X Energy LDA        :       -132.743385235 Ha          -3612.131295455 eV
  C Energy LDA        :         -8.822721264 Ha           -240.078460645 eV
  ------------------------------------ 
  End decomposition of the XC Energy 
  ------------------------------------ 

------------------------------------------------------------

------------------------------------------------------------------------------
  Final output of selected total energy values:

  The following output summarizes some interesting total energy values
  at the end of a run (AFTER all relaxation, molecular dynamics, etc.).

  | Total energy of the DFT / Hartree-Fock s.c.f. calculation      :         -44220.900984671 eV
  | Final zero-broadening corrected energy (caution - metals only) :         -44220.900984671 eV
  | For reference only, the value of 1 Hartree used in FHI-aims is :             27.211384500 eV

  Before relying on these values, please be sure to understand exactly which
  total energy value is referred to by a given number. Different objects may
  all carry the same name 'total energy'. Definitions:

  Total energy of the DFT / Hartree-Fock s.c.f. calculation:
  | Note that this energy does not include ANY quantities calculated after the
  | s.c.f. cycle, in particular not ANY RPA, MP2, etc. many-body perturbation terms.

  Final zero-broadening corrected energy:
  | For metallic systems only, a broadening of the occupation numbers at the Fermi
  | level can be extrapolated back to zero broadening by an electron-gas inspired
  | formula. For all systems that are not real metals, this value can be
  | meaningless and should be avoided.

------------------------------------------------------------------------------
  Methods described in the following list of references were used in this FHI-aims run.
  If you publish the results, please make sure to cite these reference if they apply.
  FHI-aims is an academic code, and for our developers (often, Ph.D. students
  and postdocs), scientific credit in the community is essential.
  Thank you for helping us!

  For any use of FHI-aims, please cite:

    Volker Blum, Ralf Gehrke, Felix Hanke, Paula Havu, Ville Havu,
    Xinguo Ren, Karsten Reuter, and Matthias Scheffler
    'Ab initio molecular simulations with numeric atom-centered orbitals'
    Computer Physics Communications 180, 2175-2196 (2009)
    http://dx.doi.org/10.1016/j.cpc.2009.06.022


  The ELSI infrastructure was used in your run to solve the Kohn-Sham electronic structure.
  Please check out http://elsi-interchange.org to learn more.
  If scalability is important for your project, please acknowledge ELSI by citing:

    V. W-z. Yu, F. Corsetti, A. Garcia, W. P. Huhn, M. Jacquelin, W. Jia,
    B. Lange, L. Lin, J. Lu, W. Mi, A. Seifitokaldani, A. Vazquez-Mayagoitia,
    C. Yang, H. Yang, and V. Blum
    'ELSI: A unified software interface for Kohn-Sham electronic structure solvers'
    Computer Physics Communications 222, 267-285 (2018).
    http://dx.doi.org/10.1016/j.cpc.2017.09.007


  For the real-space grid partitioning and parallelization used in this calculation, please cite:

    Ville Havu, Volker Blum, Paula Havu, and Matthias Scheffler,
    'Efficient O(N) integration for all-electron electronic structure calculation'
    'using numerically tabulated basis functions'
    Journal of Computational Physics 228, 8367-8379 (2009).
    http://dx.doi.org/10.1016/j.jcp.2009.08.008

  Of course, there are many other important community references, e.g., those cited in the
  above references. Our list is limited to references that describe implementations in the
  FHI-aims code. The reason is purely practical (length of this list) - please credit others as well.

------------------------------------------------------------
          Leaving FHI-aims.
          Date     :  20220517, Time     :  105456.863

          Computational steps:
          | Number of self-consistency cycles          :           14
          | Number of SCF (re)initializations          :            1

          Detailed time accounting                     :  max(cpu_time)    wall_clock(cpu1)
          | Total time                                  :        2.000 s           2.067 s
          | Preparation time                            :        0.183 s           0.186 s
          | Boundary condition initalization            :        0.000 s           0.001 s
          | Grid partitioning                           :        0.042 s           0.043 s
          | Preloading free-atom quantities on grid     :        0.016 s           0.016 s
          | Free-atom superposition energy              :        0.005 s           0.005 s
          | Total time for integrations                 :        0.453 s           0.454 s
          | Total time for solution of K.-S. equations  :        0.134 s           0.135 s
          | Total time for density & force components   :        0.621 s           0.623 s
          | Total time for mixing                       :        0.061 s           0.039 s
          | Total time for Hartree multipole update     :        0.031 s           0.032 s
          | Total time for Hartree multipole sum        :        0.307 s           0.307 s
          | Total time for total energy evaluation      :        0.002 s           0.002 s
          | Total time NSC force correction             :        0.065 s           0.064 s
          | Total time for scaled ZORA corrections      :        0.000 s           0.000 s

          Partial memory accounting:
          | Residual value for overall tracked memory usage across tasks:     0.000000 MB (should be 0.000000 MB)
          | Peak values for overall tracked memory usage:
          |   Minimum:        2.872 MB (on task 23 after allocating hessian_basis_wave)
          |   Maximum:        3.088 MB (on task 17 after allocating hessian_basis_wave)
          |   Average:        3.002 MB
          | Largest tracked array allocation:
          |   Minimum:        1.396 MB (hessian_basis_wave on task 23)
          |   Maximum:        1.514 MB (hessian_basis_wave on task 17)
          |   Average:        1.465 MB
          Note:  These values currently only include a subset of arrays which are explicitly tracked.
          The "true" memory usage will be greater.

          Have a nice day.
------------------------------------------------------------
