------------------------------------------------------------
          Invoking FHI-aims ...

          When using FHI-aims, please cite the following reference:

            Volker Blum, Ralf Gehrke, Felix Hanke, Paula Havu,
            Ville Havu, Xinguo Ren, Karsten Reuter, and Matthias Scheffler,
            'Ab Initio Molecular Simulations with Numeric Atom-Centered Orbitals',
            Computer Physics Communications 180, 2175-2196 (2009)

          In addition, many other developments in FHI-aims are likely important for
          your particular application. A partial list of references is given at the end of
          this file. Thank you for giving credit to the authors of these developments.

          For any questions about FHI-aims, please visit our slack channel at

            https://fhi-aims.slack.com

          and our main development and support site at

            https://aims-git.rz-berlin.mpg.de .

          The latter site, in particular, has a wiki to collect information, as well
          as an issue tracker to log discussions, suggest improvements, and report issues
          or bugs. https://aims-git.rz-berlin.mpg.de is also the main development site
          of the project and all new and updated code versions can be obtained there.
          Please send an email to aims-coordinators@fhi-berlin.mpg.de and we will add
          you to these sites. They are for you and everyone is welcome there.

------------------------------------------------------------



  Date     :  20220517, Time     :  120122.867
  Time zero on CPU 1             :   0.383450000000000E-01  s.
  Internal wall clock time zero  :           422020882.867  s.

  FHI-aims created a unique identifier for this run for later identification
  aims_uuid : E0370BEF-E6A5-4210-A16E-FD5E3B8ED7CC

  Build configuration of the current instance of FHI-aims
  -------------------------------------------------------
  FHI-aims version      : 210914
  Commit number         : GITDIR-NOTFOUND
  CMake host system     : Linux-3.10.0-693.17.1.el7.x86_64
  CMake version         : 3.21.1
  Fortran compiler      : /shared/ucl/apps/intel/2018.Update3/impi/2018.3.222/intel64/bin/mpiifort (Intel) version 18.0.3.20180410
  Fortran compiler flags: -O3 -ip -fp-model precise
  C compiler            : /shared/ucl/apps/intel/2018.Update3/compilers_and_libraries_2018.3.222/linux/bin/intel64/icc (Intel) version 18.0.3.20180410
  C compiler flags      : -O3 -ip -fp-model precise -std=gnu99
  ELPA2 kernel          : AVX2
  Using MPI
  Using ScaLAPACK
  Using LibXC
  Using i-PI
  Using RLSY
  Linking against: /shared/ucl/apps/intel/2019.Update5/compilers_and_libraries_2019.5.281/linux/mkl/lib/intel64/libmkl_intel_lp64.so
                   /shared/ucl/apps/intel/2019.Update5/compilers_and_libraries_2019.5.281/linux/mkl/lib/intel64/libmkl_sequential.so
                   /shared/ucl/apps/intel/2019.Update5/compilers_and_libraries_2019.5.281/linux/mkl/lib/intel64/libmkl_core.so
                   /shared/ucl/apps/intel/2019.Update5/compilers_and_libraries_2019.5.281/linux/mkl/lib/intel64/libmkl_blacs_intelmpi_lp64.so
                   /shared/ucl/apps/intel/2019.Update5/compilers_and_libraries_2019.5.281/linux/mkl/lib/intel64/libmkl_scalapack_lp64.so

  Using       24 parallel tasks.
  Task        0 on host node-k98i-010 reporting.
  Task        1 on host node-k98i-010 reporting.
  Task        2 on host node-k98i-010 reporting.
  Task        3 on host node-k98i-010 reporting.
  Task        4 on host node-k98i-010 reporting.
  Task        5 on host node-k98i-010 reporting.
  Task        6 on host node-k98i-010 reporting.
  Task        7 on host node-k98i-010 reporting.
  Task        8 on host node-k98i-010 reporting.
  Task        9 on host node-k98i-010 reporting.
  Task       10 on host node-k98i-010 reporting.
  Task       11 on host node-k98i-010 reporting.
  Task       12 on host node-k98i-010 reporting.
  Task       13 on host node-k98i-010 reporting.
  Task       14 on host node-k98i-010 reporting.
  Task       15 on host node-k98i-010 reporting.
  Task       16 on host node-k98i-010 reporting.
  Task       17 on host node-k98i-010 reporting.
  Task       18 on host node-k98i-010 reporting.
  Task       19 on host node-k98i-010 reporting.
  Task       20 on host node-k98i-010 reporting.
  Task       21 on host node-k98i-010 reporting.
  Task       22 on host node-k98i-010 reporting.
  Task       23 on host node-k98i-010 reporting.

  Performing system and environment tests:
  | Environment variable OMP_NUM_THREADS correctly set to 1.
  | Checking for ScaLAPACK...
  | Testing pdtran()...
  | All pdtran() tests passed.

  Obtaining array dimensions for all initial allocations:
  
  -----------------------------------------------------------------------
  Parsing control.in (first pass over file, find array dimensions only).
  The contents of control.in will be repeated verbatim below
  unless switched off by setting 'verbatim_writeout .false.' .
  in the first line of control.in .
  -----------------------------------------------------------------------
  
  #########################################################################################  Physical model
  #########################################################################################
  xc                 pbesol
  spin               none
  relativistic       atomic_zora scalar
  charge             0.0
  #  SCF convergence
  occupation_type    gaussian 0.01
  mixer              pulay
  n_max_pulay        10
  charge_mix_param   0.5
  sc_accuracy_rho    1E-5
  sc_accuracy_eev    1E-3
  sc_accuracy_etot   1E-6
  sc_accuracy_forces 1E-4
  sc_iter_limit      1500
  #  Relaxation
  #relax_geometry   bfgs 1.e-3
  
  ################################################################################
  #
  #  FHI-aims code project
  #  VB, Fritz-Haber Institut, 2009
  #
  #  Suggested "light" defaults for Al atom (to be pasted into control.in file)
  #  Be sure to double-check any results obtained with these settings for post-processing,
  #  e.g., with the "tight" defaults and larger basis sets.
  #
  ################################################################################
    species        Al
  #     global species definitions
      nucleus             13
      mass                26.9815386
  #
      l_hartree           4
  #
      cut_pot             3.5          1.5  1.0
      basis_dep_cutoff    1e-4
  #
      radial_base         41 5.0
      radial_multiplier   1
      angular_grids       specified
        division   0.6594  110
        division   0.8170  194
        division   0.9059  302
  #      division   1.0363  434
  #      division   1.1443  590
  #      division   1.2621  770
  #      division   2.8177  974
  #      outer_grid   974
        outer_grid   302
  ################################################################################
  #
  #  Definition of "minimal" basis
  #
  ################################################################################
  #     valence basis states
      valence      3  s   2.
      valence      3  p   1.
  #     ion occupancy
      ion_occ      3  s   1.
      ion_occ      2  p   6.
  ################################################################################
  #
  #  Suggested additional basis functions. For production calculations,
  #  uncomment them one after another (the most important basis functions are
  #  listed first).
  #
  #  Constructed for dimers: 2.0 A, 2.5 A, 3.0 A, 3.75 A, 4.5 A
  #
  ################################################################################
  #  "First tier" - improvements: -199.47 meV to -10.63 meV
       ionic 3 d auto
       ionic 3 p auto
  #     hydro 4 f 4.7
       ionic 3 s auto
  #  "Second tier" - improvements: -5.35 meV to -1.57 meV
  #     hydro 5 g 7
  #     hydro 3 d 6
  #     hydro 2 s 11.6
  #     hydro 2 p 0.9
  #  "Third tier" - improvements: -0.63 meV to -0.20 meV
  #     hydro 5 f 7.6
  #     hydro 4 p 7.2
  #     hydro 4 s 3.7
  #     hydro 4 d 7.6
  #  "Fourth tier" - improvements: -0.17 meV to -0.08 meV
  #     hydro 4 d 13.6
  #     hydro 5 g 11.2
  #     hydro 4 d 0.9
  #     hydro 1 s 0.4
  #     hydro 4 p 0.1
  #     hydro 5 f 9.8
  #  Further basis functions that fell out of the optimization - noise level...
  #     hydro 4 p 5
  
  ################################################################################
  #
  #  FHI-aims code project
  #  VB, Fritz-Haber Institut, 2009
  #
  #  Suggested "light" defaults for F atom (to be pasted into control.in file)
  #  Be sure to double-check any results obtained with these settings for post-processing,
  #  e.g., with the "tight" defaults and larger basis sets.
  #
  ################################################################################
    species        F
  #     global species definitions
      nucleus             9
      mass                18.9984032
  #
      l_hartree           4
  #
      cut_pot             3.5  1.5  1.0
      basis_dep_cutoff    1e-4
  #
      radial_base         37 5.0
      radial_multiplier   1
      angular_grids specified
        division   0.4014  110
        division   0.5291  194
        division   0.6019  302
  #      division   0.6814  434
  #      division   0.7989  590
  #      division   0.8965  770
  #      division   1.3427  974
  #      outer_grid   974
        outer_grid   302
  ################################################################################
  #
  #  Definition of "minimal" basis
  #
  ################################################################################
  #     valence basis states
      valence      2  s   2.
      valence      2  p   5.
  #     ion occupancy
      ion_occ      2  s   1.
      ion_occ      2  p   4.
  ################################################################################
  #
  #  Suggested additional basis functions. For production calculations,
  #  uncomment them one after another (the most important basis functions are
  #  listed first).
  #
  #  Constructed for dimers: 1.2 A, 1.418 A, 1.75 A, 2.25 A, 3.25 A
  #
  ################################################################################
  #  "First tier" - improvements: -149.44 meV to -45.88 meV
       hydro 2 p 1.7
       hydro 3 d 7.4
       hydro 3 s 6.8
  #  "Second tier" - improvements: -12.96 meV to -1.56 meV
  #     hydro 4 f 11.2
  #     ionic 2 p auto
  #     hydro 1 s 0.75
  #     hydro 4 d 8.8
  #     hydro 5 g 16.8
  #  "Third tier" - improvements: -0.58 meV to -0.05 meV
  #     hydro 3 p 6.2
  #     hydro 3 s 3.2
  #     hydro 4 f 9.6
  #     hydro 3 s 19.6
  #     hydro 4 d 8.6
  #     hydro 5 g 14.4
  # Further basis functions: -0.05 meV and below
  #     hydro 3 p 4.2
  
  -----------------------------------------------------------------------
  Completed first pass over input file control.in .
  -----------------------------------------------------------------------
  
  
  -----------------------------------------------------------------------
  Parsing geometry.in (first pass over file, find array dimensions only).
  The contents of geometry.in will be repeated verbatim below
  unless switched off by setting 'verbatim_writeout .false.' .
  in the first line of geometry.in .
  -----------------------------------------------------------------------
  
  atom -0.078492413 1.657960372 2.155946220 Al
  atom 2.541859496 2.642172225 1.786615975 Al
  atom 1.363292284 2.643234184 -0.624939654 Al
  atom 0.977233178 3.182124936 2.761181663 F
  atom -1.578281883 2.695843122 2.418232586 F
  atom -0.542763871 -0.152570066 2.329843430 F
  atom 1.855142953 0.898612193 2.095563065 F
  atom 2.917726545 1.766113253 -0.018647416 F
  atom 1.046941009 2.917590733 -2.391001412 F
  atom 1.842369094 4.041928587 0.571182467 F
  atom 4.127248568 3.200565377 2.437872980 F
  atom -0.029631791 1.865747210 0.278663093 F
  
  -----------------------------------------------------------------------
  Completed first pass over input file geometry.in .
  -----------------------------------------------------------------------
  

  Basic array size parameters:
  | Number of species                 :        2
  | Number of atoms                   :       12
  | Max. basis fn. angular momentum   :        2
  | Max. atomic/ionic basis occupied n:        3
  | Max. number of basis fn. types    :        3
  | Max. radial fns per species/type  :        5
  | Max. logarithmic grid size        :     1340
  | Max. radial integration grid size :       41
  | Max. angular integration grid size:      302
  | Max. angular grid division number :        8
  | Radial grid for Hartree potential :     1340
  | Number of spin channels           :        1

------------------------------------------------------------
          Reading file control.in.
------------------------------------------------------------
  XC: Using PBEsol gradient-corrected functionals.
  Spin treatment: No spin polarisation.
  Scalar relativistic treatment of kinetic energy: on-site free-atom approximation to ZORA.
  Charge =   0.000000E+00: Neutral system requested explicitly.
  Occupation type: Gaussian broadening, width =   0.100000E-01 eV.
  Using pulay charge density mixing.
  Pulay mixing - number of memorized iterations:   10
  Charge density mixing - mixing parameter:     0.5000
  Convergence accuracy of self-consistent charge density:  0.1000E-04
  Convergence accuracy of sum of eigenvalues:  0.1000E-02
  Convergence accuracy of total energy:  0.1000E-05
  Convergence accuracy of forces:  0.1000E-03
  Maximum number of s.-c. iterations  :  1500
 
  Reading configuration options for species Al                  .
  | Found nuclear charge :  13.0000
  | Found atomic mass :    26.9815386000000      amu
  | Found l_max for Hartree potential  :   4
  | Found cutoff potl. onset [A], width [A], scale factor :    3.50000    1.50000    1.00000
  | Threshold for basis-dependent cutoff potential is   0.100000E-03
  | Found data for basic radial integration grid :    41 points, outermost radius =    5.000 A
  | Found multiplier for basic radial grid :   1
  | Found angular grid specification: user-specified.
  | Specified grid contains     4 separate shells.
  | Check grid settings after all constraints further below.
  | Found free-atom valence shell :  3 s   2.000
  | Found free-atom valence shell :  3 p   1.000
  | Found free-ion valence shell :  3 s   1.000
  | Found free-ion valence shell :  2 p   6.000
  | Found ionic basis function :  3 d , default cutoff radius.
  | Found ionic basis function :  3 p , default cutoff radius.
  | Found ionic basis function :  3 s , default cutoff radius.
  Species Al                  : Missing cutoff potential type.
  Defaulting to exp(1/x)/(1-x)^2 type cutoff potential.
  Species Al: No 'logarithmic' tag. Using default grid for free atom:
  | Default logarithmic grid data [bohr] : 0.1000E-03 0.1000E+03 0.1012E+01
  | Will include ionic basis functions of  2.0-fold positive Al                   ion.
  Species Al: On-site basis accuracy parameter (for Gram-Schmidt orthonormalisation) not specified.
  Using default value basis_acc =  0.1000000E-03.
  Species Al                  : Using default innermost maximum threshold i_radial=  2 for radial functions.
  Species Al                  : Default cutoff onset for free atom density etc. : 0.35000000E+01 AA.
  Species Al                  : Basic radial grid will be enhanced according to radial_multiplier =   1, to contain    41 grid points.
 
  Reading configuration options for species F                   .
  | Found nuclear charge :   9.0000
  | Found atomic mass :    18.9984032000000      amu
  | Found l_max for Hartree potential  :   4
  | Found cutoff potl. onset [A], width [A], scale factor :    3.50000    1.50000    1.00000
  | Threshold for basis-dependent cutoff potential is   0.100000E-03
  | Found data for basic radial integration grid :    37 points, outermost radius =    5.000 A
  | Found multiplier for basic radial grid :   1
  | Found angular grid specification: user-specified.
  | Specified grid contains     4 separate shells.
  | Check grid settings after all constraints further below.
  | Found free-atom valence shell :  2 s   2.000
  | Found free-atom valence shell :  2 p   5.000
  | Found free-ion valence shell :  2 s   1.000
  | Found free-ion valence shell :  2 p   4.000
  | Found hydrogenic basis function :  2 p   1.700
  | Found hydrogenic basis function :  3 d   7.400
  | Found hydrogenic basis function :  3 s   6.800
  Species F                   : Missing cutoff potential type.
  Defaulting to exp(1/x)/(1-x)^2 type cutoff potential.
  Species F : No 'logarithmic' tag. Using default grid for free atom:
  | Default logarithmic grid data [bohr] : 0.1000E-03 0.1000E+03 0.1012E+01
  Species F : On-site basis accuracy parameter (for Gram-Schmidt orthonormalisation) not specified.
  Using default value basis_acc =  0.1000000E-03.
  Species F                   : Using default innermost maximum threshold i_radial=  2 for radial functions.
  Species F                   : Default cutoff onset for free atom density etc. : 0.35000000E+01 AA.
  Species F                   : Basic radial grid will be enhanced according to radial_multiplier =   1, to contain    37 grid points.
 
  Finished reading input file 'control.in'.
 
------------------------------------------------------------


------------------------------------------------------------
          Reading geometry description geometry.in.
------------------------------------------------------------
  | The smallest distance between any two atoms is         1.80260842 AA.
  | The first atom of this pair is atom number                      2 .
  | The second atom of this pair is atom number                    11 .
  Input structure read successfully.
  The structure contains       12 atoms,  and a total of        120.000 electrons.

  Input geometry:
  | No unit cell requested.
  | Atomic structure:
  |       Atom                x [A]            y [A]            z [A]
  |    1: Species Al           -0.07849241        1.65796037        2.15594622
  |    2: Species Al            2.54185950        2.64217222        1.78661597
  |    3: Species Al            1.36329228        2.64323418       -0.62493965
  |    4: Species F             0.97723318        3.18212494        2.76118166
  |    5: Species F            -1.57828188        2.69584312        2.41823259
  |    6: Species F            -0.54276387       -0.15257007        2.32984343
  |    7: Species F             1.85514295        0.89861219        2.09556306
  |    8: Species F             2.91772654        1.76611325       -0.01864742
  |    9: Species F             1.04694101        2.91759073       -2.39100141
  |   10: Species F             1.84236909        4.04192859        0.57118247
  |   11: Species F             4.12724857        3.20056538        2.43787298
  |   12: Species F            -0.02963179        1.86574721        0.27866309

 
  Finished reading input file 'control.in'.
 

------------------------------------------------------------
          Reading geometry description geometry.in.
------------------------------------------------------------
 
  Consistency checks for stacksize environment parameter are next.
 
  | Maximum stacksize for task 0: unlimited
  | Maximum stacksize for task 1: unlimited
  | Maximum stacksize for task 2: unlimited
  | Maximum stacksize for task 3: unlimited
  | Maximum stacksize for task 4: unlimited
  | Maximum stacksize for task 5: unlimited
  | Maximum stacksize for task 6: unlimited
  | Maximum stacksize for task 7: unlimited
  | Maximum stacksize for task 8: unlimited
  | Maximum stacksize for task 9: unlimited
  | Maximum stacksize for task 10: unlimited
  | Maximum stacksize for task 11: unlimited
  | Maximum stacksize for task 12: unlimited
  | Maximum stacksize for task 13: unlimited
  | Maximum stacksize for task 14: unlimited
  | Maximum stacksize for task 15: unlimited
  | Maximum stacksize for task 16: unlimited
  | Maximum stacksize for task 17: unlimited
  | Maximum stacksize for task 18: unlimited
  | Maximum stacksize for task 19: unlimited
  | Maximum stacksize for task 20: unlimited
  | Maximum stacksize for task 21: unlimited
  | Maximum stacksize for task 22: unlimited
  | Maximum stacksize for task 23: unlimited
  | Current stacksize for task 0: unlimited
  | Current stacksize for task 1: unlimited
  | Current stacksize for task 2: unlimited
  | Current stacksize for task 3: unlimited
  | Current stacksize for task 4: unlimited
  | Current stacksize for task 5: unlimited
  | Current stacksize for task 6: unlimited
  | Current stacksize for task 7: unlimited
  | Current stacksize for task 8: unlimited
  | Current stacksize for task 9: unlimited
  | Current stacksize for task 10: unlimited
  | Current stacksize for task 11: unlimited
  | Current stacksize for task 12: unlimited
  | Current stacksize for task 13: unlimited
  | Current stacksize for task 14: unlimited
  | Current stacksize for task 15: unlimited
  | Current stacksize for task 16: unlimited
  | Current stacksize for task 17: unlimited
  | Current stacksize for task 18: unlimited
  | Current stacksize for task 19: unlimited
  | Current stacksize for task 20: unlimited
  | Current stacksize for task 21: unlimited
  | Current stacksize for task 22: unlimited
  | Current stacksize for task 23: unlimited
 
  Consistency checks for the contents of control.in are next.
 
  MPI_IN_PLACE appears to work with this MPI implementation.
  | Keeping use_mpi_in_place .true. (see manual).
  Target number of points in a grid batch is not set. Defaulting to  100
  Method for grid partitioning is not set. Defaulting to parallel hash+maxmin partitioning.
  Batch size limit is not set. Defaulting to    200
  By default, will store active basis functions for each batch.
  If in need of memory, prune_basis_once .false. can be used to disable this option.
  communication_type for Hartree potential was not specified.
  Defaulting to calc_hartree .
  Pulay mixer: Number of initial linear mixing iterations not set.
  Defaulting to    0 iterations.
  Work space size for distributed Hartree potential not set.
  Defaulting to   0.200000E+03 MB.
  Algorithm-dependent basis array size parameters:
  | n_max_pulay                         :       10
  Presetting      1001 iterations before the initial mixing cycle
  is restarted anyway using the sc_init_iter criterion / keyword.
  Presetting a factor      1.000 between actual scf density residual
  and density convergence criterion sc_accuracy_rho below which sc_init_iter
  takes no effect.
  Geometry relaxation not requested: no relaxation will be performed.
  Forces evaluation will include force correction term due to incomplete self-consistency (default).
  Handling of forces: Unphysical translation and rotation will be removed from forces.
  No accuracy limit for integral partition fn. given. Defaulting to  0.1000E-14.
  No threshold value for u(r) in integrations given. Defaulting to  0.1000E-05.
  No accuracy for occupation numbers given. Defaulting to  0.1000E-12.
  No threshold value for occupation numbers given. Defaulting to  0.0000E+00.
  No accuracy for fermi level given. Defaulting to  0.1000E-19.
  Maximum # of iterations to find E_F not set. Defaulting to  200.
  Preferred method for the eigenvalue solver ('KS_method') not specified in 'control.in'.
  Calling BLACS routine to test compilation state
  Since ScaLAPACK support is enabled, defaulting to ELPA (via ELSI).
  Will not use alltoall communication since running on < 1024 CPUs.
  Threshold for basis singularities not set.
  Default threshold for basis singularities:  0.1000E-04
  partition_type (choice of integration weights) for integrals was not specified.
  | Using a version of the partition function of Stratmann and coworkers ('stratmann_sparse').
  | At each grid point, the set of atoms used to build the partition table is smoothly restricted to
  | only those atoms whose free-atom density would be non-zero at that grid point.
  Partitioning for Hartree potential was not defined. Using partition_type for integrals.
  | Adjusted default value of keyword multip_moments_threshold to:       0.10000000E-11
  | This value may affect high angular momentum components of the Hartree potential in periodic systems.
  No q(lm)/r^(l+1) cutoff set for long-range Hartree potential.
  | Using default value of  0.100000E-09 .
  | Verify using the multipole_threshold keyword.
  Defaulting to new monopole extrapolation.
  Density update method: automatic selection selected.
  Charge integration errors on the 3D integration grid will be compensated
  by explicit normalization and distribution of residual charges.
  Use the "compensate_multipole_errors" flag to change this behaviour.
  Set 'collect_eigenvectors' to be '.true.' for use_density_matrix .false.
 
  Consistency checks for the contents of geometry.in are next.
 
  Number of empty states per atom not set in control.in - providing a guess from actual geometry.
  | Total number of empty states used during s.c.f. cycle:       36
  If you use a very high smearing, use empty_states (per atom!) in control.in to increase this value.

  Structure-dependent array size parameters: 
  | Maximum number of distinct radial functions  :       14
  | Maximum number of basis functions            :      180
  | Number of Kohn-Sham states (occupied + empty):       96
------------------------------------------------------------

------------------------------------------------------------
          Preparing all fixed parts of the calculation.
------------------------------------------------------------
  Determining machine precision:
    2.225073858507201E-308
  Setting up grids for atomic and cluster calculations.

  Creating wave function, potential, and density for free atoms.

  Species: Al

  List of occupied orbitals and eigenvalues:
    n    l              occ      energy [Ha]    energy [eV]
    1    0           2.0000       -55.621123     -1513.5278
    2    0           2.0000        -3.957030      -107.6763
    3    0           2.0000        -0.272233        -7.4078
    2    1           6.0000        -2.540949       -69.1427
    3    1           1.0000        -0.083300        -2.2667


  Species: F

  List of occupied orbitals and eigenvalues:
    n    l              occ      energy [Ha]    energy [eV]
    1    0           2.0000       -24.399611      -663.9472
    2    0           2.0000        -1.098702       -29.8972
    2    1           5.0000        -0.408210       -11.1080


  Adding cutoff potential to free-atom effective potential.
  Creating fixed part of basis set: Ionic, confined, hydrogenic.
 
  Al                   ion:

  List of free ionic orbitals and eigenvalues:
    n    l      energy [Ha]    energy [eV]
    1    0       -56.418846     -1535.2349
    2    0        -4.732717      -128.7838
    3    0        -0.872690       -23.7471
    2    1        -3.317230       -90.2664


  List of ionic basis orbitals and eigenvalues:
    n    l      energy [Ha]    energy [eV]    outer radius [A]
    3    2        -0.346815        -9.4373       4.594041
    3    1        -0.631870       -17.1940       4.538221
    3    0        -0.872657       -23.7462       4.538221

 
  F                    hydrogenic:
 
  List of hydrogenic basis orbitals: 
    n    l      effective z      eigenvalue [eV]  inner max. [A]     outer max. [A]     outer radius [A]   
    2    1         1.700000        -9.7616           1.243167           1.243167           4.598524
    3    2         7.400000       -82.7828           0.642437           0.642437           3.305741
    3    0         6.800000       -69.9026           0.057798           1.022307           3.781556
 
  Creating atomic-like basis functions for current effective potential.

  Species Al                  :

  List of atomic basis orbitals and eigenvalues:
    n    l      energy [Ha]    energy [eV]    outer radius [A]
    1    0       -55.621123     -1513.5278       0.850197
    2    0        -3.957030      -107.6763       3.144911
    3    0        -0.272233        -7.4078       4.594041
    2    1        -2.540949       -69.1427       3.731966
    3    1        -0.083300        -2.2667       4.594041


  Species F                   :

  List of atomic basis orbitals and eigenvalues:
    n    l      energy [Ha]    energy [eV]    outer radius [A]
    1    0       -24.399611      -663.9472       1.258458
    2    0        -1.098702       -29.8972       4.325857
    2    1        -0.408210       -11.1080       4.487453

  Assembling full basis from fixed parts.
  | Species Al :   atomic orbital   1 s accepted.
  | Species Al :   atomic orbital   2 s accepted.
  | Species Al :    ionic orbital   3 s accepted.
  | Species Al :   atomic orbital   3 s accepted.
  | Species Al :   atomic orbital   2 p accepted.
  | Species Al :    ionic orbital   3 p accepted.
  | Species Al :   atomic orbital   3 p accepted.
  | Species Al :    ionic orbital   3 d accepted.
  | Species F :   atomic orbital   1 s accepted.
  | Species F :    hydro orbital   3 s accepted.
  | Species F :   atomic orbital   2 s accepted.
  | Species F :   atomic orbital   2 p accepted.
  | Species F :    hydro orbital   2 p accepted.
  | Species F :    hydro orbital   3 d accepted.
 
  Basis size parameters after reduction:
  | Total number of radial functions:       14
  | Total number of basis functions :      180
 
  Per-task memory consumption for arrays in subroutine allocate_ext:
  |           4.807768MB.
  Testing on-site integration grid accuracy.
  |  Species  Function  <phi|h_atom|phi> (log., in eV)  <phi|h_atom|phi> (rad., in eV)
           1        1              -1513.5277717935              -1513.5271881332
           1        2               -107.6762691836               -107.6762662489
           1        3                 -6.9467474784                 -6.9471269649
           1        4                  5.5771951849                  5.4862107220 ***
           1        5                -69.1427313144                -69.1427312731
           1        6                 -1.5197375330                 -1.5230432022
           1        7                  6.8210948310                  6.5529872240 ***
           1        8                  4.3216540965                  4.2851170187 ***
           2        9               -663.9471986398               -663.9470363334
           2       10                 16.8514011578                 16.8512525338
           2       11                -28.4490593856                -28.4490661472
           2       12                -11.1080115307                -11.1080620173
           2       13                  7.1940182175                  7.1685154137
           2       14                 44.8544281765                 44.8543763625
 * Note: Onsite integrals marked "***" above are less accurate than
 * onsite_accuracy_threshold =    0.03000 eV. Usually, this is harmless.
 * When in doubt, tighten the "radial" and/or "radial_multiplier" flags to check.

  Preparing densities etc. for the partition functions (integrals / Hartree potential).

  Preparations completed.
  max(cpu_time)          :      0.185 s.
  Wall clock time (cpu1) :      0.186 s.
------------------------------------------------------------

------------------------------------------------------------
          Begin self-consistency loop: Initialization.

          Date     :  20220517, Time     :  120136.811
------------------------------------------------------------

  Initializing index lists of integration centers etc. from given atomic structure:
  | Number of centers in hartree potential         :        12
  | Number of centers in hartree multipole         :        12
  | Number of centers in electron density summation:        12
  | Number of centers in basis integrals           :        12
  | Number of centers in integrals                 :        12
  | Number of centers in hamiltonian               :        12
  * Using 24 tasks for Scalapack Eigenvalue solver.
  Detailed listing of tasks and assigned k-points:
  (for non-periodic systems, the "k-point" denotes an internal label only)
   Task     0 k-point     1 on node-k98i-010
   Task     1 k-point     1 on node-k98i-010
   Task     2 k-point     1 on node-k98i-010
   Task     3 k-point     1 on node-k98i-010
   Task     4 k-point     1 on node-k98i-010
   Task     5 k-point     1 on node-k98i-010
   Task     6 k-point     1 on node-k98i-010
   Task     7 k-point     1 on node-k98i-010
   Task     8 k-point     1 on node-k98i-010
   Task     9 k-point     1 on node-k98i-010
   Task    10 k-point     1 on node-k98i-010
   Task    11 k-point     1 on node-k98i-010
   Task    12 k-point     1 on node-k98i-010
   Task    13 k-point     1 on node-k98i-010
   Task    14 k-point     1 on node-k98i-010
   Task    15 k-point     1 on node-k98i-010
   Task    16 k-point     1 on node-k98i-010
   Task    17 k-point     1 on node-k98i-010
   Task    18 k-point     1 on node-k98i-010
   Task    19 k-point     1 on node-k98i-010
   Task    20 k-point     1 on node-k98i-010
   Task    21 k-point     1 on node-k98i-010
   Task    22 k-point     1 on node-k98i-010
   Task    23 k-point     1 on node-k98i-010
  Tasks:    24 split into      6 X      4 BLACS grid
  Calculating block size based on n_basis =          180  max_nprow =            6  max_npcol =            4
  ScaLAPACK block size set to:           16
  Allocating        0.012 MB for ovlp
  Allocating        0.012 MB for ham
  Allocating        0.012 MB for eigenvec
  Required Scalapack workspace - INTEGER:            1  REAL:             1
  Partitioning the integration grid into batches with parallel hashing+maxmin method.
  | Number of batches:     1021
  | Maximal batch size:     198
  | Minimal batch size:      18
  | Average batch size:      90.029
  | Standard deviation of batch sizes:      23.333

  Integration load balanced across    24 MPI tasks.
  Work distribution over tasks is as follows:
  Task     0 has       3842 integration points.
  Task     1 has       3769 integration points.
  Task     2 has       3879 integration points.
  Task     3 has       3875 integration points.
  Task     4 has       3783 integration points.
  Task     5 has       3769 integration points.
  Task     6 has       3877 integration points.
  Task     7 has       3776 integration points.
  Task     8 has       3812 integration points.
  Task     9 has       3870 integration points.
  Task    10 has       3920 integration points.
  Task    11 has       3877 integration points.
  Task    12 has       3767 integration points.
  Task    13 has       3870 integration points.
  Task    14 has       3873 integration points.
  Task    15 has       3795 integration points.
  Task    16 has       3772 integration points.
  Task    17 has       3874 integration points.
  Task    18 has       3923 integration points.
  Task    19 has       3772 integration points.
  Task    20 has       3786 integration points.
  Task    21 has       3880 integration points.
  Task    22 has       3792 integration points.
  Task    23 has       3767 integration points.
  Initializing partition tables, free-atom densities, potentials, etc. across the integration grid (initialize_grid_storage).
  | initialize_grid_storage: Actual outermost partition radius vs. multipole_radius_free
  | (-- VB: in principle, multipole_radius_free should be larger, hence this output)
  | Species        1: Confinement radius =              4.999999999999999 AA, multipole_radius_free =              5.004487022111096 AA.
  | Species        1: outer_partition_radius set to              5.004487022111096 AA .
  | Species        2: Confinement radius =              4.999999999999999 AA, multipole_radius_free =              5.009370088163274 AA.
  | Species        2: outer_partition_radius set to              5.009370088163274 AA .
  | The sparse table of interatomic distances needs          1.64 kbyte instead of         1.15 kbyte of memory.
  | Using the partition_type stratmann_smoother will reduce your memory usage.
  | Net number of integration points:    91920
  | of which are non-zero points    :    85110
  Renormalizing the initial density to the exact electron count on the 3D integration grid.
  | Initial density: Formal number of electrons (from input files) :     120.0000000000
  | Integrated number of electrons on 3D grid     :     119.9998576115
  | Charge integration error                      :      -0.0001423885
  | Normalization factor for density and gradient :       1.0000011866
  Renormalizing the free-atom superposition density to the exact electron count on the 3D integration grid.
  | Formal number of electrons (from input files) :     120.0000000000
  | Integrated number of electrons on 3D grid     :     119.9998576115
  | Charge integration error                      :      -0.0001423885
  | Normalization factor for density and gradient :       1.0000011866
  Obtaining max. number of non-zero basis functions in each batch (get_n_compute_maxes).
  | Maximal number of non-zero basis functions:      171 in task     0
  | Maximal number of non-zero basis functions:      166 in task     1
  | Maximal number of non-zero basis functions:      164 in task     2
  | Maximal number of non-zero basis functions:      163 in task     3
  | Maximal number of non-zero basis functions:      166 in task     4
  | Maximal number of non-zero basis functions:      172 in task     5
  | Maximal number of non-zero basis functions:      163 in task     6
  | Maximal number of non-zero basis functions:      171 in task     7
  | Maximal number of non-zero basis functions:      165 in task     8
  | Maximal number of non-zero basis functions:      165 in task     9
  | Maximal number of non-zero basis functions:      165 in task    10
  | Maximal number of non-zero basis functions:      166 in task    11
  | Maximal number of non-zero basis functions:      165 in task    12
  | Maximal number of non-zero basis functions:      164 in task    13
  | Maximal number of non-zero basis functions:      164 in task    14
  | Maximal number of non-zero basis functions:      166 in task    15
  | Maximal number of non-zero basis functions:      166 in task    16
  | Maximal number of non-zero basis functions:      164 in task    17
  | Maximal number of non-zero basis functions:      170 in task    18
  | Maximal number of non-zero basis functions:      165 in task    19
  | Maximal number of non-zero basis functions:      169 in task    20
  | Maximal number of non-zero basis functions:      163 in task    21
  | Maximal number of non-zero basis functions:      173 in task    22
  | Maximal number of non-zero basis functions:      166 in task    23
  Selecting the method for density update.
  Loop over occupied states selected for charge density update.
  Allocating        0.132 MB for KS_eigenvector
  Integrating Hamiltonian matrix: batch-based integration.
  Time summed over all CPUs for integration: real work        0.759 s, elapsed        0.798 s
  Integrating overlap matrix.
  Time summed over all CPUs for integration: real work        0.288 s, elapsed        0.304 s
  Deallocating overlap matrix.

  Updating Kohn-Sham eigenvalues and eigenvectors using ELSI and the ELPA eigensolver.
  Overlap matrix is not singular
  | Lowest and highest eigenvalues :  0.3199E-02,  0.5726E+01
  Finished singularity check of overlap matrix
  | Time :     0.004 s
  Starting ELPA eigensolver
  Finished Cholesky decomposition
  | Time :     0.003 s
  Finished transformation to standard eigenproblem
  | Time :     0.001 s
  Finished solving standard eigenproblem
  | Time :     0.004 s
  Finished back-transformation of eigenvectors
  | Time :     0.000 s

  Obtaining occupation numbers and chemical potential using ELSI.
  | Chemical potential (Fermi level):    -7.36778290 eV
  Writing Kohn-Sham eigenvalues.

  State    Occupation    Eigenvalue [Ha]    Eigenvalue [eV]
      1       2.00000         -55.485791        -1509.84519
      2       2.00000         -55.484795        -1509.81810
      3       2.00000         -55.483692        -1509.78809
      4       2.00000         -24.370327         -663.15034
      5       2.00000         -24.356165         -662.76498
      6       2.00000         -24.355467         -662.74598
      7       2.00000         -24.352986         -662.67846
      8       2.00000         -24.349760         -662.59068
      9       2.00000         -24.342164         -662.38398
     10       2.00000         -24.340676         -662.34348
     11       2.00000         -24.337618         -662.26027
     12       2.00000         -24.334049         -662.16317
     13       2.00000          -3.951335         -107.52129
     14       2.00000          -3.950127         -107.48843
     15       2.00000          -3.948695         -107.44947
     16       2.00000          -2.544418          -69.23714
     17       2.00000          -2.543472          -69.21139
     18       2.00000          -2.542771          -69.19231
     19       2.00000          -2.542350          -69.18087
     20       2.00000          -2.541738          -69.16421
     21       2.00000          -2.540919          -69.14193
     22       2.00000          -2.540820          -69.13924
     23       2.00000          -2.540794          -69.13852
     24       2.00000          -2.539840          -69.11255
     25       2.00000          -1.195385          -32.52809
     26       2.00000          -1.183090          -32.19351
     27       2.00000          -1.173921          -31.94402
     28       2.00000          -1.169458          -31.82257
     29       2.00000          -1.159741          -31.55816
     30       2.00000          -1.151197          -31.32568
     31       2.00000          -1.149079          -31.26803
     32       2.00000          -1.144861          -31.15326
     33       2.00000          -1.138923          -30.99167
     34       2.00000          -0.565749          -15.39481
     35       2.00000          -0.558427          -15.19557
     36       2.00000          -0.542965          -14.77484
     37       2.00000          -0.521497          -14.19066
     38       2.00000          -0.518952          -14.12140
     39       2.00000          -0.510613          -13.89448
     40       2.00000          -0.506752          -13.78944
     41       2.00000          -0.504394          -13.72525
     42       2.00000          -0.496218          -13.50279
     43       2.00000          -0.493752          -13.43567
     44       2.00000          -0.489745          -13.32664
     45       2.00000          -0.485813          -13.21964
     46       2.00000          -0.479959          -13.06036
     47       2.00000          -0.475226          -12.93157
     48       2.00000          -0.468708          -12.75419
     49       2.00000          -0.466169          -12.68509
     50       2.00000          -0.464242          -12.63266
     51       2.00000          -0.459523          -12.50426
     52       2.00000          -0.453222          -12.33281
     53       2.00000          -0.452301          -12.30774
     54       2.00000          -0.451797          -12.29401
     55       2.00000          -0.451577          -12.28803
     56       2.00000          -0.448316          -12.19931
     57       2.00000          -0.446822          -12.15864
     58       2.00000          -0.444210          -12.08756
     59       2.00000          -0.440670          -11.99125
     60       2.00000          -0.436398          -11.87499
     61       0.00000          -0.144602           -3.93483
     62       0.00000          -0.093434           -2.54248
     63       0.00000          -0.073662           -2.00444
     64       0.00000          -0.036914           -1.00447
     65       0.00000          -0.020522           -0.55844
     66       0.00000           0.000690            0.01877
     67       0.00000           0.027641            0.75215
     68       0.00000           0.032730            0.89064
     69       0.00000           0.048906            1.33081
     70       0.00000           0.076948            2.09385
     71       0.00000           0.078179            2.12735
     72       0.00000           0.116325            3.16537
     73       0.00000           0.148527            4.04164
     74       0.00000           0.161087            4.38341
     75       0.00000           0.171847            4.67620
     76       0.00000           0.176614            4.80591
     77       0.00000           0.195451            5.31849
     78       0.00000           0.198641            5.40531
     79       0.00000           0.209649            5.70483
     80       0.00000           0.218967            5.95840
     81       0.00000           0.224627            6.11242
     82       0.00000           0.226968            6.17612
     83       0.00000           0.233860            6.36366
     84       0.00000           0.240474            6.54363
     85       0.00000           0.256903            6.99068
     86       0.00000           0.267399            7.27630
     87       0.00000           0.268823            7.31506
     88       0.00000           0.273702            7.44782
     89       0.00000           0.284192            7.73325
     90       0.00000           0.296032            8.05544
     91       0.00000           0.297791            8.10331
     92       0.00000           0.322912            8.78689
     93       0.00000           0.345299            9.39606
     94       0.00000           0.355033            9.66093
     95       0.00000           0.370119           10.07145
     96       0.00000           0.383963           10.44815

  Highest occupied state (VBM) at    -11.87498537 eV
  | Occupation number:      2.00000000

  Lowest unoccupied state (CBM) at    -3.93482988 eV
  | Occupation number:      0.00000000

  Overall HOMO-LUMO gap:      7.94015549 eV.
  Calculating total energy contributions from superposition of free atom densities.

  Total energy components:
  | Sum of eigenvalues            :        -887.64088393 Ha      -24153.93739049 eV
  | XC energy correction          :        -144.38883905 Ha       -3929.02021692 eV
  | XC potential correction       :         188.00557593 Ha        5115.89201477 eV
  | Free-atom electrostatic energy:        -781.32584355 Ha      -21260.95794864 eV
  | Hartree energy correction     :           0.00000000 Ha           0.00000000 eV
  | Entropy correction            :           0.00000000 Ha           0.00000000 eV
  | ---------------------------
  | Total energy                  :       -1625.34999060 Ha      -44228.02354128 eV
  | Total energy, T -> 0          :       -1625.34999060 Ha      -44228.02354128 eV  <-- do not rely on this value for anything but (periodic) metals
  | Electronic free energy        :       -1625.34999060 Ha      -44228.02354128 eV

  Derived energy quantities:
  | Kinetic energy                :        1627.72634435 Ha       44292.68741679 eV
  | Electrostatic energy          :       -3108.68749590 Ha      -84591.69074115 eV
  | Energy correction for multipole
  | error in Hartree potential    :           0.00000000 Ha           0.00000000 eV
  | Sum of eigenvalues per atom                           :       -2012.82811587 eV
  | Total energy (T->0) per atom                          :       -3685.66862844 eV  <-- do not rely on this value for anything but (periodic) metals
  | Electronic free energy per atom                       :       -3685.66862844 eV
  Initialize hartree_potential_storage
  Max. number of atoms included in rho_multipole:           12

  End scf initialization - timings             :  max(cpu_time)    wall_clock(cpu1)
  | Time for scf. initialization                :        0.123 s           0.123 s
  | Boundary condition initialization           :        0.000 s           0.000 s
  | Integration                                 :        0.047 s           0.047 s
  | Solution of K.-S. eqns.                     :        0.013 s           0.013 s
  | Grid partitioning                           :        0.039 s           0.040 s
  | Preloading free-atom quantities on grid     :        0.016 s           0.016 s
  | Free-atom superposition energy              :        0.005 s           0.005 s
  | Total energy evaluation                     :        0.000 s           0.000 s

  Partial memory accounting:
  | Current value for overall tracked memory usage:
  |   Minimum:        0.273 MB (on task 23)
  |   Maximum:        0.292 MB (on task  0)
  |   Average:        0.287 MB
  | Peak value for overall tracked memory usage:
  |   Minimum:        1.348 MB (on task 21 after allocating wave)
  |   Maximum:        1.425 MB (on task  5 after allocating wave)
  |   Average:        1.381 MB
  | Largest tracked array allocation so far:
  |   Minimum:        0.246 MB (H_times_psi on task  3)
  |   Maximum:        0.555 MB (all_coords on task 14)
  |   Average:        0.276 MB
  Note:  These values currently only include a subset of arrays which are explicitly tracked.
  The "true" memory usage will be greater.
------------------------------------------------------------
  Evaluating new KS density.
  Integration grid: deviation in total charge (<rho> - N_e) =  -1.421085E-14

  Time for density update prior                :  max(cpu_time)    wall_clock(cpu1)
  | self-consistency iterative process          :        0.030 s           0.030 s

------------------------------------------------------------
          Begin self-consistency iteration #    1

  Date     :  20220517, Time     :  120136.965
------------------------------------------------------------
  Pulay mixing of updated and previous charge densities.
  Renormalizing the density to the exact electron count on the 3D integration grid.
  | Formal number of electrons (from input files) :     120.0000000000
  | Integrated number of electrons on 3D grid     :     120.0000000000
  | Charge integration error                      :      -0.0000000000
  | Normalization factor for density and gradient :       1.0000000000

  Evaluating partitioned Hartree potential by multipole expansion.
  | Original multipole sum: apparent total charge =  -0.352424E-13
  | Sum of charges compensated after spline to logarithmic grids =   0.970698E-04
  | Analytical far-field extrapolation by fixed multipoles:
  | Hartree multipole sum: apparent total charge =  -0.331885E-13
  Summing up the Hartree potential.
  Time summed over all CPUs for potential: real work        0.383 s, elapsed        0.398 s
  | RMS charge density error from multipole expansion :   0.106993E-01

  Integrating Hamiltonian matrix: batch-based integration.
  Time summed over all CPUs for integration: real work        0.708 s, elapsed        0.744 s

  Updating Kohn-Sham eigenvalues and eigenvectors using ELSI and the ELPA eigensolver.
  Starting ELPA eigensolver
  Finished transformation to standard eigenproblem
  | Time :     0.001 s
  Finished solving standard eigenproblem
  | Time :     0.003 s
  Finished back-transformation of eigenvectors
  | Time :     0.000 s

  Obtaining occupation numbers and chemical potential using ELSI.
  | Chemical potential (Fermi level):    -7.37905827 eV
  Writing Kohn-Sham eigenvalues.

  State    Occupation    Eigenvalue [Ha]    Eigenvalue [eV]
      1       2.00000         -55.679875        -1515.12650
      2       2.00000         -55.661985        -1514.63968
      3       2.00000         -55.626761        -1513.68119
      4       2.00000         -24.261162         -660.17981
      5       2.00000         -24.229643         -659.32214
      6       2.00000         -24.217136         -658.98181
      7       2.00000         -24.202751         -658.59036
      8       2.00000         -24.183089         -658.05535
      9       2.00000         -24.090758         -655.54288
     10       2.00000         -24.077237         -655.17496
     11       2.00000         -24.032617         -653.96079
     12       2.00000         -24.026826         -653.80321
     13       2.00000          -4.118386         -112.06699
     14       2.00000          -4.100350         -111.57620
     15       2.00000          -4.064600         -110.60340
     16       2.00000          -2.711179          -73.77495
     17       2.00000          -2.711083          -73.77232
     18       2.00000          -2.710966          -73.76914
     19       2.00000          -2.694169          -73.31208
     20       2.00000          -2.692787          -73.27446
     21       2.00000          -2.692096          -73.25567
     22       2.00000          -2.658863          -72.35134
     23       2.00000          -2.657600          -72.31697
     24       2.00000          -2.655283          -72.25393
     25       2.00000          -1.180226          -32.11557
     26       2.00000          -1.155301          -31.43735
     27       2.00000          -1.134952          -30.88363
     28       2.00000          -1.128574          -30.71006
     29       2.00000          -1.103036          -30.01514
     30       2.00000          -1.035671          -28.18203
     31       2.00000          -1.023530          -27.85166
     32       2.00000          -0.983938          -26.77433
     33       2.00000          -0.973960          -26.50280
     34       2.00000          -0.566010          -15.40191
     35       2.00000          -0.553778          -15.06908
     36       2.00000          -0.524222          -14.26480
     37       2.00000          -0.499935          -13.60393
     38       2.00000          -0.492059          -13.38961
     39       2.00000          -0.481246          -13.09537
     40       2.00000          -0.479579          -13.05001
     41       2.00000          -0.473750          -12.89140
     42       2.00000          -0.457061          -12.43726
     43       2.00000          -0.453205          -12.33233
     44       2.00000          -0.436084          -11.86645
     45       2.00000          -0.425087          -11.56721
     46       2.00000          -0.416303          -11.32818
     47       2.00000          -0.409330          -11.13844
     48       2.00000          -0.400127          -10.88800
     49       2.00000          -0.388348          -10.56748
     50       2.00000          -0.383907          -10.44664
     51       2.00000          -0.360033           -9.79700
     52       2.00000          -0.345753           -9.40842
     53       2.00000          -0.344794           -9.38231
     54       2.00000          -0.332459           -9.04667
     55       2.00000          -0.332323           -9.04298
     56       2.00000          -0.324683           -8.83506
     57       2.00000          -0.298252           -8.11585
     58       2.00000          -0.295060           -8.02898
     59       2.00000          -0.285792           -7.77679
     60       2.00000          -0.275949           -7.50896
     61       0.00000          -0.165387           -4.50041
     62       0.00000          -0.105009           -2.85744
     63       0.00000          -0.076218           -2.07399
     64       0.00000          -0.067588           -1.83915
     65       0.00000          -0.054343           -1.47875
     66       0.00000          -0.024019           -0.65360
     67       0.00000           0.020997            0.57137
     68       0.00000           0.024789            0.67454
     69       0.00000           0.037185            1.01186
     70       0.00000           0.066510            1.80984
     71       0.00000           0.089282            2.42948
     72       0.00000           0.095967            2.61140
     73       0.00000           0.143784            3.91257
     74       0.00000           0.154421            4.20201
     75       0.00000           0.158244            4.30605
     76       0.00000           0.161638            4.39839
     77       0.00000           0.181757            4.94586
     78       0.00000           0.189860            5.16634
     79       0.00000           0.198474            5.40076
     80       0.00000           0.211396            5.75238
     81       0.00000           0.218749            5.95247
     82       0.00000           0.222946            6.06668
     83       0.00000           0.230996            6.28572
     84       0.00000           0.232828            6.33558
     85       0.00000           0.243078            6.61449
     86       0.00000           0.248500            6.76202
     87       0.00000           0.254778            6.93285
     88       0.00000           0.265456            7.22342
     89       0.00000           0.281717            7.66590
     90       0.00000           0.285398            7.76608
     91       0.00000           0.291270            7.92587
     92       0.00000           0.319198            8.68582
     93       0.00000           0.351623            9.56815
     94       0.00000           0.362518            9.86462
     95       0.00000           0.380598           10.35661
     96       0.00000           0.385845           10.49937

  Highest occupied state (VBM) at     -7.50895775 eV
  | Occupation number:      2.00000000

  Lowest unoccupied state (CBM) at    -4.50041401 eV
  | Occupation number:      0.00000000

  Overall HOMO-LUMO gap:      3.00854374 eV.

  Total energy components:
  | Sum of eigenvalues            :        -883.02304699 Ha      -24028.27965407 eV
  | XC energy correction          :        -145.67467772 Ha       -3964.00966737 eV
  | XC potential correction       :         189.69564480 Ha        5161.88112865 eV
  | Free-atom electrostatic energy:        -781.32584355 Ha      -21260.95794864 eV
  | Hartree energy correction     :          -4.80370633 Ha        -130.71549993 eV
  | Entropy correction            :          -0.00000000 Ha          -0.00000000 eV
  | ---------------------------
  | Total energy                  :       -1625.13162979 Ha      -44222.08164137 eV
  | Total energy, T -> 0          :       -1625.13162979 Ha      -44222.08164137 eV  <-- do not rely on this value for anything but (periodic) metals
  | Electronic free energy        :       -1625.13162979 Ha      -44222.08164137 eV

  Derived energy quantities:
  | Kinetic energy                :        1633.83637652 Ha       44458.94985157 eV
  | Electrostatic energy          :       -3113.29332859 Ha      -84717.02182558 eV
  | Energy correction for multipole
  | error in Hartree potential    :           0.03115149 Ha           0.84767509 eV
  | Sum of eigenvalues per atom                           :       -2002.35663784 eV
  | Total energy (T->0) per atom                          :       -3685.17347011 eV  <-- do not rely on this value for anything but (periodic) metals
  | Electronic free energy per atom                       :       -3685.17347011 eV
  Evaluating new KS density.
  Integration grid: deviation in total charge (<rho> - N_e) =   1.421085E-14

  Self-consistency convergence accuracy:
  | Change of charge density      :  0.5911E+00
  | Change of sum of eigenvalues  :  0.1257E+03 eV
  | Change of total energy        :  0.5942E+01 eV


------------------------------------------------------------
  End self-consistency iteration #     1       :  max(cpu_time)    wall_clock(cpu1)
  | Time for this iteration                     :        0.084 s           0.084 s
  | Charge density update                       :        0.028 s           0.029 s
  | Density mixing                              :        0.000 s           0.000 s
  | Hartree multipole update                    :        0.001 s           0.002 s
  | Hartree multipole summation                 :        0.017 s           0.017 s
  | Integration                                 :        0.031 s           0.031 s
  | Solution of K.-S. eqns.                     :        0.004 s           0.004 s
  | Total energy evaluation                     :        0.000 s           0.000 s

  Partial memory accounting:
  | Current value for overall tracked memory usage:
  |   Minimum:        0.273 MB (on task 23)
  |   Maximum:        0.292 MB (on task  0)
  |   Average:        0.287 MB
  | Peak value for overall tracked memory usage:
  |   Minimum:        1.348 MB (on task 21 after allocating wave)
  |   Maximum:        1.425 MB (on task  5 after allocating wave)
  |   Average:        1.381 MB
  | Largest tracked array allocation so far:
  |   Minimum:        0.739 MB (gradient_basis_wave on task  3)
  |   Maximum:        0.784 MB (gradient_basis_wave on task 22)
  |   Average:        0.754 MB
  Note:  These values currently only include a subset of arrays which are explicitly tracked.
  The "true" memory usage will be greater.
------------------------------------------------------------

------------------------------------------------------------
          Begin self-consistency iteration #    2

  Date     :  20220517, Time     :  120137.055
------------------------------------------------------------
  Pulay mixing of updated and previous charge densities.
  Renormalizing the density to the exact electron count on the 3D integration grid.
  | Formal number of electrons (from input files) :     120.0000000000
  | Integrated number of electrons on 3D grid     :     120.0000000000
  | Charge integration error                      :      -0.0000000000
  | Normalization factor for density and gradient :       1.0000000000

  Evaluating partitioned Hartree potential by multipole expansion.
  | Original multipole sum: apparent total charge =  -0.528298E-13
  | Sum of charges compensated after spline to logarithmic grids =   0.596291E-04
  | Analytical far-field extrapolation by fixed multipoles:
  | Hartree multipole sum: apparent total charge =  -0.535062E-13
  Summing up the Hartree potential.
  Time summed over all CPUs for potential: real work        0.381 s, elapsed        0.396 s
  | RMS charge density error from multipole expansion :   0.124320E-01

  Integrating Hamiltonian matrix: batch-based integration.
  Time summed over all CPUs for integration: real work        0.706 s, elapsed        0.742 s

  Updating Kohn-Sham eigenvalues and eigenvectors using ELSI and the ELPA eigensolver.
  Starting ELPA eigensolver
  Finished transformation to standard eigenproblem
  | Time :     0.000 s
  Finished solving standard eigenproblem
  | Time :     0.004 s
  Finished back-transformation of eigenvectors
  | Time :     0.000 s

  Obtaining occupation numbers and chemical potential using ELSI.
  | Chemical potential (Fermi level):    -7.66598103 eV
  Highest occupied state (VBM) at     -8.62313286 eV
  | Occupation number:      2.00000000

  Lowest unoccupied state (CBM) at    -4.72347302 eV
  | Occupation number:      0.00000000

  Overall HOMO-LUMO gap:      3.89965984 eV.

  Checking to see if s.c.f. parameters should be adjusted.

  Total energy components:
  | Sum of eigenvalues            :        -885.92047242 Ha      -24107.12261137 eV
  | XC energy correction          :        -145.19891555 Ha       -3951.06352010 eV
  | XC potential correction       :         189.06975222 Ha        5144.84972490 eV
  | Free-atom electrostatic energy:        -781.32584355 Ha      -21260.95794864 eV
  | Hartree energy correction     :          -1.69512115 Ha         -46.12659334 eV
  | Entropy correction            :           0.00000000 Ha           0.00000000 eV
  | ---------------------------
  | Total energy                  :       -1625.07060045 Ha      -44220.42094855 eV
  | Total energy, T -> 0          :       -1625.07060045 Ha      -44220.42094855 eV  <-- do not rely on this value for anything but (periodic) metals
  | Electronic free energy        :       -1625.07060045 Ha      -44220.42094855 eV

  Derived energy quantities:
  | Kinetic energy                :        1630.05740053 Ha       44356.11868280 eV
  | Electrostatic energy          :       -3109.92908543 Ha      -84625.47611125 eV
  | Energy correction for multipole
  | error in Hartree potential    :           0.03456078 Ha           0.94044671 eV
  | Sum of eigenvalues per atom                           :       -2008.92688428 eV
  | Total energy (T->0) per atom                          :       -3685.03507905 eV  <-- do not rely on this value for anything but (periodic) metals
  | Electronic free energy per atom                       :       -3685.03507905 eV
  Evaluating new KS density.
  Integration grid: deviation in total charge (<rho> - N_e) =   5.684342E-14

  Self-consistency convergence accuracy:
  | Change of charge density      :  0.4634E+00
  | Change of sum of eigenvalues  : -0.7884E+02 eV
  | Change of total energy        :  0.1661E+01 eV


------------------------------------------------------------
  End self-consistency iteration #     2       :  max(cpu_time)    wall_clock(cpu1)
  | Time for this iteration                     :        0.087 s           0.084 s
  | Charge density update                       :        0.028 s           0.029 s
  | Density mixing                              :        0.005 s           0.001 s
  | Hartree multipole update                    :        0.001 s           0.002 s
  | Hartree multipole summation                 :        0.017 s           0.017 s
  | Integration                                 :        0.031 s           0.031 s
  | Solution of K.-S. eqns.                     :        0.004 s           0.004 s
  | Total energy evaluation                     :        0.000 s           0.000 s

  Partial memory accounting:
  | Current value for overall tracked memory usage:
  |   Minimum:        0.274 MB (on task 23)
  |   Maximum:        0.293 MB (on task  0)
  |   Average:        0.288 MB
  | Peak value for overall tracked memory usage:
  |   Minimum:        1.348 MB (on task 21 after allocating wave)
  |   Maximum:        1.425 MB (on task  5 after allocating wave)
  |   Average:        1.381 MB
  | Largest tracked array allocation so far:
  |   Minimum:        0.739 MB (gradient_basis_wave on task  3)
  |   Maximum:        0.784 MB (gradient_basis_wave on task 22)
  |   Average:        0.754 MB
  Note:  These values currently only include a subset of arrays which are explicitly tracked.
  The "true" memory usage will be greater.
------------------------------------------------------------

------------------------------------------------------------
          Begin self-consistency iteration #    3

  Date     :  20220517, Time     :  120137.145
------------------------------------------------------------
  Pulay mixing of updated and previous charge densities.
  Renormalizing the density to the exact electron count on the 3D integration grid.
  | Formal number of electrons (from input files) :     120.0000000000
  | Integrated number of electrons on 3D grid     :     120.0000000000
  | Charge integration error                      :      -0.0000000000
  | Normalization factor for density and gradient :       1.0000000000

  Evaluating partitioned Hartree potential by multipole expansion.
  | Original multipole sum: apparent total charge =  -0.853772E-13
  | Sum of charges compensated after spline to logarithmic grids =   0.752566E-04
  | Analytical far-field extrapolation by fixed multipoles:
  | Hartree multipole sum: apparent total charge =  -0.863873E-13
  Summing up the Hartree potential.
  Time summed over all CPUs for potential: real work        0.382 s, elapsed        0.400 s
  | RMS charge density error from multipole expansion :   0.168863E-01

  Integrating Hamiltonian matrix: batch-based integration.
  Time summed over all CPUs for integration: real work        0.706 s, elapsed        0.742 s

  Updating Kohn-Sham eigenvalues and eigenvectors using ELSI and the ELPA eigensolver.
  Starting ELPA eigensolver
  Finished transformation to standard eigenproblem
  | Time :     0.000 s
  Finished solving standard eigenproblem
  | Time :     0.003 s
  Finished back-transformation of eigenvectors
  | Time :     0.000 s

  Obtaining occupation numbers and chemical potential using ELSI.
  | Chemical potential (Fermi level):    -7.62930221 eV
  Highest occupied state (VBM) at     -8.17428554 eV
  | Occupation number:      2.00000000

  Lowest unoccupied state (CBM) at    -4.97401783 eV
  | Occupation number:      0.00000000

  Overall HOMO-LUMO gap:      3.20026771 eV.

  Total energy components:
  | Sum of eigenvalues            :        -886.89621434 Ha      -24133.67390010 eV
  | XC energy correction          :        -145.16227566 Ha       -3950.06649799 eV
  | XC potential correction       :         189.02041854 Ha        5143.50728738 eV
  | Free-atom electrostatic energy:        -781.32584355 Ha      -21260.95794864 eV
  | Hartree energy correction     :          -0.70554285 Ha         -19.19879789 eV
  | Entropy correction            :           0.00000000 Ha           0.00000000 eV
  | ---------------------------
  | Total energy                  :       -1625.06945787 Ha      -44220.38985724 eV
  | Total energy, T -> 0          :       -1625.06945787 Ha      -44220.38985724 eV  <-- do not rely on this value for anything but (periodic) metals
  | Electronic free energy        :       -1625.06945787 Ha      -44220.38985724 eV

  Derived energy quantities:
  | Kinetic energy                :        1628.39242944 Ha       44310.81251436 eV
  | Electrostatic energy          :       -3108.29961164 Ha      -84581.13587361 eV
  | Energy correction for multipole
  | error in Hartree potential    :           0.04633505 Ha           1.26084083 eV
  | Sum of eigenvalues per atom                           :       -2011.13949168 eV
  | Total energy (T->0) per atom                          :       -3685.03248810 eV  <-- do not rely on this value for anything but (periodic) metals
  | Electronic free energy per atom                       :       -3685.03248810 eV
  Evaluating new KS density.
  Integration grid: deviation in total charge (<rho> - N_e) =   5.684342E-14

  Self-consistency convergence accuracy:
  | Change of charge density      :  0.1242E+00
  | Change of sum of eigenvalues  : -0.2655E+02 eV
  | Change of total energy        :  0.3109E-01 eV


------------------------------------------------------------
  End self-consistency iteration #     3       :  max(cpu_time)    wall_clock(cpu1)
  | Time for this iteration                     :        0.086 s           0.084 s
  | Charge density update                       :        0.028 s           0.028 s
  | Density mixing                              :        0.004 s           0.001 s
  | Hartree multipole update                    :        0.001 s           0.002 s
  | Hartree multipole summation                 :        0.017 s           0.017 s
  | Integration                                 :        0.031 s           0.031 s
  | Solution of K.-S. eqns.                     :        0.004 s           0.004 s
  | Total energy evaluation                     :        0.000 s           0.001 s

  Partial memory accounting:
  | Current value for overall tracked memory usage:
  |   Minimum:        0.274 MB (on task 23)
  |   Maximum:        0.293 MB (on task  0)
  |   Average:        0.288 MB
  | Peak value for overall tracked memory usage:
  |   Minimum:        1.348 MB (on task 21 after allocating wave)
  |   Maximum:        1.425 MB (on task  5 after allocating wave)
  |   Average:        1.381 MB
  | Largest tracked array allocation so far:
  |   Minimum:        0.739 MB (gradient_basis_wave on task  3)
  |   Maximum:        0.784 MB (gradient_basis_wave on task 22)
  |   Average:        0.754 MB
  Note:  These values currently only include a subset of arrays which are explicitly tracked.
  The "true" memory usage will be greater.
------------------------------------------------------------

------------------------------------------------------------
          Begin self-consistency iteration #    4

  Date     :  20220517, Time     :  120137.235
------------------------------------------------------------
  Pulay mixing of updated and previous charge densities.
  Renormalizing the density to the exact electron count on the 3D integration grid.
  | Formal number of electrons (from input files) :     120.0000000000
  | Integrated number of electrons on 3D grid     :     120.0000000000
  | Charge integration error                      :       0.0000000000
  | Normalization factor for density and gradient :       1.0000000000

  Evaluating partitioned Hartree potential by multipole expansion.
  | Original multipole sum: apparent total charge =  -0.671826E-14
  | Sum of charges compensated after spline to logarithmic grids =   0.814875E-04
  | Analytical far-field extrapolation by fixed multipoles:
  | Hartree multipole sum: apparent total charge =  -0.747464E-14
  Summing up the Hartree potential.
  Time summed over all CPUs for potential: real work        0.381 s, elapsed        0.396 s
  | RMS charge density error from multipole expansion :   0.189061E-01

  Integrating Hamiltonian matrix: batch-based integration.
  Time summed over all CPUs for integration: real work        0.706 s, elapsed        0.742 s

  Updating Kohn-Sham eigenvalues and eigenvectors using ELSI and the ELPA eigensolver.
  Starting ELPA eigensolver
  Finished transformation to standard eigenproblem
  | Time :     0.001 s
  Finished solving standard eigenproblem
  | Time :     0.003 s
  Finished back-transformation of eigenvectors
  | Time :     0.000 s

  Obtaining occupation numbers and chemical potential using ELSI.
  | Chemical potential (Fermi level):    -7.64771625 eV
  Highest occupied state (VBM) at     -8.21183314 eV
  | Occupation number:      2.00000000

  Lowest unoccupied state (CBM) at    -4.95245380 eV
  | Occupation number:      0.00000000

  Overall HOMO-LUMO gap:      3.25937934 eV.

  Total energy components:
  | Sum of eigenvalues            :        -887.02250933 Ha      -24137.11056148 eV
  | XC energy correction          :        -145.14585657 Ha       -3949.61971180 eV
  | XC potential correction       :         188.99819076 Ha        5142.90243851 eV
  | Free-atom electrostatic energy:        -781.32584355 Ha      -21260.95794864 eV
  | Hartree energy correction     :          -0.57123979 Ha         -15.54422569 eV
  | Entropy correction            :           0.00000000 Ha           0.00000000 eV
  | ---------------------------
  | Total energy                  :       -1625.06725849 Ha      -44220.33000909 eV
  | Total energy, T -> 0          :       -1625.06725849 Ha      -44220.33000909 eV  <-- do not rely on this value for anything but (periodic) metals
  | Electronic free energy        :       -1625.06725849 Ha      -44220.33000909 eV

  Derived energy quantities:
  | Kinetic energy                :        1627.72730611 Ha       44292.71358777 eV
  | Electrostatic energy          :       -3107.64870803 Ha      -84563.42388506 eV
  | Energy correction for multipole
  | error in Hartree potential    :           0.05123755 Ha           1.39424454 eV
  | Sum of eigenvalues per atom                           :       -2011.42588012 eV
  | Total energy (T->0) per atom                          :       -3685.02750076 eV  <-- do not rely on this value for anything but (periodic) metals
  | Electronic free energy per atom                       :       -3685.02750076 eV
  Evaluating new KS density.
  Integration grid: deviation in total charge (<rho> - N_e) =   7.105427E-14

  Self-consistency convergence accuracy:
  | Change of charge density      :  0.8375E-01
  | Change of sum of eigenvalues  : -0.3437E+01 eV
  | Change of total energy        :  0.5985E-01 eV


------------------------------------------------------------
  End self-consistency iteration #     4       :  max(cpu_time)    wall_clock(cpu1)
  | Time for this iteration                     :        0.086 s           0.084 s
  | Charge density update                       :        0.028 s           0.028 s
  | Density mixing                              :        0.004 s           0.002 s
  | Hartree multipole update                    :        0.001 s           0.001 s
  | Hartree multipole summation                 :        0.017 s           0.017 s
  | Integration                                 :        0.031 s           0.031 s
  | Solution of K.-S. eqns.                     :        0.004 s           0.005 s
  | Total energy evaluation                     :        0.000 s           0.000 s

  Partial memory accounting:
  | Current value for overall tracked memory usage:
  |   Minimum:        0.274 MB (on task 23)
  |   Maximum:        0.293 MB (on task  0)
  |   Average:        0.288 MB
  | Peak value for overall tracked memory usage:
  |   Minimum:        1.348 MB (on task 21 after allocating wave)
  |   Maximum:        1.425 MB (on task  5 after allocating wave)
  |   Average:        1.381 MB
  | Largest tracked array allocation so far:
  |   Minimum:        0.739 MB (gradient_basis_wave on task  3)
  |   Maximum:        0.784 MB (gradient_basis_wave on task 22)
  |   Average:        0.754 MB
  Note:  These values currently only include a subset of arrays which are explicitly tracked.
  The "true" memory usage will be greater.
------------------------------------------------------------

------------------------------------------------------------
          Begin self-consistency iteration #    5

  Date     :  20220517, Time     :  120137.325
------------------------------------------------------------
  Pulay mixing of updated and previous charge densities.
  Renormalizing the density to the exact electron count on the 3D integration grid.
  | Formal number of electrons (from input files) :     120.0000000000
  | Integrated number of electrons on 3D grid     :     120.0000000000
  | Charge integration error                      :       0.0000000000
  | Normalization factor for density and gradient :       1.0000000000

  Evaluating partitioned Hartree potential by multipole expansion.
  | Original multipole sum: apparent total charge =  -0.174367E-13
  | Sum of charges compensated after spline to logarithmic grids =   0.822127E-04
  | Analytical far-field extrapolation by fixed multipoles:
  | Hartree multipole sum: apparent total charge =  -0.172891E-13
  Summing up the Hartree potential.
  Time summed over all CPUs for potential: real work        0.381 s, elapsed        0.397 s
  | RMS charge density error from multipole expansion :   0.187367E-01

  Integrating Hamiltonian matrix: batch-based integration.
  Time summed over all CPUs for integration: real work        0.706 s, elapsed        0.741 s

  Updating Kohn-Sham eigenvalues and eigenvectors using ELSI and the ELPA eigensolver.
  Starting ELPA eigensolver
  Finished transformation to standard eigenproblem
  | Time :     0.000 s
  Finished solving standard eigenproblem
  | Time :     0.003 s
  Finished back-transformation of eigenvectors
  | Time :     0.000 s

  Obtaining occupation numbers and chemical potential using ELSI.
  | Chemical potential (Fermi level):    -7.63541889 eV
  Highest occupied state (VBM) at     -8.29686561 eV
  | Occupation number:      2.00000000

  Lowest unoccupied state (CBM) at    -4.88692926 eV
  | Occupation number:      0.00000000

  Overall HOMO-LUMO gap:      3.40993636 eV.

  Total energy components:
  | Sum of eigenvalues            :        -886.82954503 Ha      -24131.85973579 eV
  | XC energy correction          :        -145.14317476 Ha       -3949.54673604 eV
  | XC potential correction       :         188.99482657 Ha        5142.81089441 eV
  | Free-atom electrostatic energy:        -781.32584355 Ha      -21260.95794864 eV
  | Hartree energy correction     :          -0.76338193 Ha         -20.77267933 eV
  | Entropy correction            :           0.00000000 Ha           0.00000000 eV
[...]
   Total forces(   7)            : -0.366630E+00  0.254067E+01 -0.199119E+00
  atom #    8
   Hellmann-Feynman              :  0.748999E+00 -0.810796E+00  0.591534E+00
   Ionic forces                  :  0.000000E+00  0.000000E+00  0.000000E+00
   Multipole                     :  0.405241E+00 -0.295860E+00 -0.136263E-01
   Hartree pot. SCF incomplete   :  0.499081E-05 -0.398515E-05 -0.510353E-05
   Pulay + GGA                   : -0.307732E+01  0.274054E+01 -0.370483E+00
   ----------------------------------------------------------------
   Total forces(   8)            : -0.192307E+01  0.163388E+01  0.207420E+00
  atom #    9
   Hellmann-Feynman              : -0.580114E+00  0.489541E+00 -0.317363E+01
   Ionic forces                  :  0.000000E+00  0.000000E+00  0.000000E+00
   Multipole                     : -0.166783E+00  0.126806E+00 -0.861031E+00
   Hartree pot. SCF incomplete   : -0.180667E-05 -0.681277E-07 -0.205959E-05
   Pulay + GGA                   :  0.141725E+01 -0.113245E+01  0.753413E+01
   ----------------------------------------------------------------
   Total forces(   9)            :  0.670347E+00 -0.516106E+00  0.349947E+01
  atom #   10
   Hellmann-Feynman              : -0.320249E+00  0.740173E+00  0.676384E+00
   Ionic forces                  :  0.000000E+00  0.000000E+00  0.000000E+00
   Multipole                     :  0.290756E-01  0.478309E+00  0.122805E+00
   Hartree pot. SCF incomplete   : -0.102544E-05  0.813796E-05 -0.352688E-05
   Pulay + GGA                   :  0.240136E+00 -0.357305E+01 -0.157370E+01
   ----------------------------------------------------------------
   Total forces(  10)            : -0.510379E-01 -0.235456E+01 -0.774519E+00
  atom #   11
   Hellmann-Feynman              :  0.311088E+01  0.112009E+01  0.112813E+01
   Ionic forces                  :  0.000000E+00  0.000000E+00  0.000000E+00
   Multipole                     :  0.746067E+00  0.306905E+00  0.236473E+00
   Hartree pot. SCF incomplete   :  0.234675E-05  0.735974E-06  0.178558E-05
   Pulay + GGA                   : -0.673181E+01 -0.246946E+01 -0.253605E+01
   ----------------------------------------------------------------
   Total forces(  11)            : -0.287486E+01 -0.104246E+01 -0.117144E+01
  atom #   12
   Hellmann-Feynman              :  0.460740E-01 -0.705442E-01 -0.330357E+00
   Ionic forces                  :  0.000000E+00  0.000000E+00  0.000000E+00
   Multipole                     : -0.372453E+00 -0.214395E+00  0.192651E+00
   Hartree pot. SCF incomplete   : -0.439579E-05 -0.168671E-05 -0.278652E-05
   Pulay + GGA                   :  0.180131E+01  0.998355E+00 -0.294848E+00
   ----------------------------------------------------------------
   Total forces(  12)            :  0.147493E+01  0.713413E+00 -0.432557E+00


  Self-consistency convergence accuracy:
  | Change of charge density      :  0.2911E-06
  | Change of sum of eigenvalues  :  0.5322E-05 eV
  | Change of total energy        :  0.7177E-09 eV
  | Change of forces              :  0.6524E-06 eV/A

  Writing Kohn-Sham eigenvalues.

  State    Occupation    Eigenvalue [Ha]    Eigenvalue [eV]
      1       2.00000         -55.670410        -1514.86892
      2       2.00000         -55.643013        -1514.12342
      3       2.00000         -55.601574        -1512.99582
      4       2.00000         -24.323094         -661.86506
      5       2.00000         -24.314643         -661.63510
      6       2.00000         -24.307580         -661.44290
      7       2.00000         -24.281781         -660.74087
      8       2.00000         -24.271784         -660.46885
      9       2.00000         -24.245511         -659.75391
     10       2.00000         -24.218903         -659.02989
     11       2.00000         -24.164854         -657.55914
     12       2.00000         -24.164238         -657.54237
     13       2.00000          -4.122855         -112.18859
     14       2.00000          -4.094726         -111.42318
     15       2.00000          -4.051875         -110.25712
     16       2.00000          -2.715827          -73.90141
     17       2.00000          -2.714868          -73.87531
     18       2.00000          -2.712638          -73.81463
     19       2.00000          -2.687888          -73.14114
     20       2.00000          -2.686274          -73.09724
     21       2.00000          -2.684767          -73.05624
     22       2.00000          -2.646808          -72.02332
     23       2.00000          -2.643362          -71.92953
     24       2.00000          -2.640058          -71.83964
     25       2.00000          -1.198480          -32.61231
     26       2.00000          -1.182476          -32.17682
     27       2.00000          -1.164990          -31.70099
     28       2.00000          -1.148408          -31.24978
     29       2.00000          -1.125783          -30.63411
     30       2.00000          -1.091701          -29.70669
     31       2.00000          -1.066728          -29.02714
     32       2.00000          -1.011682          -27.52926
     33       2.00000          -1.004945          -27.34595
     34       2.00000          -0.584384          -15.90189
     35       2.00000          -0.570513          -15.52446
     36       2.00000          -0.545737          -14.85027
     37       2.00000          -0.521971          -14.20356
     38       2.00000          -0.517324          -14.07711
     39       2.00000          -0.501429          -13.64458
     40       2.00000          -0.498225          -13.55739
     41       2.00000          -0.495278          -13.47720
     42       2.00000          -0.482313          -13.12439
     43       2.00000          -0.476163          -12.95705
     44       2.00000          -0.462285          -12.57940
     45       2.00000          -0.452684          -12.31817
     46       2.00000          -0.451129          -12.27584
     47       2.00000          -0.438010          -11.91886
     48       2.00000          -0.432677          -11.77374
     49       2.00000          -0.423811          -11.53249
     50       2.00000          -0.411300          -11.19204
     51       2.00000          -0.397480          -10.81599
     52       2.00000          -0.396467          -10.78841
     53       2.00000          -0.382720          -10.41434
     54       2.00000          -0.372219          -10.12860
     55       2.00000          -0.371939          -10.12098
     56       2.00000          -0.353849           -9.62872
     57       2.00000          -0.323056           -8.79080
     58       2.00000          -0.319701           -8.69951
     59       2.00000          -0.313973           -8.54364
     60       2.00000          -0.304042           -8.27342
     61       0.00000          -0.179640           -4.88825
     62       0.00000          -0.118184           -3.21595
     63       0.00000          -0.081115           -2.20725
     64       0.00000          -0.074057           -2.01518
     65       0.00000          -0.062886           -1.71122
     66       0.00000          -0.030633           -0.83357
     67       0.00000           0.015965            0.43443
     68       0.00000           0.018986            0.51665
     69       0.00000           0.035039            0.95345
     70       0.00000           0.065088            1.77113
     71       0.00000           0.086426            2.35177
     72       0.00000           0.092668            2.52162
     73       0.00000           0.134774            3.66739
     74       0.00000           0.146875            3.99667
     75       0.00000           0.150224            4.08781
     76       0.00000           0.157016            4.27263
     77       0.00000           0.176446            4.80135
     78       0.00000           0.183377            4.98993
     79       0.00000           0.196858            5.35678
     80       0.00000           0.209010            5.68746
     81       0.00000           0.213877            5.81988
     82       0.00000           0.216625            5.89466
     83       0.00000           0.225145            6.12651
     84       0.00000           0.229432            6.24316
     85       0.00000           0.238617            6.49310
     86       0.00000           0.243832            6.63501
     87       0.00000           0.249072            6.77759
     88       0.00000           0.258715            7.03998
     89       0.00000           0.278577            7.58048
     90       0.00000           0.283246            7.70751
     91       0.00000           0.286614            7.79917
     92       0.00000           0.317130            8.62955
     93       0.00000           0.344453            9.37303
     94       0.00000           0.356621            9.70415
     95       0.00000           0.368564           10.02915
     96       0.00000           0.376307           10.23984

  Highest occupied state (VBM) at     -8.27341552 eV
  | Occupation number:      2.00000000

  Lowest unoccupied state (CBM) at    -4.88825414 eV
  | Occupation number:      0.00000000

  Overall HOMO-LUMO gap:      3.38516138 eV.
  | Chemical Potential                          :    -7.63252363 eV

  Self-consistency cycle converged.


------------------------------------------------------------
  End self-consistency iteration #    14       :  max(cpu_time)    wall_clock(cpu1)
  | Time for this iteration                     :        0.276 s           0.274 s
  | Charge density & force component update     :        0.153 s           0.153 s
  | Density mixing                              :        0.005 s           0.002 s
  | Hartree multipole update                    :        0.001 s           0.001 s
  | Hartree multipole summation                 :        0.050 s           0.050 s
  | Hartree pot. SCF incomplete forces          :        0.031 s           0.032 s
  | Integration                                 :        0.031 s           0.031 s
  | Solution of K.-S. eqns.                     :        0.004 s           0.004 s
  | Total energy evaluation                     :        0.000 s           0.000 s

  Partial memory accounting:
  | Current value for overall tracked memory usage:
  |   Minimum:        0.274 MB (on task 23)
  |   Maximum:        0.293 MB (on task  0)
  |   Average:        0.289 MB
  | Peak value for overall tracked memory usage:
  |   Minimum:        3.014 MB (on task 21 after allocating hessian_basis_wave)
  |   Maximum:        3.165 MB (on task 22 after allocating hessian_basis_wave)
  |   Average:        3.073 MB
  | Largest tracked array allocation so far:
  |   Minimum:        1.477 MB (hessian_basis_wave on task  3)
  |   Maximum:        1.568 MB (hessian_basis_wave on task 22)
  |   Average:        1.508 MB
  Note:  These values currently only include a subset of arrays which are explicitly tracked.
  The "true" memory usage will be greater.
------------------------------------------------------------
  Removing unitary transformations (pure translations, rotations) from forces on atoms.
  Atomic forces before filtering:
  | Net force on center of mass :  -0.899487E-02 -0.666760E-02 -0.310220E-02 eV/A
  | Net torque on center of mass:  -0.488751E-03 -0.105709E-02  0.156536E-02 eV
  Atomic forces after filtering:
  | Net force on center of mass :   0.356812E-15  0.178406E-15  0.115964E-14 eV/A
  | Net torque on center of mass:  -0.566451E-15 -0.113290E-14 -0.755268E-15 eV

  Energy and forces in a compact form:
  | Total energy uncorrected      :         -0.442203258834316E+05 eV
  | Total energy corrected        :         -0.442203258834316E+05 eV  <-- do not rely on this value for anything but (periodic) metals
  | Electronic free energy        :         -0.442203258834316E+05 eV
  Total atomic forces (unitary forces cleaned) [eV/Ang]:
  |    1         -0.340252585155565E+01         -0.181133136520788E+01          0.129818091028836E+01
  |    2          0.244299241623337E+01          0.429668342996705E+00          0.189272435694500E+01
  |    3         -0.119839811969263E+00          0.484980890763889E+00         -0.263552758476869E+01
  |    4          0.959306873783572E+00         -0.164796279173614E+01         -0.109962937102203E+01
  |    5          0.240444371288913E+01         -0.171753255531770E+01         -0.401265885920552E+00
  |    6          0.781501490094930E+00          0.328412306418275E+01         -0.185193391598043E+00
  |    7         -0.365913452979730E+00          0.254117991562060E+01         -0.198901400668640E+00
  |    8         -0.192237354760686E+01          0.163439002539499E+01          0.207627499994408E+00
  |    9          0.671036446756014E+00         -0.515478825894740E+00          0.349974049021062E+01
  |   10         -0.502306540088460E-01         -0.235402356276987E+01         -0.774243876506987E+00
  |   11         -0.287403916602081E+01         -0.104204853953178E+01         -0.117123572072186E+01
  |   12          0.147564154438414E+01          0.714035401499170E+00         -0.432276026231587E+00

  ------------------------------------ 
  Start decomposition of the XC Energy 
  ------------------------------------ 
  X and C from original XC functional choice 
  Hartree-Fock Energy :          0.000000000 Ha              0.000000000 eV
  X Energy            :       -140.192826716 Ha          -3814.840911911 eV
  C Energy            :         -4.954232237 Ha           -134.811518308 eV
  Total XC Energy     :       -145.147058953 Ha          -3949.652430218 eV
  ------------------------------------ 
  LDA X and C from self-consistent density 
  X Energy LDA        :       -132.779907376 Ha          -3613.125113487 eV
  C Energy LDA        :         -8.826737768 Ha           -240.187755287 eV
  ------------------------------------ 
  End decomposition of the XC Energy 
  ------------------------------------ 

------------------------------------------------------------

------------------------------------------------------------------------------
  Final output of selected total energy values:

  The following output summarizes some interesting total energy values
  at the end of a run (AFTER all relaxation, molecular dynamics, etc.).

  | Total energy of the DFT / Hartree-Fock s.c.f. calculation      :         -44220.325883432 eV
  | Final zero-broadening corrected energy (caution - metals only) :         -44220.325883432 eV
  | For reference only, the value of 1 Hartree used in FHI-aims is :             27.211384500 eV

  Before relying on these values, please be sure to understand exactly which
  total energy value is referred to by a given number. Different objects may
  all carry the same name 'total energy'. Definitions:

  Total energy of the DFT / Hartree-Fock s.c.f. calculation:
  | Note that this energy does not include ANY quantities calculated after the
  | s.c.f. cycle, in particular not ANY RPA, MP2, etc. many-body perturbation terms.

  Final zero-broadening corrected energy:
  | For metallic systems only, a broadening of the occupation numbers at the Fermi
  | level can be extrapolated back to zero broadening by an electron-gas inspired
  | formula. For all systems that are not real metals, this value can be
  | meaningless and should be avoided.

------------------------------------------------------------------------------
  Methods described in the following list of references were used in this FHI-aims run.
  If you publish the results, please make sure to cite these reference if they apply.
  FHI-aims is an academic code, and for our developers (often, Ph.D. students
  and postdocs), scientific credit in the community is essential.
  Thank you for helping us!

  For any use of FHI-aims, please cite:

    Volker Blum, Ralf Gehrke, Felix Hanke, Paula Havu, Ville Havu,
    Xinguo Ren, Karsten Reuter, and Matthias Scheffler
    'Ab initio molecular simulations with numeric atom-centered orbitals'
    Computer Physics Communications 180, 2175-2196 (2009)
    http://dx.doi.org/10.1016/j.cpc.2009.06.022


  The ELSI infrastructure was used in your run to solve the Kohn-Sham electronic structure.
  Please check out http://elsi-interchange.org to learn more.
  If scalability is important for your project, please acknowledge ELSI by citing:

    V. W-z. Yu, F. Corsetti, A. Garcia, W. P. Huhn, M. Jacquelin, W. Jia,
    B. Lange, L. Lin, J. Lu, W. Mi, A. Seifitokaldani, A. Vazquez-Mayagoitia,
    C. Yang, H. Yang, and V. Blum
    'ELSI: A unified software interface for Kohn-Sham electronic structure solvers'
    Computer Physics Communications 222, 267-285 (2018).
    http://dx.doi.org/10.1016/j.cpc.2017.09.007


  For the real-space grid partitioning and parallelization used in this calculation, please cite:

    Ville Havu, Volker Blum, Paula Havu, and Matthias Scheffler,
    'Efficient O(N) integration for all-electron electronic structure calculation'
    'using numerically tabulated basis functions'
    Journal of Computational Physics 228, 8367-8379 (2009).
    http://dx.doi.org/10.1016/j.jcp.2009.08.008

  Of course, there are many other important community references, e.g., those cited in the
  above references. Our list is limited to references that describe implementations in the
  FHI-aims code. The reason is purely practical (length of this list) - please credit others as well.

------------------------------------------------------------
          Leaving FHI-aims.
          Date     :  20220517, Time     :  120138.622

          Computational steps:
          | Number of self-consistency cycles          :           14
          | Number of SCF (re)initializations          :            1

          Detailed time accounting                     :  max(cpu_time)    wall_clock(cpu1)
          | Total time                                  :        1.982 s          15.755 s
          | Preparation time                            :        0.185 s           0.186 s
          | Boundary condition initalization            :        0.000 s           0.000 s
          | Grid partitioning                           :        0.039 s           0.040 s
          | Preloading free-atom quantities on grid     :        0.016 s           0.016 s
          | Free-atom superposition energy              :        0.005 s           0.005 s
          | Total time for integrations                 :        0.486 s           0.483 s
          | Total time for solution of K.-S. equations  :        0.070 s           0.069 s
          | Total time for density & force components   :        0.678 s           0.677 s
          | Total time for mixing                       :        0.056 s           0.026 s
          | Total time for Hartree multipole update     :        0.019 s           0.023 s
          | Total time for Hartree multipole sum        :        0.301 s           0.302 s
          | Total time for total energy evaluation      :        0.002 s           0.001 s
          | Total time NSC force correction             :        0.063 s           0.064 s
          | Total time for scaled ZORA corrections      :        0.000 s           0.000 s

          Partial memory accounting:
          | Residual value for overall tracked memory usage across tasks:     0.000000 MB (should be 0.000000 MB)
          | Peak values for overall tracked memory usage:
          |   Minimum:        3.014 MB (on task 21 after allocating hessian_basis_wave)
          |   Maximum:        3.165 MB (on task 22 after allocating hessian_basis_wave)
          |   Average:        3.073 MB
          | Largest tracked array allocation:
          |   Minimum:        1.477 MB (hessian_basis_wave on task  3)
          |   Maximum:        1.568 MB (hessian_basis_wave on task 22)
          |   Average:        1.508 MB
          Note:  These values currently only include a subset of arrays which are explicitly tracked.
          The "true" memory usage will be greater.

          Have a nice day.
------------------------------------------------------------
