********************************************************************************
*                       GENERAL UTILITY LATTICE PROGRAM                        *
*                                 Julian Gale                                  *
*                       Curtin Institute for Computation                       *
*                           Department of Chemistry                            *
*                    Curtin University, Western Australia                      *
********************************************************************************
* Version = 5.1.1 * Last modified =  24th November 2018                        *
********************************************************************************
*  optimise     - perform optimisation run                                     *
*  conp         - constant pressure calculation                                *
*  shell        - only shells and radii to be optimised                        *
*  phonon       - calculate phonons for final geometry                         *
*  eigenvectors - output phonon eigenvectors                                   *
********************************************************************************

  Job Started  at 14:39.17 25th May        2022                               

  Number of CPUs =     1

  Host name      = login03                                 


  Total number of configurations input =      1

********************************************************************************
*  Input for Configuration =   1                                               *
********************************************************************************

  Formula = Al3F9                                                       

  Number of irreducible atoms/shells =      21


  Total number atoms/shells =      21

  Dimensionality = 0               :  Cluster


  Charge on cluster =  -0.000000


  Initial cluster dipoles : x =      0.689319 e.Angs
                            y =      0.154319 e.Angs
                            z =     -0.896381 e.Angs

  Temperature of configuration =  0.000     K 

  Symmetry number =      1

  Cartesian coordinates of cluster :

--------------------------------------------------------------------------------
   No.  Atomic       x           y          z         Charge      Occupancy
        Label      (Angs)      (Angs)     (Angs)        (e)         (Frac)  
--------------------------------------------------------------------------------
      1 Al    c     -0.0773      1.6236      2.1545     3.00000    1.000000    
      2 Al    c      2.5089      2.5721      1.7448     3.00000    1.000000    
      3 Al    c      1.3534      2.6857     -0.6691     3.00000    1.000000    
      4 F     c      1.0252      3.0038      2.9099     0.59000    1.000000    
      5 F     c     -1.5784      2.6736      1.9344     0.59000    1.000000    
      6 F     c     -0.4435      0.0998      3.1756     0.59000    1.000000    
      7 F     c      1.7637      0.8380      1.7725     0.59000    1.000000    
      8 F     c      3.0124      1.9478     -0.1269     0.59000    1.000000    
      9 F     c      1.1283      3.1520     -2.4002     0.59000    1.000000    
     10 F     c      1.6532      3.9882      0.6949     0.59000    1.000000    
     11 F     c      4.0945      3.0504      2.4815     0.59000    1.000000    
     12 F     c      0.0102      1.7362      0.1452     0.59000    1.000000    
     13 F     s      1.0252 *    3.0038 *    2.9099 *  -1.59000    1.000000    
     14 F     s     -1.5784 *    2.6736 *    1.9344 *  -1.59000    1.000000    
     15 F     s     -0.4435 *    0.0998 *    3.1756 *  -1.59000    1.000000    
     16 F     s      1.7637 *    0.8380 *    1.7725 *  -1.59000    1.000000    
     17 F     s      3.0124 *    1.9478 *   -0.1269 *  -1.59000    1.000000    
     18 F     s      1.1283 *    3.1520 *   -2.4002 *  -1.59000    1.000000    
     19 F     s      1.6532 *    3.9882 *    0.6949 *  -1.59000    1.000000    
     20 F     s      4.0945 *    3.0504 *    2.4815 *  -1.59000    1.000000    
     21 F     s      0.0102 *    1.7362 *    0.1452 *  -1.59000    1.000000    
--------------------------------------------------------------------------------


  Brillouin zone sampling points :

--------------------------------------------------------------------------------
  Point number          x          y          z            Weight
--------------------------------------------------------------------------------
        1           0.000000   0.000000   0.000000     1.00000000
--------------------------------------------------------------------------------


********************************************************************************
*  General input information                                                   *
********************************************************************************

  Species output for all configurations : 

--------------------------------------------------------------------------------
  Species    Type    Atomic    Atomic    Charge       Radii (Angs)     Library
                     Number     Mass       (e)     Cova   Ionic  VDW   Symbol
--------------------------------------------------------------------------------
    Al       Core       13      26.98   3.000000   1.350  0.000  2.050          
    F        Core        9      19.00   0.590000   0.710  0.000  1.300          
    F        Shell       9       0.00  -1.590000   0.710  0.000  1.300          
--------------------------------------------------------------------------------


  Accuracy factor for short range sums = 12.000

  Time limit = Infinity

  Maximum range for interatomic potentials =    100000.000000 Angstroms

  General interatomic potentials :

--------------------------------------------------------------------------------
Atom  Types   Potential      Parameter       Value         Units   Cutoffs(Ang)
  1     2                                                            Min /  Max 
--------------------------------------------------------------------------------
Al   c F    s Buckingham    Buckingham A     3760.0008    eV        0.000 10.000
                            Buckingham rho  0.22200000    Ang       
                            Buckingham C     0.0000000    eV*Ang^6  
--------------------------------------------------------------------------------
F    s F    s Buck 4 range  Buck4 A          1127.7000    eV        0.000 12.000
                            Buck4 rho       0.27530000    Ang       
                            Buck4 C          15.830000    eV*Ang^6  
                            Buck4 minimum    2.7900000    Ang       
--------------------------------------------------------------------------------
F    c F    s Spring (c-s)  Spring k 2       20.770000    eV*Ang^-2 0.000  0.800
                            Spring k 4       0.0000000    eV*Ang^-4 
--------------------------------------------------------------------------------

********************************************************************************
*  Output for configuration   1                                                *
********************************************************************************


  Components of energy : 

--------------------------------------------------------------------------------
  Interatomic potentials     =           9.94254189 eV    
  Monopole - monopole (real) =        -177.43925694 eV    
--------------------------------------------------------------------------------
  Total lattice energy       =        -167.49671505 eV    
--------------------------------------------------------------------------------
  Total lattice energy       =          -16160.8726 kJ/mol
--------------------------------------------------------------------------------


  Number of variables =       27

  Maximum number of calculations  =          2000
  Maximum Hessian update interval =            10
  Maximum step size               =   1.000000000
  Maximum parameter tolerance     =   0.000001000
  Maximum function  tolerance     =   0.000010000
  Maximum gradient  tolerance     =   0.000000010
  Maximum gradient  component     =   0.010000000

  Symmetry not applied to optimisation

  Newton-Raphson optimiser to be used

  BFGS hessian update to be used

  Lower half triangular hessian to be used

  Minimiser to switch to RFO
  When gradient norm is less than     0.010000

  Shell only optimisation

  Start of cluster optimisation :

  Cycle:      0 Energy:      -167.496715  Gnorm:      1.496531  CPU:    0.004
  ** Hessian calculated **
  Cycle:      1 Energy:      -184.792704  Gnorm:      0.599955  CPU:    0.006
  ** Hessian calculated **
  Cycle:      2 Energy:      -186.323201  Gnorm:      0.031985  CPU:    0.008
  Cycle:      3 Energy:      -186.329029  Gnorm:      0.004863  CPU:    0.010
  ** Hessian has required structure
  Cycle:      4 Energy:      -186.329176  Gnorm:      0.001249  CPU:    0.012
  ** Hessian has required structure
  Cycle:      5 Energy:      -186.329189  Gnorm:      0.000485  CPU:    0.014
  ** Hessian has required structure
  Cycle:      6 Energy:      -186.329190  Gnorm:      0.000270  CPU:    0.015
  ** Hessian has required structure
  Cycle:      7 Energy:      -186.329191  Gnorm:      0.000182  CPU:    0.017
  ** Hessian has required structure
  Cycle:      8 Energy:      -186.329191  Gnorm:      0.000093  CPU:    0.018
  ** Hessian has required structure
  Cycle:      9 Energy:      -186.329191  Gnorm:      0.000061  CPU:    0.020
  ** Hessian has required structure
  Cycle:     10 Energy:      -186.329191  Gnorm:      0.000037  CPU:    0.022
  ** Hessian has required structure
  Cycle:     11 Energy:      -186.329191  Gnorm:      0.000029  CPU:    0.023
  ** Hessian has required structure
  Cycle:     12 Energy:      -186.329191  Gnorm:      0.000000  CPU:    0.025
  ** Hessian has required structure
  Cycle:     13 Energy:      -186.329191  Gnorm:      0.000000  CPU:    0.027
  ** Hessian has required structure
  Cycle:     14 Energy:      -186.329191  Gnorm:      0.000000  CPU:    0.028
  ** Hessian has required structure

  XYZ File written as 004/1/sp_mod_-60/sp_mod_-60_eig.xyz



  **** Optimisation achieved ****


  Final energy =    -186.32919090 eV
  Final Gnorm  =       0.00000000

  Components of energy : 

--------------------------------------------------------------------------------
  Interatomic potentials     =          37.45364341 eV    
  Monopole - monopole (real) =        -223.78283431 eV    
--------------------------------------------------------------------------------
  Total lattice energy       =        -186.32919090 eV    
--------------------------------------------------------------------------------
  Total lattice energy       =          -17977.9186 kJ/mol
--------------------------------------------------------------------------------

  Final cartesian coordinates of atoms :

--------------------------------------------------------------------------------
   No.  Atomic        x           y          z          Radius
        Label       (Angs)      (Angs)     (Angs)       (Angs) 
--------------------------------------------------------------------------------
     1  Al    c    -0.077289    1.623583    2.154529    0.000000
     2  Al    c     2.508861    2.572102    1.744827    0.000000
     3  Al    c     1.353415    2.685695   -0.669136    0.000000
     4  F     c     1.025218    3.003848    2.909876    0.000000
     5  F     c    -1.578354    2.673636    1.934370    0.000000
     6  F     c    -0.443459    0.099782    3.175649    0.000000
     7  F     c     1.763672    0.837975    1.772501    0.000000
     8  F     c     3.012428    1.947782   -0.126893    0.000000
     9  F     c     1.128263    3.152031   -2.400150    0.000000
    10  F     c     1.653181    3.988205    0.694924    0.000000
    11  F     c     4.094469    3.050370    2.481549    0.000000
    12  F     c     0.010225    1.736192    0.145216    0.000000
    13  F     s     1.075131    2.819978    2.712723    0.000000
    14  F     s    -1.355330    2.520302    1.964762    0.000000
    15  F     s    -0.382830    0.340298    3.004808    0.000000
    16  F     s     1.714919    1.106502    1.785908    0.000000
    17  F     s     2.777818    2.079387   -0.053715    0.000000
    18  F     s     1.164987    3.076750   -2.123652    0.000000
    19  F     s     1.698845    3.710311    0.631050    0.000000
    20  F     s     3.843721    2.974368    2.363586    0.000000
    21  F     s     0.209977    1.852565    0.176748    0.000000
--------------------------------------------------------------------------------


  Final Cartesian derivatives :

--------------------------------------------------------------------------------
   No.  Atomic          x             y             z           Radius
        Label       (eV/Angs)     (eV/Angs)    (eV/Angs)      (eV/Angs)
--------------------------------------------------------------------------------
      1 Al    c       0.000000      0.000000      0.000000      0.000000
      2 Al    c       0.000000      0.000000      0.000000      0.000000
      3 Al    c       0.000000      0.000000      0.000000      0.000000
      4 F     c       0.000000      0.000000      0.000000      0.000000
      5 F     c       0.000000      0.000000      0.000000      0.000000
      6 F     c       0.000000      0.000000      0.000000      0.000000
      7 F     c       0.000000      0.000000      0.000000      0.000000
      8 F     c       0.000000      0.000000      0.000000      0.000000
      9 F     c       0.000000      0.000000      0.000000      0.000000
     10 F     c       0.000000      0.000000      0.000000      0.000000
     11 F     c       0.000000      0.000000      0.000000      0.000000
     12 F     c       0.000000      0.000000      0.000000      0.000000
     13 F     s       0.000000      0.000000     -0.000000      0.000000
     14 F     s      -0.000000     -0.000000     -0.000000      0.000000
     15 F     s      -0.000000      0.000000     -0.000000      0.000000
     16 F     s       0.000000      0.000000     -0.000000      0.000000
     17 F     s       0.000000      0.000000      0.000000      0.000000
     18 F     s       0.000000     -0.000000      0.000000      0.000000
     19 F     s       0.000000     -0.000000      0.000000      0.000000
     20 F     s       0.000000      0.000000      0.000000      0.000000
     21 F     s      -0.000000     -0.000000      0.000000      0.000000
--------------------------------------------------------------------------------
  Maximum abs         0.000000      0.000000      0.000000      0.000000
--------------------------------------------------------------------------------


  Born effective charge tensors : 

-------------------------------------------------------------------------------
  Atom             x           y             z
-------------------------------------------------------------------------------
    1 Al    x       1.3347      0.2025     -0.1413
            y       0.1857      0.7891      0.2007
            z      -0.2553      0.1455      1.5850
-------------------------------------------------------------------------------
    2 Al    x       0.8085     -0.2308     -0.2161
            y      -0.2247      1.0206     -0.0227
            z      -0.1244      0.0333      1.5799
-------------------------------------------------------------------------------
    3 Al    x       1.0428     -0.0141     -0.0474
            y       0.0006      1.1617      0.1042
            z      -0.0162      0.1189      0.5752
-------------------------------------------------------------------------------
    4 F     x      -0.3690      0.0150      0.0485
            y      -0.0863     -0.3282      0.0049
            z       0.0193      0.0118     -0.3546
-------------------------------------------------------------------------------
    5 F     x      -0.2456     -0.2567      0.0769
            y      -0.2275     -0.3531     -0.0375
            z       0.0865     -0.0205     -0.5534
-------------------------------------------------------------------------------
    6 F     x      -0.5325      0.0536     -0.0367
            y       0.0539     -0.1922     -0.2232
            z      -0.0066     -0.2117     -0.3865
-------------------------------------------------------------------------------
    7 F     x      -0.5924      0.1126      0.0101
            y       0.1751     -0.2233      0.0222
            z       0.0050      0.0135     -0.4438
-------------------------------------------------------------------------------
    8 F     x      -0.2173     -0.0529      0.1554
            y      -0.0475     -0.3001     -0.1162
            z       0.0403     -0.0381     -0.5900
-------------------------------------------------------------------------------
    9 F     x      -0.5260     -0.0236      0.0732
            y      -0.0311     -0.5019     -0.1565
            z       0.0887     -0.1400      0.0399
-------------------------------------------------------------------------------
   10 F     x      -0.3446      0.0128     -0.0103
            y       0.0323     -0.3086      0.1362
            z       0.0119      0.0400     -0.3228
-------------------------------------------------------------------------------
   11 F     x      -0.0711      0.1403      0.2270
            y       0.1396     -0.4922      0.0689
            z       0.2265      0.0712     -0.4615
-------------------------------------------------------------------------------
   12 F     x      -0.2874      0.0412     -0.1394
            y       0.0298     -0.2719      0.0191
            z      -0.0757     -0.0238     -0.6674
-------------------------------------------------------------------------------




  Moment of inertia tensor (10^-46 x kgm^2): 

-------------------------------------------------------------------------------
                x           y           z           Principal axis system
-------------------------------------------------------------------------------
       x        142.66      -20.06       11.97          112.862647
       y        -20.06      192.14       23.18          150.383612
       z         11.97       23.18      132.50          204.059110
-------------------------------------------------------------------------------
  Centre of mass (Ang) =     1.209677     2.282155     1.144340
-------------------------------------------------------------------------------


  Vibrational Frequency Calculation : 

--------------------------------------------------------------------------------

  Frequencies (cm-1) and Eigenvectors : 

  Frequency      -0.0000   -0.0000    0.0000    5.8338   19.0655   28.0558
  IR Intensity    0.0000    0.0000    0.0000    0.0002    0.0005    0.0002
     in X         0.0000    0.0000    0.0000    0.0000    0.0003    0.0000
     in Y         0.0000    0.0000    0.0000    0.0002    0.0000    0.0001
     in Z         0.0000    0.0000    0.0000    0.0000    0.0002    0.0000
  Raman Intsty    0.0000    0.0000    0.0000    0.0000    0.0000    0.0000

     1 x      -0.083534 -0.304736 -0.085128  0.068885 -0.113188 -0.156267
     1 y       0.026472 -0.094467  0.312192  0.165187  0.005901  0.266397
     1 z       0.315294 -0.072806 -0.048766  0.103667 -0.168615 -0.002774
     2 x      -0.083534 -0.304736 -0.085128  0.056214 -0.097915  0.039692
     2 y       0.026472 -0.094467  0.312192  0.145901  0.135297 -0.207334
     2 z       0.315294 -0.072806 -0.048766 -0.069088  0.185661  0.009457
     3 x      -0.083534 -0.304736 -0.085128 -0.115177  0.238406  0.119353
     3 y       0.026472 -0.094467  0.312192 -0.321750 -0.136823 -0.075893
     3 z       0.315294 -0.072806 -0.048766 -0.025568  0.007756 -0.011975
     4 x      -0.070101 -0.255729 -0.071438  0.087145 -0.253319  0.043039
     4 y       0.022215 -0.079275  0.261986  0.186568  0.086064  0.113463
     4 z       0.264589 -0.061097 -0.040923 -0.030441 -0.053508 -0.081027
     5 x      -0.070101 -0.255729 -0.071438  0.082519 -0.113766 -0.027733
     5 y       0.022215 -0.079275  0.261986  0.182938 -0.059014  0.367817
     5 z       0.264589 -0.061097 -0.040923  0.110385 -0.327993 -0.026291
     6 x      -0.070101 -0.255729 -0.071438  0.062100 -0.135231 -0.290235
     6 y       0.022215 -0.079275  0.261986  0.157622  0.006043  0.284390
     6 z       0.264589 -0.061097 -0.040923  0.113292 -0.155455  0.032140
     7 x      -0.070101 -0.255729 -0.071438  0.105524  0.015943 -0.207124
     7 y       0.022215 -0.079275  0.261986  0.108304  0.074926 -0.061858
     7 z       0.264589 -0.061097 -0.040923  0.164355  0.149750  0.082367
     8 x      -0.070101 -0.255729 -0.071438 -0.020045  0.182827 -0.035598
     8 y       0.022215 -0.079275  0.261986 -0.087290  0.029444 -0.329747
     8 z       0.264589 -0.061097 -0.040923 -0.028309  0.242330  0.037563
     9 x      -0.070101 -0.255729 -0.071438 -0.248941  0.365109  0.174864
     9 y       0.022215 -0.079275  0.261986 -0.524393 -0.257061 -0.123797
     9 z       0.264589 -0.061097 -0.040923 -0.070224 -0.053179 -0.035855
    10 x      -0.070101 -0.255729 -0.071438 -0.115560 -0.046550  0.320729
    10 y       0.022215 -0.079275  0.261986 -0.081767 -0.010449 -0.053308
    10 z       0.264589 -0.061097 -0.040923 -0.198513 -0.039081 -0.070029
    11 x      -0.070101 -0.255729 -0.071438  0.067702 -0.197104  0.079558
    11 y       0.022215 -0.079275  0.261986  0.297418  0.261075 -0.375584
    11 z       0.264589 -0.061097 -0.040923 -0.216171  0.307502  0.038989
    12 x      -0.070101 -0.255729 -0.071438 -0.032267  0.149555 -0.060808
    12 y       0.022215 -0.079275  0.261986 -0.226695 -0.136240  0.198678
    12 z       0.264589 -0.061097 -0.040923  0.144887 -0.099922  0.028450


  Frequency      54.5416   61.3196   97.6092  119.1147  138.8819  145.8077
  IR Intensity    0.0027    0.0034    0.0047    0.0123    0.0206    0.0004
     in X         0.0000    0.0011    0.0001    0.0021    0.0038    0.0000
     in Y         0.0012    0.0012    0.0046    0.0078    0.0155    0.0004
     in Z         0.0015    0.0010    0.0000    0.0025    0.0013    0.0000
  Raman Intsty    0.0118    0.0107    0.0126    0.0002    0.0355    0.0010

     1 x       0.010135 -0.080116 -0.005215 -0.028320 -0.004214 -0.111107
     1 y       0.103921  0.056598  0.022768 -0.055893  0.062029  0.000167
     1 z      -0.118637 -0.264373  0.003289  0.093583 -0.031249 -0.080827
     2 x       0.043143  0.116346  0.011606 -0.039112  0.049909  0.047284
     2 y      -0.013950 -0.082306 -0.068830 -0.054503 -0.018748 -0.299003
     2 z       0.102469  0.102476  0.000088 -0.007603  0.008184  0.005106
     3 x      -0.037389  0.042839  0.005979 -0.019283  0.088438  0.060293
     3 y      -0.123343  0.074020 -0.065781 -0.054894 -0.299251  0.247699
     3 z       0.069060  0.141939 -0.023105 -0.001201 -0.064746  0.073894
     4 x       0.168249 -0.069005 -0.042874  0.009291  0.065576  0.084916
     4 y      -0.230588 -0.042091  0.071185 -0.029448 -0.083111 -0.331392
     4 z       0.334037 -0.133370 -0.087995  0.045822  0.061859  0.089637
     5 x       0.250340 -0.079270  0.045049  0.036287 -0.031645 -0.097212
     5 y       0.435744  0.114055  0.000644  0.060695  0.034920 -0.025546
     5 z      -0.078135  0.070643 -0.437542  0.193826  0.103953 -0.226547
     6 x      -0.187609 -0.104554 -0.096047 -0.178450  0.195732 -0.061522
     6 y       0.047200 -0.160251  0.229486 -0.193068  0.074474  0.229471
     6 z      -0.242183 -0.557879  0.277417 -0.187358  0.072519  0.275718
     7 x      -0.070508  0.224761  0.065638 -0.027565 -0.057178 -0.008718
     7 y       0.026242 -0.081948 -0.067233 -0.061847  0.035465 -0.239206
     7 z      -0.247499  0.174110  0.268417  0.189862 -0.325551 -0.124249
     8 x       0.100568  0.013211 -0.011711 -0.147297  0.057244  0.036880
     8 y       0.175159 -0.047042 -0.109833 -0.283054 -0.289145  0.083045
     8 z       0.004791 -0.026528 -0.018912  0.064144 -0.108671 -0.044103
     9 x       0.039310 -0.471222 -0.233584  0.427027 -0.151970 -0.062969
     9 y       0.045411 -0.005588  0.488512  0.293802  0.257243 -0.278163
     9 z       0.089250  0.168154  0.158476  0.034462  0.112864 -0.053452
    10 x      -0.334056  0.226829 -0.006349  0.021385  0.201548  0.099997
    10 y      -0.180651  0.038898 -0.091688 -0.055742 -0.185976  0.014371
    10 z       0.206369  0.078116 -0.004286 -0.018551 -0.142047  0.237959
    11 x       0.083722  0.061150  0.032155  0.023533 -0.254298 -0.065659
    11 y      -0.043661  0.098796  0.008453  0.447368  0.371980  0.416949
    11 z       0.005302  0.057192 -0.092163 -0.451304  0.396590 -0.205744
    12 x      -0.068950  0.103879  0.232982 -0.060878 -0.184846  0.078494
    12 y      -0.235089  0.027600 -0.396248  0.018259  0.089174  0.191406
    12 z      -0.134960  0.193345 -0.039903  0.028072 -0.066877  0.052959


  Frequency     157.2991  183.8090  209.7493  227.9953  241.2060  253.5786
  IR Intensity    0.0093    0.0147    0.0070    0.0076    0.0111    0.0358
     in X         0.0002    0.0070    0.0004    0.0000    0.0039    0.0208
     in Y         0.0001    0.0000    0.0033    0.0072    0.0001    0.0127
     in Z         0.0090    0.0077    0.0033    0.0004    0.0072    0.0024
  Raman Intsty    0.0120    0.0004    0.0260    0.0765    0.0108    0.0034

     1 x      -0.122362 -0.115176  0.149304  0.008540 -0.078349 -0.151161
     1 y       0.097147  0.221962 -0.041839  0.229802  0.003157  0.159284
     1 z      -0.153836 -0.162467 -0.120198  0.183881 -0.163306  0.058084
     2 x      -0.008526  0.187635  0.101417  0.018634 -0.214977 -0.113901
     2 y       0.147607 -0.206887  0.077574  0.030776 -0.073708  0.051395
     2 z       0.231469 -0.103805  0.071137 -0.092573  0.104301  0.017786
     3 x       0.173536 -0.211701 -0.268205 -0.009944  0.193310 -0.116384
     3 y      -0.233496 -0.011671  0.113539 -0.088940  0.100308  0.121601
     3 z       0.106115  0.130847  0.182029 -0.197024 -0.177453  0.032542
     4 x      -0.166357  0.008420  0.042873  0.206957 -0.188499  0.003051
     4 y       0.019343  0.046104  0.027658 -0.110546 -0.041579 -0.125416
     4 z       0.114661 -0.339286  0.021253  0.388210  0.065790  0.335026
     5 x      -0.335335 -0.303452  0.203228 -0.206649  0.116174 -0.209828
     5 y      -0.228055  0.006675 -0.016218 -0.182623  0.329137  0.062621
     5 z      -0.080258  0.177893 -0.470644 -0.276709  0.109675 -0.000592
     6 x       0.204936  0.280057  0.241579  0.004729  0.566241  0.265079
     6 y       0.099217  0.205069 -0.029681 -0.017003 -0.018465 -0.039895
     6 z      -0.002192 -0.026367 -0.065830 -0.194537  0.032902 -0.105517
     7 x      -0.058628  0.175497  0.075037  0.152817  0.001399 -0.149863
     7 y       0.184853 -0.126831  0.069335  0.043756 -0.129649  0.127919
     7 z      -0.168609  0.029218  0.020128  0.334272  0.247401 -0.173121
     8 x       0.168832 -0.045647 -0.423136  0.005429 -0.052787 -0.194153
     8 y      -0.041618  0.114632 -0.294619 -0.024747 -0.174390 -0.075703
     8 z       0.097198 -0.159850  0.118381 -0.281946  0.115431 -0.113002
     9 x      -0.057420  0.361374  0.077145  0.029875 -0.099909  0.115569
     9 y       0.039626  0.064718 -0.121221  0.055442  0.020261 -0.052291
     9 z       0.191482  0.071673  0.070218 -0.163106 -0.165529 -0.044127
    10 x      -0.000329 -0.225532  0.055921 -0.173518 -0.235202  0.336046
    10 y      -0.109357 -0.115130  0.102911 -0.180796 -0.097662  0.202054
    10 z       0.064844  0.168397  0.105462 -0.008054  0.093086 -0.098083
    11 x       0.354639  0.012288  0.100193 -0.043891 -0.133255 -0.057850
    11 y      -0.106159 -0.003003  0.022410 -0.074465 -0.074934 -0.053298
    11 z      -0.416236  0.129779  0.099477  0.108137 -0.082144 -0.047737
    12 x      -0.161160 -0.097077 -0.352006  0.003719  0.145022  0.346495
    12 y       0.128735 -0.196291  0.061543  0.286453  0.151822 -0.441950
    12 z      -0.019850  0.109918 -0.056894  0.219708 -0.134840  0.117965


  Frequency     265.9981  268.6478  294.4480  299.6874  362.8965  381.7020
  IR Intensity    0.0336    0.0549    0.0170    0.0176    0.0235    0.0150
     in X         0.0186    0.0264    0.0012    0.0004    0.0025    0.0039
     in Y         0.0002    0.0139    0.0001    0.0040    0.0037    0.0004
     in Z         0.0147    0.0147    0.0156    0.0133    0.0173    0.0107
  Raman Intsty    0.0001    0.0507    0.8878    0.0921    1.2058    0.5721

     1 x       0.063515 -0.144781 -0.070645  0.024934 -0.331524  0.052809
     1 y       0.196164 -0.042525 -0.039260 -0.093489  0.017119 -0.114897
     1 z       0.296303  0.231057  0.047523  0.075848  0.350521 -0.246700
     2 x       0.120294 -0.111617  0.047508 -0.031786  0.172386 -0.042778
     2 y      -0.238713 -0.100140 -0.018936  0.104326  0.107109  0.090198
     2 z      -0.060476 -0.064712  0.148894  0.165131 -0.177999 -0.213190
     3 x       0.085862 -0.079892 -0.066840  0.038084  0.121946  0.101404
     3 y       0.121276 -0.197937  0.041994  0.072192  0.059398  0.000724
     3 z       0.011176  0.121333 -0.034961 -0.018201  0.028346  0.211227
     4 x       0.213175 -0.132471 -0.132747 -0.320924  0.030734  0.123940
     4 y       0.394883  0.059189 -0.000014  0.240069 -0.300811 -0.130305
     4 z      -0.100749 -0.142829  0.099367 -0.079509 -0.207891 -0.032479
     5 x      -0.080461  0.157775 -0.002952  0.135231 -0.214921  0.097678
     5 y      -0.136378  0.285571  0.047404  0.038654  0.243152 -0.065545
     5 z      -0.104428 -0.345064  0.075961 -0.016400 -0.080433  0.048470
     6 x       0.128199  0.243873  0.034622 -0.133590 -0.026927  0.032951
     6 y      -0.181248 -0.290080 -0.074088 -0.071840 -0.294554  0.068540
     6 z      -0.216000  0.005878  0.061027  0.075572  0.140538  0.009086
     7 x      -0.475790 -0.090123 -0.042568  0.082200  0.248751 -0.368059
     7 y      -0.001127 -0.096302  0.066894  0.145478  0.227822  0.196896
     7 z      -0.049251 -0.041520  0.372062 -0.271423 -0.036868  0.273863
     8 x       0.063683  0.232171  0.067032 -0.087276  0.060870  0.240603
     8 y      -0.049831  0.306941  0.259468 -0.234391 -0.224946 -0.226166
     8 z       0.125010 -0.103236 -0.377886 -0.502609  0.035651 -0.378680
     9 x      -0.150363  0.087048  0.001937  0.059510 -0.047705  0.045927
     9 y      -0.057428  0.027894 -0.061648 -0.066350 -0.034352 -0.089862
     9 z      -0.008316  0.175182 -0.083018 -0.063899  0.034889  0.315260
    10 x      -0.093713  0.141836  0.387278 -0.064720 -0.159186 -0.159175
    10 y      -0.116146  0.003748 -0.151180 -0.231911  0.167862  0.296638
    10 z       0.256234 -0.113222  0.119285  0.372524  0.055179  0.074323
    11 x      -0.011184 -0.125497  0.095152  0.064781  0.144058 -0.157614
    11 y       0.120217 -0.017711  0.064770  0.024533 -0.000678 -0.034411
    11 z      -0.002490 -0.119942  0.024804  0.028275  0.071228 -0.027731
    12 x       0.085104 -0.113877 -0.300532  0.227571  0.008645  0.010960
    12 y      -0.066755  0.126624 -0.132300  0.056818 -0.002311  0.012783
    12 z      -0.194349  0.341945 -0.483998  0.192000 -0.251653  0.014205


  Frequency     390.1526  452.0802  490.6571  518.6429  539.4820  573.3702
  IR Intensity    0.0135    0.0421    0.0263    0.0155    0.0382    0.0961
     in X         0.0014    0.0009    0.0240    0.0022    0.0003    0.0066
     in Y         0.0046    0.0013    0.0019    0.0010    0.0020    0.0197
     in Z         0.0074    0.0399    0.0003    0.0123    0.0359    0.0698
  Raman Intsty    0.0287    2.5302    0.0023    2.5077    0.0871    0.1235

     1 x       0.093416  0.050934 -0.192560 -0.061237  0.061945 -0.000809
     1 y       0.155724  0.007989 -0.200120 -0.102723  0.144283  0.076778
     1 z       0.168459 -0.027256 -0.254462 -0.156707  0.238727  0.174954
     2 x      -0.239591 -0.077249 -0.187514 -0.020379 -0.210531 -0.167498
     2 y      -0.014421  0.126203  0.114804  0.046694  0.268536 -0.055674
     2 z      -0.111553 -0.314746  0.219050  0.058358  0.284870  0.425512
     3 x       0.106703 -0.062859  0.056072 -0.032463  0.154442 -0.044852
     3 y       0.008040 -0.063914 -0.011843 -0.055049 -0.308546  0.417906
     3 z       0.119401 -0.054713  0.026405 -0.112957 -0.106993  0.123908
     4 x      -0.026508  0.036898  0.641954  0.134253  0.159692  0.145276
     4 y       0.261512 -0.180388  0.261666  0.145276 -0.288811 -0.181995
     4 z       0.189697 -0.153496 -0.068121  0.056371 -0.372422 -0.242227
     5 x      -0.020309  0.057159 -0.191274 -0.089150  0.073755  0.115910
     5 y      -0.046997 -0.030823  0.118704  0.072161 -0.084339 -0.102117
     5 z       0.006175  0.025694 -0.032136 -0.024354 -0.005597 -0.012383
     6 x      -0.037973  0.006306 -0.033432 -0.012365  0.041078  0.028335
     6 y       0.082526  0.084865 -0.219513 -0.105397  0.148741  0.125632
     6 z      -0.093069 -0.039352  0.175963  0.090375 -0.144485 -0.113744
     7 x       0.458713  0.066685  0.119049 -0.024115 -0.116316  0.058239
     7 y      -0.264816  0.404778  0.042641 -0.113045 -0.259286  0.180984
     7 z      -0.137909  0.046462 -0.003695 -0.006191  0.006005 -0.023199
     8 x       0.144522  0.024179 -0.172569  0.348675 -0.249519  0.296233
     8 y      -0.136056  0.052771  0.094304 -0.170888  0.105433 -0.167239
     8 z      -0.071477  0.292539 -0.065280  0.038944 -0.121964 -0.046809
     9 x       0.008489 -0.014508  0.029762 -0.051788 -0.010391 -0.006352
     9 y      -0.073790  0.021272 -0.030781  0.146742  0.016126  0.011416
     9 z       0.187866 -0.094901  0.114732 -0.504626 -0.046325 -0.127660
    10 x       0.038926  0.291062  0.040992  0.032914  0.041322 -0.069364
    10 y       0.204634 -0.291557 -0.163616  0.336257  0.237673 -0.206721
    10 z       0.136826  0.442297 -0.006070  0.282945  0.229512 -0.296803
    11 x      -0.358877 -0.336638 -0.139653  0.101475  0.033688 -0.131696
    11 y      -0.127729 -0.107960 -0.042551  0.033793 -0.000326 -0.049294
    11 z      -0.176008 -0.147817 -0.058078  0.048767 -0.003519 -0.087110
    12 x      -0.159946 -0.024882  0.091264 -0.303959  0.019714 -0.182572
    12 y      -0.077249 -0.036706  0.054924 -0.212535  0.000531 -0.133807
    12 z      -0.252196  0.101316 -0.046583  0.269570 -0.037647  0.086744


  Frequency     606.1289  679.6874  709.5761  760.6292  812.8157  881.3459
  IR Intensity    0.0610    0.0876    0.0189    0.0152    0.0080    0.0001
     in X         0.0049    0.0666    0.0169    0.0016    0.0014    0.0001
     in Y         0.0536    0.0131    0.0000    0.0114    0.0000    0.0000
     in Z         0.0025    0.0078    0.0020    0.0022    0.0066    0.0000
  Raman Intsty    0.0043    0.2181    0.0009    0.0008    0.1226    1.1900

     1 x       0.070254  0.271923  0.614540  0.210502  0.171888 -0.148138
     1 y      -0.001979  0.110752  0.155596 -0.641427  0.115081 -0.087412
     1 z       0.007055 -0.055380 -0.080548  0.270323 -0.047827  0.034663
     2 x      -0.115308  0.079023  0.101566 -0.034142 -0.510535  0.476402
     2 y       0.563491  0.085692 -0.056491 -0.072797 -0.253224  0.155639
     2 z      -0.219480 -0.102889  0.251182 -0.025507 -0.056252  0.240950
     3 x      -0.207986  0.594812 -0.272383  0.064422 -0.103005 -0.139100
     3 y       0.230878  0.231795 -0.119680  0.008462  0.097548  0.114721
     3 z       0.068818 -0.054905  0.049221 -0.018903 -0.482100 -0.601489
     4 x       0.007797 -0.089917 -0.087519  0.017461  0.036539 -0.018735
     4 y      -0.056733 -0.064079 -0.123413  0.054432 -0.038110  0.020156
     4 z      -0.017522 -0.001509 -0.087181  0.014580 -0.052748  0.022506
     5 x      -0.136972 -0.158345 -0.358620 -0.358362 -0.036401  0.024000
     5 y       0.085130  0.102517  0.216813  0.271037  0.018724 -0.010257
     5 z      -0.017652 -0.028322 -0.043689 -0.057712  0.001204  0.002566
     6 x       0.011270 -0.055732 -0.080413  0.083475 -0.018448  0.013667
     6 y      -0.015332 -0.176889 -0.237364  0.402542 -0.074735  0.044300
     6 z       0.002411  0.116423  0.152110 -0.264005  0.045212 -0.026027
     7 x      -0.136604 -0.079571 -0.037215 -0.006305  0.071909 -0.046607
     7 y      -0.473037 -0.052561  0.047100  0.076075  0.148978 -0.090393
     7 z       0.009249  0.005056  0.009531  0.002058 -0.001198 -0.007121
     8 x       0.223798 -0.265030  0.100616 -0.023913  0.099088  0.085117
     8 y      -0.135249  0.105441 -0.042252  0.018230 -0.026211 -0.044257
     8 z       0.055234 -0.049957 -0.008261 -0.015393  0.047842  0.045325
     9 x       0.019123 -0.011766  0.000254 -0.004798  0.049561  0.044657
     9 y      -0.044346 -0.024710  0.018701 -0.003950 -0.096894 -0.090998
     9 z       0.089488  0.064412 -0.058303  0.012508  0.362839  0.338319
    10 x       0.087958 -0.032856 -0.009826 -0.008417  0.037765 -0.003496
    10 y      -0.336779 -0.117438  0.084262  0.007049  0.053298  0.078608
    10 z      -0.003050 -0.072977 -0.008633 -0.002529  0.081021  0.060171
    11 x       0.167245 -0.077297 -0.203857  0.047621  0.345780 -0.268453
    11 y       0.022109 -0.026279 -0.054721  0.021951  0.108083 -0.081195
    11 z       0.079801 -0.026604 -0.103040  0.023576  0.157059 -0.123439
    12 x       0.057918 -0.356488  0.147824 -0.033688 -0.059505 -0.055565
    12 y       0.009996 -0.256307  0.115391 -0.006353 -0.044760 -0.043971
    12 z      -0.026832  0.247505 -0.114523  0.017712  0.057281  0.076027




--------------------------------------------------------------------------------
  Vibrational properties (for cluster):  Temperature  =       0.000 K
--------------------------------------------------------------------------------
  Zero point energy            =        0.693006 eV
--------------------------------------------------------------------------------

  Phonon density of states : 

--------------------------------------------------------------------------------
 Frequency (cm-1) Density of States                                             
--------------------------------------------------------------------------------
    0.00000 |************************************************************  0.059
   13.77103 |******************************                                0.029
   27.54206 |******************************                                0.029
   41.31309 |******************************                                0.029
   55.08412 |******************************                                0.029
   68.85515 |                                                              0.000
   82.62619 |                                                              0.000
   96.39722 |******************************                                0.029
  110.16825 |******************************                                0.029
  123.93928 |                                                              0.000
  137.71031 |************************************************************  0.059
  151.48134 |******************************                                0.029
  165.25237 |                                                              0.000
  179.02340 |******************************                                0.029
  192.79443 |                                                              0.000
  206.56546 |******************************                                0.029
  220.33650 |******************************                                0.029
  234.10753 |******************************                                0.029
  247.87856 |******************************                                0.029
  261.64959 |************************************************************  0.059
  275.42062 |                                                              0.000
  289.19165 |************************************************************  0.059
  302.96268 |                                                              0.000
  316.73371 |                                                              0.000
  330.50474 |                                                              0.000
  344.27577 |                                                              0.000
  358.04681 |******************************                                0.029
  371.81784 |******************************                                0.029
  385.58887 |******************************                                0.029
  399.35990 |                                                              0.000
  413.13093 |                                                              0.000
  426.90196 |                                                              0.000
  440.67299 |******************************                                0.029
  454.44402 |                                                              0.000
  468.21505 |                                                              0.000
  481.98608 |******************************                                0.029
  495.75712 |                                                              0.000
  509.52815 |******************************                                0.029
  523.29918 |                                                              0.000
  537.07021 |******************************                                0.029
  550.84124 |                                                              0.000
  564.61227 |******************************                                0.029
  578.38330 |                                                              0.000
  592.15433 |                                                              0.000
  605.92536 |******************************                                0.029
  619.69639 |                                                              0.000
  633.46742 |                                                              0.000
  647.23846 |                                                              0.000
  661.00949 |                                                              0.000
  674.78052 |******************************                                0.029
  688.55155 |                                                              0.000
  702.32258 |******************************                                0.029
  716.09361 |                                                              0.000
  729.86464 |                                                              0.000
  743.63567 |                                                              0.000
  757.40670 |******************************                                0.029
  771.17773 |                                                              0.000
  784.94877 |                                                              0.000
  798.71980 |                                                              0.000
  812.49083 |******************************                                0.029
  826.26186 |                                                              0.000
  840.03289 |                                                              0.000
  853.80392 |                                                              0.000
  867.57495 |******************************                                0.029
--------------------------------------------------------------------------------



  Time to end of optimisation =       0.0381 seconds


  Peak dynamic memory used =       0.65 MB 


  Timing analysis for GULP :

--------------------------------------------------------------------------------
  Task / Subroutine                                          Time (Seconds)
--------------------------------------------------------------------------------
  Calculation of real space energy and derivatives                0.0024
  Calculation of phonons                                          0.0016
  Calculation and manipulation of Hessian matrix                  0.0015
--------------------------------------------------------------------------------
  Total CPU time                                                  0.0381
--------------------------------------------------------------------------------


  Job Finished at 14:39.17 25th May        2022                               

