********************************************************************************
*                       GENERAL UTILITY LATTICE PROGRAM                        *
*                                 Julian Gale                                  *
*                       Curtin Institute for Computation                       *
*                           Department of Chemistry                            *
*                    Curtin University, Western Australia                      *
********************************************************************************
* Version = 5.1.1 * Last modified =  24th November 2018                        *
********************************************************************************
*  optimise     - perform optimisation run                                     *
*  conp         - constant pressure calculation                                *
*  shell        - only shells and radii to be optimised                        *
*  phonon       - calculate phonons for final geometry                         *
*  eigenvectors - output phonon eigenvectors                                   *
********************************************************************************

  Job Started  at 14:39.51 25th May        2022                               

  Number of CPUs =     1

  Host name      = login03                                 


  Total number of configurations input =      1

********************************************************************************
*  Input for Configuration =   1                                               *
********************************************************************************

  Formula = Al3F9                                                       

  Number of irreducible atoms/shells =      21


  Total number atoms/shells =      21

  Dimensionality = 0               :  Cluster


  Charge on cluster =  -0.000000


  Initial cluster dipoles : x =     -0.116890 e.Angs
                            y =     -1.040051 e.Angs
                            z =      0.452593 e.Angs

  Temperature of configuration =  0.000     K 

  Symmetry number =      1

  Cartesian coordinates of cluster :

--------------------------------------------------------------------------------
   No.  Atomic       x           y          z         Charge      Occupancy
        Label      (Angs)      (Angs)     (Angs)        (e)         (Frac)  
--------------------------------------------------------------------------------
      1 Al    c     -0.1667      1.5787      2.3852     3.00000    1.000000    
      2 Al    c      2.4574      2.4902      1.7037     3.00000    1.000000    
      3 Al    c      1.3020      2.5275     -0.5368     3.00000    1.000000    
      4 F     c      0.9243      3.1771      2.6532     0.59000    1.000000    
      5 F     c     -1.4676      2.9222      1.9611     0.59000    1.000000    
      6 F     c     -0.3166     -0.2612      2.7038     0.59000    1.000000    
      7 F     c      1.6855      0.7681      1.9145     0.59000    1.000000    
      8 F     c      3.1931      2.1063     -0.1108     0.59000    1.000000    
      9 F     c      1.1288      3.0637     -2.2547     0.59000    1.000000    
     10 F     c      1.8541      4.0100      0.5511     0.59000    1.000000    
     11 F     c      4.0085      3.1283      2.3642     0.59000    1.000000    
     12 F     c     -0.1152      1.9149      0.4211     0.59000    1.000000    
     13 F     s      0.9243 *    3.1771 *    2.6532 *  -1.59000    1.000000    
     14 F     s     -1.4676 *    2.9222 *    1.9611 *  -1.59000    1.000000    
     15 F     s     -0.3166 *   -0.2612 *    2.7038 *  -1.59000    1.000000    
     16 F     s      1.6855 *    0.7681 *    1.9145 *  -1.59000    1.000000    
     17 F     s      3.1931 *    2.1063 *   -0.1108 *  -1.59000    1.000000    
     18 F     s      1.1288 *    3.0637 *   -2.2547 *  -1.59000    1.000000    
     19 F     s      1.8541 *    4.0100 *    0.5511 *  -1.59000    1.000000    
     20 F     s      4.0085 *    3.1283 *    2.3642 *  -1.59000    1.000000    
     21 F     s     -0.1152 *    1.9149 *    0.4211 *  -1.59000    1.000000    
--------------------------------------------------------------------------------


  Brillouin zone sampling points :

--------------------------------------------------------------------------------
  Point number          x          y          z            Weight
--------------------------------------------------------------------------------
        1           0.000000   0.000000   0.000000     1.00000000
--------------------------------------------------------------------------------


********************************************************************************
*  General input information                                                   *
********************************************************************************

  Species output for all configurations : 

--------------------------------------------------------------------------------
  Species    Type    Atomic    Atomic    Charge       Radii (Angs)     Library
                     Number     Mass       (e)     Cova   Ionic  VDW   Symbol
--------------------------------------------------------------------------------
    Al       Core       13      26.98   3.000000   1.350  0.000  2.050          
    F        Core        9      19.00   0.590000   0.710  0.000  1.300          
    F        Shell       9       0.00  -1.590000   0.710  0.000  1.300          
--------------------------------------------------------------------------------


  Accuracy factor for short range sums = 12.000

  Time limit = Infinity

  Maximum range for interatomic potentials =    100000.000000 Angstroms

  General interatomic potentials :

--------------------------------------------------------------------------------
Atom  Types   Potential      Parameter       Value         Units   Cutoffs(Ang)
  1     2                                                            Min /  Max 
--------------------------------------------------------------------------------
Al   c F    s Buckingham    Buckingham A     3760.0008    eV        0.000 10.000
                            Buckingham rho  0.22200000    Ang       
                            Buckingham C     0.0000000    eV*Ang^6  
--------------------------------------------------------------------------------
F    s F    s Buck 4 range  Buck4 A          1127.7000    eV        0.000 12.000
                            Buck4 rho       0.27530000    Ang       
                            Buck4 C          15.830000    eV*Ang^6  
                            Buck4 minimum    2.7900000    Ang       
--------------------------------------------------------------------------------
F    c F    s Spring (c-s)  Spring k 2       20.770000    eV*Ang^-2 0.000  0.800
                            Spring k 4       0.0000000    eV*Ang^-4 
--------------------------------------------------------------------------------

********************************************************************************
*  Output for configuration   1                                                *
********************************************************************************


  Components of energy : 

--------------------------------------------------------------------------------
  Interatomic potentials     =           9.89909544 eV    
  Monopole - monopole (real) =        -173.76230047 eV    
--------------------------------------------------------------------------------
  Total lattice energy       =        -163.86320504 eV    
--------------------------------------------------------------------------------
  Total lattice energy       =          -15810.2944 kJ/mol
--------------------------------------------------------------------------------


  Number of variables =       27

  Maximum number of calculations  =          2000
  Maximum Hessian update interval =            10
  Maximum step size               =   1.000000000
  Maximum parameter tolerance     =   0.000001000
  Maximum function  tolerance     =   0.000010000
  Maximum gradient  tolerance     =   0.000000010
  Maximum gradient  component     =   0.010000000

  Symmetry not applied to optimisation

  Newton-Raphson optimiser to be used

  BFGS hessian update to be used

  Lower half triangular hessian to be used

  Minimiser to switch to RFO
  When gradient norm is less than     0.010000

  Shell only optimisation

  Start of cluster optimisation :

  Cycle:      0 Energy:      -163.863205  Gnorm:      1.527765  CPU:    0.004
  ** Hessian calculated **
  Cycle:      1 Energy:      -182.887460  Gnorm:      0.597590  CPU:    0.006
  ** Hessian calculated **
  Cycle:      2 Energy:      -184.515908  Gnorm:      0.046405  CPU:    0.007
  Cycle:      3 Energy:      -184.530078  Gnorm:      0.008658  CPU:    0.009
  ** Hessian has required structure
  Cycle:      4 Energy:      -184.530614  Gnorm:      0.002330  CPU:    0.011
  ** Hessian has required structure
  Cycle:      5 Energy:      -184.530650  Gnorm:      0.000896  CPU:    0.012
  ** Hessian has required structure
  Cycle:      6 Energy:      -184.530656  Gnorm:      0.000420  CPU:    0.014
  ** Hessian has required structure
  Cycle:      7 Energy:      -184.530657  Gnorm:      0.000214  CPU:    0.015
  ** Hessian has required structure
  Cycle:      8 Energy:      -184.530657  Gnorm:      0.000162  CPU:    0.016
  ** Hessian has required structure
  Cycle:      9 Energy:      -184.530657  Gnorm:      0.000114  CPU:    0.018
  ** Hessian has required structure
  Cycle:     10 Energy:      -184.530657  Gnorm:      0.000091  CPU:    0.019
  ** Hessian has required structure
  Cycle:     11 Energy:      -184.530657  Gnorm:      0.000084  CPU:    0.020
  ** Hessian has required structure
  Cycle:     12 Energy:      -184.530657  Gnorm:      0.000000  CPU:    0.022
  ** Hessian has required structure
  Cycle:     13 Energy:      -184.530657  Gnorm:      0.000000  CPU:    0.023
  ** Hessian has required structure
  Cycle:     14 Energy:      -184.530657  Gnorm:      0.000000  CPU:    0.024
  ** Hessian has required structure
  Cycle:     15 Energy:      -184.530657  Gnorm:      0.000000  CPU:    0.026
  ** Hessian calculated **
  Cycle:     16 Energy:      -184.530657  Gnorm:      0.000000  CPU:    0.028
  ** Hessian has required structure
  Cycle:     17 Energy:      -184.530657  Gnorm:      0.000000  CPU:    0.029
  ** Hessian has required structure
  Cycle:     18 Energy:      -184.530657  Gnorm:      0.000000  CPU:    0.031
  ** Hessian calculated **

  XYZ File written as 004/3/sp_mod_-80/sp_mod_-80_eig.xyz



  **** Optimisation achieved ****


  Final energy =    -184.53065741 eV
  Final Gnorm  =       0.00000009

  Components of energy : 

--------------------------------------------------------------------------------
  Interatomic potentials     =          39.16346871 eV    
  Monopole - monopole (real) =        -223.69412613 eV    
--------------------------------------------------------------------------------
  Total lattice energy       =        -184.53065741 eV    
--------------------------------------------------------------------------------
  Total lattice energy       =          -17804.3876 kJ/mol
--------------------------------------------------------------------------------

  Final cartesian coordinates of atoms :

--------------------------------------------------------------------------------
   No.  Atomic        x           y          z          Radius
        Label       (Angs)      (Angs)     (Angs)       (Angs) 
--------------------------------------------------------------------------------
     1  Al    c    -0.166694    1.578679    2.385173    0.000000
     2  Al    c     2.457362    2.490246    1.703694    0.000000
     3  Al    c     1.301981    2.527514   -0.536821    0.000000
     4  F     c     0.924280    3.177103    2.653245    0.000000
     5  F     c    -1.467559    2.922188    1.961063    0.000000
     6  F     c    -0.316599   -0.261168    2.703757    0.000000
     7  F     c     1.685454    0.768062    1.914540    0.000000
     8  F     c     3.193126    2.106299   -0.110755    0.000000
     9  F     c     1.128802    3.063745   -2.254713    0.000000
    10  F     c     1.854069    4.009988    0.551131    0.000000
    11  F     c     4.008484    3.128261    2.364186    0.000000
    12  F     c    -0.115219    1.914889    0.421089    0.000000
    13  F     s     1.007104    2.890805    2.595740    0.000000
    14  F     s    -1.304104    2.660250    2.084937    0.000000
    15  F     s    -0.340472    0.060356    2.684583    0.000000
    16  F     s     1.693732    1.051442    1.908009    0.000000
    17  F     s     2.852660    2.084875    0.001075    0.000000
    18  F     s     1.145427    2.955934   -1.990760    0.000000
    19  F     s     1.799469    3.707431    0.549158    0.000000
    20  F     s     3.773400    3.016388    2.287672    0.000000
    21  F     s     0.137095    1.918562    0.384426    0.000000
--------------------------------------------------------------------------------


  Final Cartesian derivatives :

--------------------------------------------------------------------------------
   No.  Atomic          x             y             z           Radius
        Label       (eV/Angs)     (eV/Angs)    (eV/Angs)      (eV/Angs)
--------------------------------------------------------------------------------
      1 Al    c       0.000000      0.000000      0.000000      0.000000
      2 Al    c       0.000000      0.000000      0.000000      0.000000
      3 Al    c       0.000000      0.000000      0.000000      0.000000
      4 F     c       0.000000      0.000000      0.000000      0.000000
      5 F     c       0.000000      0.000000      0.000000      0.000000
      6 F     c       0.000000      0.000000      0.000000      0.000000
      7 F     c       0.000000      0.000000      0.000000      0.000000
      8 F     c       0.000000      0.000000      0.000000      0.000000
      9 F     c       0.000000      0.000000      0.000000      0.000000
     10 F     c       0.000000      0.000000      0.000000      0.000000
     11 F     c       0.000000      0.000000      0.000000      0.000000
     12 F     c       0.000000      0.000000      0.000000      0.000000
     13 F     s       0.000000     -0.000001      0.000000      0.000000
     14 F     s       0.000001     -0.000001      0.000000      0.000000
     15 F     s       0.000000      0.000001     -0.000000      0.000000
     16 F     s      -0.000001      0.000000     -0.000000      0.000000
     17 F     s       0.000000     -0.000000     -0.000000      0.000000
     18 F     s      -0.000000     -0.000000      0.000001      0.000000
     19 F     s      -0.000000      0.000000      0.000000      0.000000
     20 F     s      -0.000000     -0.000000      0.000000      0.000000
     21 F     s       0.000001     -0.000001      0.000000      0.000000
--------------------------------------------------------------------------------
  Maximum abs         0.000001      0.000001      0.000001      0.000000
--------------------------------------------------------------------------------


  Born effective charge tensors : 

-------------------------------------------------------------------------------
  Atom             x           y             z
-------------------------------------------------------------------------------
    1 Al    x       1.6432      0.1667     -0.2639
            y       0.1645      0.7140      0.0774
            z      -0.3896      0.0096      1.7577
-------------------------------------------------------------------------------
    2 Al    x       0.7786     -0.2980     -0.1317
            y      -0.2908      0.8744     -0.1160
            z      -0.0454     -0.0561      1.3326
-------------------------------------------------------------------------------
    3 Al    x       0.9948     -0.0725      0.0537
            y      -0.0661      1.1243      0.1574
            z       0.1334      0.1994      0.6432
-------------------------------------------------------------------------------
    4 F     x      -0.3929      0.0116      0.0364
            y      -0.0917     -0.3719      0.0087
            z       0.0266      0.0001     -0.3979
-------------------------------------------------------------------------------
    5 F     x      -0.3566     -0.2552      0.1049
            y      -0.1935     -0.3127     -0.0746
            z       0.0969     -0.0209     -0.5295
-------------------------------------------------------------------------------
    6 F     x      -0.5671      0.0627      0.0127
            y       0.0316     -0.0126     -0.0754
            z       0.0404     -0.1120     -0.5222
-------------------------------------------------------------------------------
    7 F     x      -0.6204      0.1737      0.0349
            y       0.2252     -0.1994      0.0029
            z       0.0231     -0.0269     -0.4735
-------------------------------------------------------------------------------
    8 F     x      -0.2593     -0.0480      0.0992
            y      -0.0191     -0.2899     -0.0529
            z       0.0189      0.0293     -0.4381
-------------------------------------------------------------------------------
    9 F     x      -0.5227     -0.0223      0.0623
            y      -0.0188     -0.4774     -0.1511
            z       0.0623     -0.1830      0.0142
-------------------------------------------------------------------------------
   10 F     x      -0.3288      0.0311      0.0177
            y       0.0443     -0.2957      0.1569
            z       0.0159      0.0847     -0.3538
-------------------------------------------------------------------------------
   11 F     x      -0.1027      0.1817      0.1938
            y       0.1675     -0.4583      0.0761
            z       0.2058      0.0935     -0.4792
-------------------------------------------------------------------------------
   12 F     x      -0.2661      0.0684     -0.2199
            y       0.0470     -0.2946     -0.0093
            z      -0.1885     -0.0177     -0.5537
-------------------------------------------------------------------------------




  Moment of inertia tensor (10^-46 x kgm^2): 

-------------------------------------------------------------------------------
                x           y           z           Principal axis system
-------------------------------------------------------------------------------
       x        136.94      -20.58       14.23          110.214017
       y        -20.58      179.10       22.34          151.994991
       z         14.23       22.34      138.70          192.532603
-------------------------------------------------------------------------------
  Centre of mass (Ang) =     1.206365     2.277248     1.149883
-------------------------------------------------------------------------------


  Vibrational Frequency Calculation : 

--------------------------------------------------------------------------------

  Frequencies (cm-1) and Eigenvectors : 

  Frequency     -60.8380  -48.4469   -0.0000   -0.0000    0.0000   31.1961
  IR Intensity    0.0010    0.0006    0.0000    0.0000    0.0000    0.0004
     in X         0.0002    0.0002    0.0000    0.0000    0.0000    0.0001
     in Y         0.0006    0.0003    0.0000    0.0000    0.0000    0.0001
     in Z         0.0002    0.0001    0.0000    0.0000    0.0000    0.0002
  Raman Intsty    0.0170    0.0497    0.0000    0.0000    0.0000    0.1170

     1 x       0.029524 -0.068195 -0.043054 -0.321853 -0.040568  0.248067
     1 y      -0.156179 -0.181537  0.017713 -0.043195  0.323897 -0.260191
     1 z       0.050447 -0.118970 -0.323916  0.040418  0.023104  0.221703
     2 x       0.002248 -0.174973 -0.043054 -0.321853 -0.040568 -0.105336
     2 y      -0.231695  0.078108  0.017713 -0.043195  0.323897  0.196487
     2 z      -0.073139  0.156812 -0.323916  0.040418  0.023104 -0.126212
     3 x      -0.071050  0.241073 -0.043054 -0.321853 -0.040568 -0.140003
     3 y       0.425028  0.147881  0.017713 -0.043195  0.323897  0.103131
     3 z      -0.033086 -0.067327 -0.323916  0.040418  0.023104 -0.127879
     4 x       0.070605 -0.270197 -0.036130 -0.270093 -0.034044 -0.058871
     4 y      -0.178664  0.047116  0.014864 -0.036248  0.271809  0.109590
     4 z       0.044487 -0.074437 -0.271824  0.033918  0.019388 -0.075983
     5 x       0.017555 -0.119926 -0.036130 -0.270093 -0.034044  0.059839
     5 y      -0.136224 -0.264218  0.014864 -0.036248  0.271809 -0.381840
     5 z       0.061917 -0.256820 -0.271824  0.033918  0.019388  0.178147
     6 x       0.007213 -0.117162 -0.036130 -0.270093 -0.034044  0.260388
     6 y      -0.122238 -0.168991  0.014864 -0.036248  0.271809 -0.222528
     6 z       0.073514 -0.208160 -0.271824  0.033918  0.019388  0.225781
     7 x      -0.077755 -0.036644 -0.036130 -0.270093 -0.034044  0.118714
     7 y      -0.168827  0.017908  0.014864 -0.036248  0.271809  0.086127
     7 z      -0.167702  0.246052 -0.271824  0.033918  0.019388  0.216211
     8 x      -0.098109  0.097073 -0.036130 -0.270093 -0.034044 -0.133085
     8 y       0.086684  0.028790  0.014864 -0.036248  0.271809  0.047314
     8 z      -0.138828  0.225607 -0.271824  0.033918  0.019388 -0.060457
     9 x      -0.043181  0.363588 -0.036130 -0.270093 -0.034044 -0.166378
     9 y       0.549809  0.135540  0.014864 -0.036248  0.271809  0.033856
     9 z       0.031011 -0.068883 -0.271824  0.033918  0.019388 -0.118133
    10 x       0.112329  0.073498 -0.036130 -0.270093 -0.034044 -0.107511
    10 y       0.103939  0.102173  0.014864 -0.036248  0.271809  0.129669
    10 z       0.203362  0.024176 -0.271824  0.033918  0.019388 -0.175104
    11 x       0.049455 -0.208080 -0.036130 -0.270093 -0.034044 -0.068604
    11 y      -0.368242  0.062975  0.014864 -0.036248  0.271809  0.252745
    11 z      -0.004520  0.278590 -0.271824  0.033918  0.019388 -0.227633
    12 x       0.008694  0.220348 -0.036130 -0.270093 -0.034044  0.092259
    12 y       0.189489 -0.014262  0.014864 -0.036248  0.271809 -0.101916
    12 z      -0.036773 -0.130988 -0.271824  0.033918  0.019388  0.075764


  Frequency      61.5784   71.6203  107.9308  136.3944  147.1811  151.2885
  IR Intensity    0.0010    0.0003    0.0030    0.0114    0.0030    0.0152
     in X         0.0000    0.0000    0.0014    0.0053    0.0001    0.0007
     in Y         0.0004    0.0003    0.0006    0.0035    0.0022    0.0144
     in Z         0.0006    0.0000    0.0009    0.0026    0.0007    0.0001
  Raman Intsty    0.0366    0.0035    0.0356    0.0033    0.0717    0.0966

     1 x      -0.012383 -0.020150 -0.071052 -0.008038  0.054416 -0.119188
     1 y      -0.122965  0.071385  0.107927 -0.018372 -0.024913  0.029806
     1 z      -0.186748 -0.085035  0.036577  0.122453 -0.053676 -0.024111
     2 x       0.090935  0.091778 -0.014997 -0.027317 -0.045222  0.086363
     2 y       0.084034 -0.113203 -0.101561 -0.114908  0.302476 -0.140064
     2 z       0.077441  0.041707 -0.042911 -0.028481  0.082244 -0.009024
     3 x      -0.034408 -0.061723  0.020066 -0.107939  0.003232  0.096535
     3 y      -0.027458  0.092528 -0.040956  0.024472 -0.349063 -0.158838
     3 z       0.154675  0.074575 -0.071279 -0.021102  0.054527  0.016037
     4 x       0.000081  0.015815 -0.001408  0.106781 -0.128215 -0.016986
     4 y      -0.250505  0.048376 -0.047348 -0.131066  0.181193 -0.088749
     4 z       0.186325 -0.136399 -0.011319  0.187219  0.023075 -0.130403
     5 x      -0.025494  0.046178  0.054215  0.129657 -0.027356 -0.237515
     5 y      -0.089281  0.131729  0.093852  0.145482 -0.095623 -0.084247
     5 z      -0.077448 -0.103469 -0.400988  0.188263 -0.019370  0.073187
     6 x       0.218790 -0.178939  0.003708 -0.231392  0.132325  0.114282
     6 y      -0.145754  0.025161  0.202092 -0.046184 -0.040400  0.028940
     6 z      -0.280632 -0.372263  0.608798 -0.178389 -0.057529  0.092525
     7 x       0.204259  0.204933  0.010747 -0.034760 -0.105600  0.036030
     7 y      -0.010950 -0.078786 -0.072341 -0.096665  0.265432 -0.098724
     7 z      -0.327147  0.469361 -0.003406  0.079556 -0.052033 -0.090939
     8 x       0.114274 -0.093127  0.050894 -0.122450 -0.003729  0.036415
     8 y       0.351736 -0.109123  0.065374 -0.070107 -0.160537 -0.363733
     8 z      -0.027680 -0.007294 -0.052026 -0.014887  0.078080 -0.010108
     9 x      -0.164571 -0.399280  0.068445  0.592759  0.140862 -0.080607
     9 y       0.069916  0.225168  0.236357  0.126532  0.449007  0.317563
     9 z       0.173246  0.144739  0.014243 -0.060975  0.261170  0.169833
    10 x      -0.291891  0.091375 -0.162533 -0.201522 -0.107651  0.345236
    10 y      -0.006303  0.002725 -0.084345 -0.056601 -0.123251 -0.145695
    10 z       0.230331  0.050820  0.065586  0.098631 -0.066463 -0.105058
    11 x      -0.043406  0.121498 -0.105257 -0.020734  0.286326 -0.183292
    11 y       0.332343  0.022681  0.093672  0.316303 -0.269744  0.514995
    11 z       0.095745 -0.171290  0.006050 -0.405549 -0.174234 -0.003122
    12 x      -0.064646  0.179744  0.159817 -0.047586 -0.201768 -0.089483
    12 y      -0.172091 -0.328358 -0.446093 -0.058034 -0.120875  0.240313
    12 z      -0.026802  0.088560 -0.134452  0.019297 -0.091715  0.024460


  Frequency     167.3291  172.9897  202.4517  214.8431  239.5525  253.7182
  IR Intensity    0.0092    0.0136    0.0102    0.0164    0.0106    0.0180
     in X         0.0006    0.0072    0.0076    0.0141    0.0083    0.0000
     in Y         0.0032    0.0050    0.0002    0.0015    0.0002    0.0129
     in Z         0.0053    0.0014    0.0023    0.0008    0.0022    0.0051
  Raman Intsty    0.0171    0.2074    0.1852    0.0447    0.0036    0.0072

     1 x       0.157916  0.134684  0.197120  0.024591 -0.164180  0.010645
     1 y       0.000404 -0.102598 -0.207068  0.111622 -0.023038  0.152409
     1 z       0.091777  0.061574 -0.218534  0.013763 -0.064408  0.136150
     2 x       0.013975 -0.187723  0.109156 -0.044523 -0.201636  0.027547
     2 y      -0.004092  0.121274  0.018673 -0.045174 -0.091674  0.030996
     2 z      -0.142317  0.022234  0.121676 -0.061646  0.157550 -0.024157
     3 x      -0.128242  0.192574 -0.174202 -0.206661  0.162538 -0.102442
     3 y      -0.082460 -0.146926  0.196659  0.007853  0.130210  0.174291
     3 z      -0.075047 -0.187575  0.240167 -0.029422 -0.029656  0.067609
     4 x       0.076739  0.107212  0.038305  0.092596 -0.215138  0.170294
     4 y       0.094450 -0.064960  0.067711 -0.024895  0.007730  0.068758
     4 z      -0.192026  0.502090 -0.162056  0.241345 -0.020762  0.334303
     5 x       0.279832  0.352879  0.386408  0.082575  0.151090 -0.289946
     5 y       0.211515  0.074855  0.000646  0.055083  0.379687 -0.212395
     5 z       0.343847 -0.159205 -0.267936 -0.450823  0.213762 -0.020231
     6 x       0.002277 -0.275142 -0.148578  0.516946  0.534835  0.063107
     6 y      -0.035054 -0.079162 -0.109622  0.029787 -0.093762  0.093933
     6 z      -0.169103 -0.041448  0.150457 -0.148674 -0.032668 -0.170867
     7 x      -0.023432 -0.176061 -0.181982  0.088448 -0.264720 -0.278693
     7 y      -0.001963  0.055130  0.034903 -0.021139 -0.073700  0.157244
     7 z      -0.070328 -0.091689 -0.103957  0.254473 -0.043580 -0.256571
     8 x      -0.046779  0.094761 -0.198713 -0.255581  0.013599 -0.143975
     8 y      -0.047543 -0.123554 -0.161284 -0.218275 -0.094504 -0.144736
     8 z      -0.065825  0.064184  0.177196 -0.080587  0.201770 -0.046893
     9 x       0.058140 -0.344577  0.001881  0.119073 -0.106429  0.049762
     9 y       0.212581  0.127969 -0.150127  0.003064 -0.059322 -0.095195
     9 z      -0.001963 -0.037262  0.109557 -0.064001 -0.058068 -0.029207
    10 x      -0.037372  0.015232  0.188563 -0.091912  0.056229  0.341592
    10 y      -0.042841 -0.066874  0.137161 -0.045624  0.036192  0.117042
    10 z      -0.165868 -0.128859  0.060032  0.010658  0.105824 -0.053555
    11 x      -0.298043 -0.132483  0.079376 -0.138262 -0.062651  0.002875
    11 y      -0.012650  0.064720  0.202087 -0.074597 -0.004128  0.044059
    11 z       0.567824 -0.022409  0.006552  0.171532 -0.230929  0.021759
    12 x      -0.063376  0.191905 -0.322645 -0.143863  0.135419  0.161548
    12 y      -0.275838  0.164703 -0.031324  0.208057 -0.116662 -0.454953
    12 z      -0.096904  0.038251 -0.140617  0.158196 -0.211001  0.007241


  Frequency     279.9914  292.5645  308.2484  332.1219  358.4618  377.9636
  IR Intensity    0.0634    0.0431    0.0207    0.0447    0.0785    0.0023
     in X         0.0621    0.0030    0.0005    0.0006    0.0017    0.0001
     in Y         0.0004    0.0077    0.0072    0.0076    0.0032    0.0014
     in Z         0.0010    0.0324    0.0129    0.0365    0.0736    0.0008
  Raman Intsty    0.1104    0.0966    0.2256    0.4847    0.9964    0.2476

     1 x       0.250128  0.009348 -0.073209  0.083998 -0.073301 -0.279084
     1 y       0.128944  0.025055 -0.007146  0.002102  0.123590 -0.103554
     1 z       0.016003  0.340800  0.196874 -0.407863  0.548777  0.102902
     2 x       0.127603 -0.052586  0.023944 -0.030638  0.003745  0.250824
     2 y      -0.193041 -0.145246 -0.109155 -0.144445 -0.015633  0.027317
     2 z       0.000865 -0.029878 -0.020538  0.019144 -0.017768 -0.131495
     3 x       0.129341 -0.042786 -0.038692 -0.071217  0.051405  0.025098
     3 y       0.037244 -0.113491 -0.104897 -0.037885  0.070303  0.048489
     3 z      -0.095037  0.123867  0.000100  0.043549 -0.016244  0.025417
     4 x       0.263742 -0.065265  0.080034  0.323136  0.058581  0.180796
     4 y       0.263251  0.237408 -0.075758 -0.012110 -0.089252 -0.389475
     4 z      -0.090278 -0.342114  0.120613  0.052618 -0.069686 -0.170518
     5 x      -0.094626  0.146510  0.031406 -0.123304 -0.012482 -0.065436
     5 y      -0.271188 -0.021657 -0.002509 -0.041719 -0.040574  0.144063
     5 z       0.036395 -0.270862 -0.072214  0.082957 -0.154157 -0.061388
     6 x       0.037340  0.051539  0.069022  0.081397 -0.021465  0.026183
     6 y       0.129868 -0.084697 -0.086838  0.106073  0.023517 -0.242762
     6 z      -0.100342 -0.172218 -0.048543  0.056835 -0.132905  0.036331
     7 x      -0.361390 -0.284423 -0.232115 -0.145310  0.302107 -0.323193
     7 y      -0.012840 -0.099632  0.025039 -0.244321 -0.144978  0.369250
     7 z       0.135603 -0.242870  0.364056  0.057662 -0.176039  0.144749
     8 x       0.122072  0.107643  0.200160  0.004566  0.058516  0.099785
     8 y      -0.102407  0.208082  0.510387  0.185871 -0.124759 -0.161693
     8 z       0.072545 -0.006139 -0.100324  0.422694  0.465973 -0.039593
     9 x      -0.154452  0.056944 -0.018028  0.037819 -0.084219 -0.018227
     9 y      -0.005969  0.007552  0.010854  0.100135  0.014172  0.010397
     9 z      -0.086176  0.172240  0.035990  0.084810 -0.032858  0.022640
    10 x      -0.364959  0.000726  0.353210 -0.146070 -0.120889 -0.247431
    10 y      -0.171667 -0.040147 -0.121751  0.185943  0.215300  0.194034
    10 z       0.345164  0.002836 -0.169946 -0.477339 -0.175532 -0.135698
    11 x       0.000095 -0.089311 -0.019063 -0.052704  0.040903  0.211666
    11 y       0.108842  0.018219  0.038299 -0.054621 -0.055153  0.070383
    11 z       0.031905 -0.125740 -0.058645 -0.052272 -0.050920  0.143164
    12 x      -0.052068  0.178147 -0.359813  0.041749 -0.199422  0.139625
    12 y       0.094110  0.053336 -0.034135 -0.010485 -0.010694  0.038866
    12 z      -0.251667  0.466756 -0.281237  0.183351 -0.287290  0.064099


  Frequency     408.0893  458.4848  463.2479  491.6375  545.1516  577.9342
  IR Intensity    0.0002    0.0354    0.0455    0.0099    0.0036    0.0981
     in X         0.0001    0.0226    0.0114    0.0006    0.0004    0.0320
     in Y         0.0001    0.0056    0.0012    0.0007    0.0009    0.0166
     in Z         0.0000    0.0072    0.0329    0.0086    0.0023    0.0495
  Raman Intsty    0.0602    1.9573    1.2317    1.6826    1.1516    0.0292

     1 x       0.033865  0.287861  0.030293 -0.003014 -0.028272 -0.161204
     1 y      -0.000876  0.139847  0.036891 -0.038201 -0.001643 -0.031419
     1 z      -0.048927 -0.007151  0.095005 -0.076674  0.001356  0.024355
     2 x      -0.171977  0.034456  0.127904  0.131466  0.104479 -0.289811
     2 y       0.023672 -0.004007 -0.109601 -0.119324 -0.243927  0.208746
     2 z      -0.243865 -0.124627  0.258028 -0.118815 -0.042092  0.498992
     3 x       0.168277 -0.055594  0.120203 -0.217578 -0.061088  0.007820
     3 y       0.003868  0.002817  0.017244  0.247562  0.340671  0.263907
     3 z       0.239308  0.004487  0.046929  0.015382  0.142957  0.091931
     4 x       0.091397 -0.435874 -0.316213 -0.271104 -0.111882  0.312061
     4 y       0.056199 -0.527911  0.113029  0.235327  0.076234 -0.152026
     4 z       0.052583 -0.061994  0.159154  0.220582  0.086984 -0.207601
     5 x       0.015305  0.189349  0.050739 -0.043462  0.069678  0.139246
     5 y      -0.026399 -0.201019 -0.045935  0.082699 -0.056859 -0.151039
     5 z       0.017023  0.065585  0.001868 -0.010509  0.023126  0.018422
     6 x      -0.006698  0.033913  0.006093 -0.014296 -0.010425  0.037670
     6 y       0.020799  0.483843  0.055089 -0.126800  0.016325  0.218602
     6 z       0.003185 -0.097354 -0.028023  0.037855 -0.000118 -0.048958
     7 x       0.034266 -0.173313 -0.136684  0.024990  0.139856  0.016069
     7 y      -0.044247  0.089673 -0.375433 -0.033098  0.351899 -0.020940
     7 z       0.099901  0.068412  0.004705 -0.011396 -0.046942 -0.018399
     8 x       0.304346  0.097910 -0.131549  0.611598 -0.041229  0.227820
     8 y      -0.202630 -0.017729 -0.029734 -0.195175  0.017397 -0.116431
     8 z      -0.305619  0.102244 -0.389927  0.051213  0.056495 -0.245484
     9 x       0.046306 -0.006070  0.008610 -0.014067  0.036045  0.001114
     9 y      -0.120292 -0.002847 -0.024217  0.072512 -0.116222  0.020905
     9 z       0.403571 -0.000866  0.113351 -0.256846  0.352992 -0.131512
    10 x      -0.075452  0.027799 -0.209060 -0.051227 -0.136854 -0.056825
    10 y       0.438702  0.050026  0.178793 -0.056849 -0.451031 -0.223415
    10 z       0.052973  0.008188 -0.352090 -0.085069 -0.311414 -0.171219
    11 x      -0.350607 -0.025465  0.333898  0.093659 -0.174572 -0.027049
    11 y      -0.132043 -0.020408  0.137599  0.027741 -0.071879 -0.030105
    11 z      -0.152585 -0.033275  0.164435  0.030721 -0.079763 -0.030788
    12 x      -0.094811 -0.026086  0.062414 -0.229885  0.211365 -0.121979
    12 y      -0.021863 -0.018856  0.056904 -0.113649  0.120811 -0.071343
    12 z      -0.107298  0.100746 -0.150084  0.238071 -0.203171  0.102352


  Frequency     606.3877  636.0425  735.0571  787.8218  808.0413  886.7103
  IR Intensity    0.0412    0.0734    0.0308    0.0128    0.0106    0.0003
     in X         0.0006    0.0618    0.0146    0.0005    0.0019    0.0000
     in Y         0.0390    0.0002    0.0079    0.0122    0.0044    0.0001
     in Z         0.0016    0.0114    0.0083    0.0002    0.0043    0.0001
  Raman Intsty    0.2052    0.0778    0.4265    0.0009    0.0921    0.8807

     1 x       0.312436  0.538540  0.120014  0.110031  0.032026 -0.090429
     1 y       0.038653  0.081750 -0.024581 -0.554486  0.504447 -0.084569
     1 z       0.062238  0.056618  0.023589  0.098729 -0.115031  0.022273
     2 x      -0.136848  0.036778 -0.041146 -0.317390 -0.387673  0.466563
     2 y       0.451434 -0.184718 -0.107537 -0.241198 -0.213332  0.195808
     2 z      -0.196164  0.348527  0.315728 -0.061129  0.044891  0.271865
     3 x      -0.150242  0.222849 -0.639424  0.022488 -0.064018 -0.095804
     3 y       0.200703  0.021884 -0.265383  0.044974  0.064495  0.089189
     3 z       0.025076  0.032839  0.028110 -0.269216 -0.387642 -0.621963
     4 x       0.017579 -0.064579  0.029859  0.058505  0.019230 -0.019633
     4 y      -0.163061 -0.143509 -0.017326  0.070775 -0.084382  0.018315
     4 z      -0.065048 -0.068388 -0.031979 -0.002656 -0.041633  0.014667
     5 x      -0.279994 -0.338436 -0.060120 -0.184222  0.120133 -0.001542
     5 y       0.235469  0.281159  0.043551  0.210553 -0.145488  0.008630
     5 z      -0.074806 -0.094166 -0.017888 -0.053071  0.046677  0.000292
     6 x      -0.015620 -0.048321 -0.000300  0.035510 -0.023037  0.004565
     6 y      -0.138554 -0.221534  0.017591  0.380487 -0.327069  0.043386
     6 z       0.015945  0.030232 -0.006181 -0.069957  0.058024 -0.004971
     7 x      -0.130657  0.034306  0.050302  0.064876  0.069918 -0.054335
     7 y      -0.384581  0.217742  0.080251  0.156486  0.114135 -0.094940
     7 z       0.050277 -0.039622 -0.016588 -0.022013 -0.022247 -0.000234
     8 x       0.090622 -0.072581  0.249137  0.030263  0.070610  0.041251
     8 y      -0.042886  0.015563 -0.049524  0.009624 -0.012408 -0.022931
     8 z       0.038442 -0.114233 -0.045314  0.002556  0.006730  0.014627
     9 x       0.026026 -0.021420  0.016700  0.019544  0.033325  0.030152
     9 y      -0.088740  0.038141  0.023596 -0.063748 -0.086181 -0.099871
     9 z       0.226369 -0.123527 -0.047567  0.214654  0.284060  0.324003
    10 x       0.020867 -0.057217  0.057541  0.015473  0.030236  0.010933
    10 y      -0.312126  0.050622  0.199754  0.041519  0.060087  0.065778
    10 z      -0.003698 -0.105618  0.058300  0.033196  0.036859  0.049583
    11 x       0.113718 -0.214493 -0.034123  0.265092  0.253687 -0.259427
    11 y       0.024516 -0.075968 -0.011072  0.117524  0.101813 -0.108310
    11 z       0.048533 -0.104195 -0.027901  0.115790  0.104730 -0.106876
    12 x       0.127255 -0.168384  0.358982 -0.084741 -0.074012 -0.086015
    12 y       0.046792 -0.065593  0.186855 -0.028645 -0.044264 -0.048893
    12 z      -0.106304  0.097600 -0.302722  0.057504  0.072310  0.099558




--------------------------------------------------------------------------------
  Vibrational properties (for cluster):  Temperature  =       0.000 K
--------------------------------------------------------------------------------
  Zero point energy            =        0.699327 eV
--------------------------------------------------------------------------------

  Phonon density of states : 

--------------------------------------------------------------------------------
 Frequency (cm-1) Density of States                                             
--------------------------------------------------------------------------------
    0.00000 |******************************                                0.031
   13.85485 |                                                              0.000
   27.70970 |******************************                                0.031
   41.56455 |                                                              0.000
   55.41940 |******************************                                0.031
   69.27424 |******************************                                0.031
   83.12909 |                                                              0.000
   96.98394 |******************************                                0.031
  110.83879 |                                                              0.000
  124.69364 |******************************                                0.031
  138.54849 |************************************************************  0.062
  152.40334 |                                                              0.000
  166.25819 |************************************************************  0.062
  180.11304 |                                                              0.000
  193.96788 |******************************                                0.031
  207.82273 |******************************                                0.031
  221.67758 |                                                              0.000
  235.53243 |******************************                                0.031
  249.38728 |******************************                                0.031
  263.24213 |                                                              0.000
  277.09698 |******************************                                0.031
  290.95183 |******************************                                0.031
  304.80668 |******************************                                0.031
  318.66152 |******************************                                0.031
  332.51637 |                                                              0.000
  346.37122 |******************************                                0.031
  360.22607 |                                                              0.000
  374.08092 |******************************                                0.031
  387.93577 |                                                              0.000
  401.79062 |******************************                                0.031
  415.64547 |                                                              0.000
  429.50032 |                                                              0.000
  443.35516 |                                                              0.000
  457.21001 |************************************************************  0.062
  471.06486 |                                                              0.000
  484.91971 |******************************                                0.031
  498.77456 |                                                              0.000
  512.62941 |                                                              0.000
  526.48426 |                                                              0.000
  540.33911 |******************************                                0.031
  554.19396 |                                                              0.000
  568.04880 |******************************                                0.031
  581.90365 |                                                              0.000
  595.75850 |******************************                                0.031
  609.61335 |                                                              0.000
  623.46820 |******************************                                0.031
  637.32305 |                                                              0.000
  651.17790 |                                                              0.000
  665.03275 |                                                              0.000
  678.88760 |                                                              0.000
  692.74244 |                                                              0.000
  706.59729 |                                                              0.000
  720.45214 |                                                              0.000
  734.30699 |******************************                                0.031
  748.16184 |                                                              0.000
  762.01669 |                                                              0.000
  775.87154 |******************************                                0.031
  789.72639 |                                                              0.000
  803.58124 |******************************                                0.031
  817.43608 |                                                              0.000
  831.29093 |                                                              0.000
  845.14578 |                                                              0.000
  859.00063 |                                                              0.000
  872.85548 |******************************                                0.031
--------------------------------------------------------------------------------



  Time to end of optimisation =       0.0412 seconds


  Peak dynamic memory used =       0.65 MB 


  Timing analysis for GULP :

--------------------------------------------------------------------------------
  Task / Subroutine                                          Time (Seconds)
--------------------------------------------------------------------------------
  Calculation of real space energy and derivatives                0.0029
  Calculation of phonons                                          0.0017
  Calculation and manipulation of Hessian matrix                  0.0019
--------------------------------------------------------------------------------
  Total CPU time                                                  0.0413
--------------------------------------------------------------------------------


  Job Finished at 14:39.51 25th May        2022                               

