------------------------------------------------------------
          Invoking FHI-aims ...

          When using FHI-aims, please cite the following reference:

            Volker Blum, Ralf Gehrke, Felix Hanke, Paula Havu,
            Ville Havu, Xinguo Ren, Karsten Reuter, and Matthias Scheffler,
            'Ab Initio Molecular Simulations with Numeric Atom-Centered Orbitals',
            Computer Physics Communications 180, 2175-2196 (2009)

          In addition, many other developments in FHI-aims are likely important for
          your particular application. A partial list of references is given at the end of
          this file. Thank you for giving credit to the authors of these developments.

          For any questions about FHI-aims, please visit our slack channel at

            https://fhi-aims.slack.com

          and our main development and support site at

            https://aims-git.rz-berlin.mpg.de .

          The latter site, in particular, has a wiki to collect information, as well
          as an issue tracker to log discussions, suggest improvements, and report issues
          or bugs. https://aims-git.rz-berlin.mpg.de is also the main development site
          of the project and all new and updated code versions can be obtained there.
          Please send an email to aims-coordinators@fhi-berlin.mpg.de and we will add
          you to these sites. They are for you and everyone is welcome there.

------------------------------------------------------------



  Date     :  20220517, Time     :  121236.844
  Time zero on CPU 1             :   0.436670000000000E-01  s.
  Internal wall clock time zero  :           422021556.844  s.

  FHI-aims created a unique identifier for this run for later identification
  aims_uuid : 3272CB44-AD6E-4D2D-A2BA-9B17884BD33E

  Build configuration of the current instance of FHI-aims
  -------------------------------------------------------
  FHI-aims version      : 210914
  Commit number         : GITDIR-NOTFOUND
  CMake host system     : Linux-3.10.0-693.17.1.el7.x86_64
  CMake version         : 3.21.1
  Fortran compiler      : /shared/ucl/apps/intel/2018.Update3/impi/2018.3.222/intel64/bin/mpiifort (Intel) version 18.0.3.20180410
  Fortran compiler flags: -O3 -ip -fp-model precise
  C compiler            : /shared/ucl/apps/intel/2018.Update3/compilers_and_libraries_2018.3.222/linux/bin/intel64/icc (Intel) version 18.0.3.20180410
  C compiler flags      : -O3 -ip -fp-model precise -std=gnu99
  ELPA2 kernel          : AVX2
  Using MPI
  Using ScaLAPACK
  Using LibXC
  Using i-PI
  Using RLSY
  Linking against: /shared/ucl/apps/intel/2019.Update5/compilers_and_libraries_2019.5.281/linux/mkl/lib/intel64/libmkl_intel_lp64.so
                   /shared/ucl/apps/intel/2019.Update5/compilers_and_libraries_2019.5.281/linux/mkl/lib/intel64/libmkl_sequential.so
                   /shared/ucl/apps/intel/2019.Update5/compilers_and_libraries_2019.5.281/linux/mkl/lib/intel64/libmkl_core.so
                   /shared/ucl/apps/intel/2019.Update5/compilers_and_libraries_2019.5.281/linux/mkl/lib/intel64/libmkl_blacs_intelmpi_lp64.so
                   /shared/ucl/apps/intel/2019.Update5/compilers_and_libraries_2019.5.281/linux/mkl/lib/intel64/libmkl_scalapack_lp64.so

  Using       24 parallel tasks.
  Task        0 on host node-k98a-018 reporting.
  Task        1 on host node-k98a-018 reporting.
  Task        2 on host node-k98a-018 reporting.
  Task        3 on host node-k98a-018 reporting.
  Task        4 on host node-k98a-018 reporting.
  Task        5 on host node-k98a-018 reporting.
  Task        6 on host node-k98a-018 reporting.
  Task        7 on host node-k98a-018 reporting.
  Task        8 on host node-k98a-018 reporting.
  Task        9 on host node-k98a-018 reporting.
  Task       10 on host node-k98a-018 reporting.
  Task       11 on host node-k98a-018 reporting.
  Task       12 on host node-k98a-018 reporting.
  Task       13 on host node-k98a-018 reporting.
  Task       14 on host node-k98a-018 reporting.
  Task       15 on host node-k98a-018 reporting.
  Task       16 on host node-k98a-018 reporting.
  Task       17 on host node-k98a-018 reporting.
  Task       18 on host node-k98a-018 reporting.
  Task       19 on host node-k98a-018 reporting.
  Task       20 on host node-k98a-018 reporting.
  Task       21 on host node-k98a-018 reporting.
  Task       22 on host node-k98a-018 reporting.
  Task       23 on host node-k98a-018 reporting.

  Performing system and environment tests:
  | Environment variable OMP_NUM_THREADS correctly set to 1.
  | Checking for ScaLAPACK...
  | Testing pdtran()...
  | All pdtran() tests passed.

  Obtaining array dimensions for all initial allocations:
  
  -----------------------------------------------------------------------
  Parsing control.in (first pass over file, find array dimensions only).
  The contents of control.in will be repeated verbatim below
  unless switched off by setting 'verbatim_writeout .false.' .
  in the first line of control.in .
  -----------------------------------------------------------------------
  
  #########################################################################################  Physical model
  #########################################################################################
  xc                 pbesol
  spin               none
  relativistic       atomic_zora scalar
  charge             0.0
  #  SCF convergence
  occupation_type    gaussian 0.01
  mixer              pulay
  n_max_pulay        10
  charge_mix_param   0.5
  sc_accuracy_rho    1E-5
  sc_accuracy_eev    1E-3
  sc_accuracy_etot   1E-6
  sc_accuracy_forces 1E-4
  sc_iter_limit      1500
  #  Relaxation
  #relax_geometry   bfgs 1.e-3
  
  ################################################################################
  #
  #  FHI-aims code project
  #  VB, Fritz-Haber Institut, 2009
  #
  #  Suggested "light" defaults for Al atom (to be pasted into control.in file)
  #  Be sure to double-check any results obtained with these settings for post-processing,
  #  e.g., with the "tight" defaults and larger basis sets.
  #
  ################################################################################
    species        Al
  #     global species definitions
      nucleus             13
      mass                26.9815386
  #
      l_hartree           4
  #
      cut_pot             3.5          1.5  1.0
      basis_dep_cutoff    1e-4
  #
      radial_base         41 5.0
      radial_multiplier   1
      angular_grids       specified
        division   0.6594  110
        division   0.8170  194
        division   0.9059  302
  #      division   1.0363  434
  #      division   1.1443  590
  #      division   1.2621  770
  #      division   2.8177  974
  #      outer_grid   974
        outer_grid   302
  ################################################################################
  #
  #  Definition of "minimal" basis
  #
  ################################################################################
  #     valence basis states
      valence      3  s   2.
      valence      3  p   1.
  #     ion occupancy
      ion_occ      3  s   1.
      ion_occ      2  p   6.
  ################################################################################
  #
  #  Suggested additional basis functions. For production calculations,
  #  uncomment them one after another (the most important basis functions are
  #  listed first).
  #
  #  Constructed for dimers: 2.0 A, 2.5 A, 3.0 A, 3.75 A, 4.5 A
  #
  ################################################################################
  #  "First tier" - improvements: -199.47 meV to -10.63 meV
       ionic 3 d auto
       ionic 3 p auto
  #     hydro 4 f 4.7
       ionic 3 s auto
  #  "Second tier" - improvements: -5.35 meV to -1.57 meV
  #     hydro 5 g 7
  #     hydro 3 d 6
  #     hydro 2 s 11.6
  #     hydro 2 p 0.9
  #  "Third tier" - improvements: -0.63 meV to -0.20 meV
  #     hydro 5 f 7.6
  #     hydro 4 p 7.2
  #     hydro 4 s 3.7
  #     hydro 4 d 7.6
  #  "Fourth tier" - improvements: -0.17 meV to -0.08 meV
  #     hydro 4 d 13.6
  #     hydro 5 g 11.2
  #     hydro 4 d 0.9
  #     hydro 1 s 0.4
  #     hydro 4 p 0.1
  #     hydro 5 f 9.8
  #  Further basis functions that fell out of the optimization - noise level...
  #     hydro 4 p 5
  
  ################################################################################
  #
  #  FHI-aims code project
  #  VB, Fritz-Haber Institut, 2009
  #
  #  Suggested "light" defaults for F atom (to be pasted into control.in file)
  #  Be sure to double-check any results obtained with these settings for post-processing,
  #  e.g., with the "tight" defaults and larger basis sets.
  #
  ################################################################################
    species        F
  #     global species definitions
      nucleus             9
      mass                18.9984032
  #
      l_hartree           4
  #
      cut_pot             3.5  1.5  1.0
      basis_dep_cutoff    1e-4
  #
      radial_base         37 5.0
      radial_multiplier   1
      angular_grids specified
        division   0.4014  110
        division   0.5291  194
        division   0.6019  302
  #      division   0.6814  434
  #      division   0.7989  590
  #      division   0.8965  770
  #      division   1.3427  974
  #      outer_grid   974
        outer_grid   302
  ################################################################################
  #
  #  Definition of "minimal" basis
  #
  ################################################################################
  #     valence basis states
      valence      2  s   2.
      valence      2  p   5.
  #     ion occupancy
      ion_occ      2  s   1.
      ion_occ      2  p   4.
  ################################################################################
  #
  #  Suggested additional basis functions. For production calculations,
  #  uncomment them one after another (the most important basis functions are
  #  listed first).
  #
  #  Constructed for dimers: 1.2 A, 1.418 A, 1.75 A, 2.25 A, 3.25 A
  #
  ################################################################################
  #  "First tier" - improvements: -149.44 meV to -45.88 meV
       hydro 2 p 1.7
       hydro 3 d 7.4
       hydro 3 s 6.8
  #  "Second tier" - improvements: -12.96 meV to -1.56 meV
  #     hydro 4 f 11.2
  #     ionic 2 p auto
  #     hydro 1 s 0.75
  #     hydro 4 d 8.8
  #     hydro 5 g 16.8
  #  "Third tier" - improvements: -0.58 meV to -0.05 meV
  #     hydro 3 p 6.2
  #     hydro 3 s 3.2
  #     hydro 4 f 9.6
  #     hydro 3 s 19.6
  #     hydro 4 d 8.6
  #     hydro 5 g 14.4
  # Further basis functions: -0.05 meV and below
  #     hydro 3 p 4.2
  
  -----------------------------------------------------------------------
  Completed first pass over input file control.in .
  -----------------------------------------------------------------------
  
  
  -----------------------------------------------------------------------
  Parsing geometry.in (first pass over file, find array dimensions only).
  The contents of geometry.in will be repeated verbatim below
  unless switched off by setting 'verbatim_writeout .false.' .
  in the first line of geometry.in .
  -----------------------------------------------------------------------
  
  atom -0.053814613 1.634786772 2.146342820 Al
  atom 2.477632496 2.820847025 1.667110775 Al
  atom 1.272592484 2.766463384 -0.619830054 Al
  atom 1.010385378 3.072946936 2.830491263 F
  atom -1.633931083 2.720226722 2.178383586 F
  atom -0.488005871 -0.031960266 2.754437830 F
  atom 1.759726953 0.679731593 1.952948665 F
  atom 3.061198945 1.794934653 -0.045267216 F
  atom 1.095758209 3.020056933 -2.363799812 F
  atom 1.769762894 3.884073787 0.629707267 F
  atom 4.182178968 3.138660777 2.492493980 F
  atom 0.014119409 1.805137810 0.201256293 F
  
  -----------------------------------------------------------------------
  Completed first pass over input file geometry.in .
  -----------------------------------------------------------------------
  

  Basic array size parameters:
  | Number of species                 :        2
  | Number of atoms                   :       12
  | Max. basis fn. angular momentum   :        2
  | Max. atomic/ionic basis occupied n:        3
  | Max. number of basis fn. types    :        3
  | Max. radial fns per species/type  :        5
  | Max. logarithmic grid size        :     1340
  | Max. radial integration grid size :       41
  | Max. angular integration grid size:      302
  | Max. angular grid division number :        8
  | Radial grid for Hartree potential :     1340
  | Number of spin channels           :        1

------------------------------------------------------------
          Reading file control.in.
------------------------------------------------------------
  XC: Using PBEsol gradient-corrected functionals.
  Spin treatment: No spin polarisation.
  Scalar relativistic treatment of kinetic energy: on-site free-atom approximation to ZORA.
  Charge =   0.000000E+00: Neutral system requested explicitly.
  Occupation type: Gaussian broadening, width =   0.100000E-01 eV.
  Using pulay charge density mixing.
  Pulay mixing - number of memorized iterations:   10
  Charge density mixing - mixing parameter:     0.5000
  Convergence accuracy of self-consistent charge density:  0.1000E-04
  Convergence accuracy of sum of eigenvalues:  0.1000E-02
  Convergence accuracy of total energy:  0.1000E-05
  Convergence accuracy of forces:  0.1000E-03
  Maximum number of s.-c. iterations  :  1500
 
  Reading configuration options for species Al                  .
  | Found nuclear charge :  13.0000
  | Found atomic mass :    26.9815386000000      amu
  | Found l_max for Hartree potential  :   4
  | Found cutoff potl. onset [A], width [A], scale factor :    3.50000    1.50000    1.00000
  | Threshold for basis-dependent cutoff potential is   0.100000E-03
  | Found data for basic radial integration grid :    41 points, outermost radius =    5.000 A
  | Found multiplier for basic radial grid :   1
  | Found angular grid specification: user-specified.
  | Specified grid contains     4 separate shells.
  | Check grid settings after all constraints further below.
  | Found free-atom valence shell :  3 s   2.000
  | Found free-atom valence shell :  3 p   1.000
  | Found free-ion valence shell :  3 s   1.000
  | Found free-ion valence shell :  2 p   6.000
  | Found ionic basis function :  3 d , default cutoff radius.
  | Found ionic basis function :  3 p , default cutoff radius.
  | Found ionic basis function :  3 s , default cutoff radius.
  Species Al                  : Missing cutoff potential type.
  Defaulting to exp(1/x)/(1-x)^2 type cutoff potential.
  Species Al: No 'logarithmic' tag. Using default grid for free atom:
  | Default logarithmic grid data [bohr] : 0.1000E-03 0.1000E+03 0.1012E+01
  | Will include ionic basis functions of  2.0-fold positive Al                   ion.
  Species Al: On-site basis accuracy parameter (for Gram-Schmidt orthonormalisation) not specified.
  Using default value basis_acc =  0.1000000E-03.
  Species Al                  : Using default innermost maximum threshold i_radial=  2 for radial functions.
  Species Al                  : Default cutoff onset for free atom density etc. : 0.35000000E+01 AA.
  Species Al                  : Basic radial grid will be enhanced according to radial_multiplier =   1, to contain    41 grid points.
 
  Reading configuration options for species F                   .
  | Found nuclear charge :   9.0000
  | Found atomic mass :    18.9984032000000      amu
  | Found l_max for Hartree potential  :   4
  | Found cutoff potl. onset [A], width [A], scale factor :    3.50000    1.50000    1.00000
  | Threshold for basis-dependent cutoff potential is   0.100000E-03
  | Found data for basic radial integration grid :    37 points, outermost radius =    5.000 A
  | Found multiplier for basic radial grid :   1
  | Found angular grid specification: user-specified.
  | Specified grid contains     4 separate shells.
  | Check grid settings after all constraints further below.
  | Found free-atom valence shell :  2 s   2.000
  | Found free-atom valence shell :  2 p   5.000
  | Found free-ion valence shell :  2 s   1.000
  | Found free-ion valence shell :  2 p   4.000
  | Found hydrogenic basis function :  2 p   1.700
  | Found hydrogenic basis function :  3 d   7.400
  | Found hydrogenic basis function :  3 s   6.800
  Species F                   : Missing cutoff potential type.
  Defaulting to exp(1/x)/(1-x)^2 type cutoff potential.
  Species F : No 'logarithmic' tag. Using default grid for free atom:
  | Default logarithmic grid data [bohr] : 0.1000E-03 0.1000E+03 0.1012E+01
  Species F : On-site basis accuracy parameter (for Gram-Schmidt orthonormalisation) not specified.
  Using default value basis_acc =  0.1000000E-03.
  Species F                   : Using default innermost maximum threshold i_radial=  2 for radial functions.
  Species F                   : Default cutoff onset for free atom density etc. : 0.35000000E+01 AA.
  Species F                   : Basic radial grid will be enhanced according to radial_multiplier =   1, to contain    37 grid points.
 
  Finished reading input file 'control.in'.
 
------------------------------------------------------------


------------------------------------------------------------
          Reading geometry description geometry.in.
------------------------------------------------------------
  | The smallest distance between any two atoms is         1.64552015 AA.
  | The first atom of this pair is atom number                      2 .
  | The second atom of this pair is atom number                    10 .
  Input structure read successfully.
  The structure contains       12 atoms,  and a total of        120.000 electrons.

  Input geometry:
  | No unit cell requested.
  | Atomic structure:
  |       Atom                x [A]            y [A]            z [A]
  |    1: Species Al           -0.05381461        1.63478677        2.14634282
  |    2: Species Al            2.47763250        2.82084702        1.66711078
  |    3: Species Al            1.27259248        2.76646338       -0.61983005
  |    4: Species F             1.01038538        3.07294694        2.83049126
  |    5: Species F            -1.63393108        2.72022672        2.17838359
  |    6: Species F            -0.48800587       -0.03196027        2.75443783
  |    7: Species F             1.75972695        0.67973159        1.95294867
  |    8: Species F             3.06119895        1.79493465       -0.04526722
  |    9: Species F             1.09575821        3.02005693       -2.36379981
  |   10: Species F             1.76976289        3.88407379        0.62970727
  |   11: Species F             4.18217897        3.13866078        2.49249398
  |   12: Species F             0.01411941        1.80513781        0.20125629

 
  Finished reading input file 'control.in'.
 

------------------------------------------------------------
          Reading geometry description geometry.in.
------------------------------------------------------------
 
  Consistency checks for stacksize environment parameter are next.
 
  | Maximum stacksize for task 0: unlimited
  | Maximum stacksize for task 1: unlimited
  | Maximum stacksize for task 2: unlimited
  | Maximum stacksize for task 3: unlimited
  | Maximum stacksize for task 4: unlimited
  | Maximum stacksize for task 5: unlimited
  | Maximum stacksize for task 6: unlimited
  | Maximum stacksize for task 7: unlimited
  | Maximum stacksize for task 8: unlimited
  | Maximum stacksize for task 9: unlimited
  | Maximum stacksize for task 10: unlimited
  | Maximum stacksize for task 11: unlimited
  | Maximum stacksize for task 12: unlimited
  | Maximum stacksize for task 13: unlimited
  | Maximum stacksize for task 14: unlimited
  | Maximum stacksize for task 15: unlimited
  | Maximum stacksize for task 16: unlimited
  | Maximum stacksize for task 17: unlimited
  | Maximum stacksize for task 18: unlimited
  | Maximum stacksize for task 19: unlimited
  | Maximum stacksize for task 20: unlimited
  | Maximum stacksize for task 21: unlimited
  | Maximum stacksize for task 22: unlimited
  | Maximum stacksize for task 23: unlimited
  | Current stacksize for task 0: unlimited
  | Current stacksize for task 1: unlimited
  | Current stacksize for task 2: unlimited
  | Current stacksize for task 3: unlimited
  | Current stacksize for task 4: unlimited
  | Current stacksize for task 5: unlimited
  | Current stacksize for task 6: unlimited
  | Current stacksize for task 7: unlimited
  | Current stacksize for task 8: unlimited
  | Current stacksize for task 9: unlimited
  | Current stacksize for task 10: unlimited
  | Current stacksize for task 11: unlimited
  | Current stacksize for task 12: unlimited
  | Current stacksize for task 13: unlimited
  | Current stacksize for task 14: unlimited
  | Current stacksize for task 15: unlimited
  | Current stacksize for task 16: unlimited
  | Current stacksize for task 17: unlimited
  | Current stacksize for task 18: unlimited
  | Current stacksize for task 19: unlimited
  | Current stacksize for task 20: unlimited
  | Current stacksize for task 21: unlimited
  | Current stacksize for task 22: unlimited
  | Current stacksize for task 23: unlimited
 
  Consistency checks for the contents of control.in are next.
 
  MPI_IN_PLACE appears to work with this MPI implementation.
  | Keeping use_mpi_in_place .true. (see manual).
  Target number of points in a grid batch is not set. Defaulting to  100
  Method for grid partitioning is not set. Defaulting to parallel hash+maxmin partitioning.
  Batch size limit is not set. Defaulting to    200
  By default, will store active basis functions for each batch.
  If in need of memory, prune_basis_once .false. can be used to disable this option.
  communication_type for Hartree potential was not specified.
  Defaulting to calc_hartree .
  Pulay mixer: Number of initial linear mixing iterations not set.
  Defaulting to    0 iterations.
  Work space size for distributed Hartree potential not set.
  Defaulting to   0.200000E+03 MB.
  Algorithm-dependent basis array size parameters:
  | n_max_pulay                         :       10
  Presetting      1001 iterations before the initial mixing cycle
  is restarted anyway using the sc_init_iter criterion / keyword.
  Presetting a factor      1.000 between actual scf density residual
  and density convergence criterion sc_accuracy_rho below which sc_init_iter
  takes no effect.
  Geometry relaxation not requested: no relaxation will be performed.
  Forces evaluation will include force correction term due to incomplete self-consistency (default).
  Handling of forces: Unphysical translation and rotation will be removed from forces.
  No accuracy limit for integral partition fn. given. Defaulting to  0.1000E-14.
  No threshold value for u(r) in integrations given. Defaulting to  0.1000E-05.
  No accuracy for occupation numbers given. Defaulting to  0.1000E-12.
  No threshold value for occupation numbers given. Defaulting to  0.0000E+00.
  No accuracy for fermi level given. Defaulting to  0.1000E-19.
  Maximum # of iterations to find E_F not set. Defaulting to  200.
  Preferred method for the eigenvalue solver ('KS_method') not specified in 'control.in'.
  Calling BLACS routine to test compilation state
  Since ScaLAPACK support is enabled, defaulting to ELPA (via ELSI).
  Will not use alltoall communication since running on < 1024 CPUs.
  Threshold for basis singularities not set.
  Default threshold for basis singularities:  0.1000E-04
  partition_type (choice of integration weights) for integrals was not specified.
  | Using a version of the partition function of Stratmann and coworkers ('stratmann_sparse').
  | At each grid point, the set of atoms used to build the partition table is smoothly restricted to
  | only those atoms whose free-atom density would be non-zero at that grid point.
  Partitioning for Hartree potential was not defined. Using partition_type for integrals.
  | Adjusted default value of keyword multip_moments_threshold to:       0.10000000E-11
  | This value may affect high angular momentum components of the Hartree potential in periodic systems.
  No q(lm)/r^(l+1) cutoff set for long-range Hartree potential.
  | Using default value of  0.100000E-09 .
  | Verify using the multipole_threshold keyword.
  Defaulting to new monopole extrapolation.
  Density update method: automatic selection selected.
  Charge integration errors on the 3D integration grid will be compensated
  by explicit normalization and distribution of residual charges.
  Use the "compensate_multipole_errors" flag to change this behaviour.
  Set 'collect_eigenvectors' to be '.true.' for use_density_matrix .false.
 
  Consistency checks for the contents of geometry.in are next.
 
  Number of empty states per atom not set in control.in - providing a guess from actual geometry.
  | Total number of empty states used during s.c.f. cycle:       36
  If you use a very high smearing, use empty_states (per atom!) in control.in to increase this value.

  Structure-dependent array size parameters: 
  | Maximum number of distinct radial functions  :       14
  | Maximum number of basis functions            :      180
  | Number of Kohn-Sham states (occupied + empty):       96
------------------------------------------------------------

------------------------------------------------------------
          Preparing all fixed parts of the calculation.
------------------------------------------------------------
  Determining machine precision:
    2.225073858507201E-308
  Setting up grids for atomic and cluster calculations.

  Creating wave function, potential, and density for free atoms.

  Species: Al

  List of occupied orbitals and eigenvalues:
    n    l              occ      energy [Ha]    energy [eV]
    1    0           2.0000       -55.621123     -1513.5278
    2    0           2.0000        -3.957030      -107.6763
    3    0           2.0000        -0.272233        -7.4078
    2    1           6.0000        -2.540949       -69.1427
    3    1           1.0000        -0.083300        -2.2667


  Species: F

  List of occupied orbitals and eigenvalues:
    n    l              occ      energy [Ha]    energy [eV]
    1    0           2.0000       -24.399611      -663.9472
    2    0           2.0000        -1.098702       -29.8972
    2    1           5.0000        -0.408210       -11.1080


  Adding cutoff potential to free-atom effective potential.
  Creating fixed part of basis set: Ionic, confined, hydrogenic.
 
  Al                   ion:

  List of free ionic orbitals and eigenvalues:
    n    l      energy [Ha]    energy [eV]
    1    0       -56.418846     -1535.2349
    2    0        -4.732717      -128.7838
    3    0        -0.872690       -23.7471
    2    1        -3.317230       -90.2664


  List of ionic basis orbitals and eigenvalues:
    n    l      energy [Ha]    energy [eV]    outer radius [A]
    3    2        -0.346815        -9.4373       4.594041
    3    1        -0.631870       -17.1940       4.538221
    3    0        -0.872657       -23.7462       4.538221

 
  F                    hydrogenic:
 
  List of hydrogenic basis orbitals: 
    n    l      effective z      eigenvalue [eV]  inner max. [A]     outer max. [A]     outer radius [A]   
    2    1         1.700000        -9.7616           1.243167           1.243167           4.598524
    3    2         7.400000       -82.7828           0.642437           0.642437           3.305741
    3    0         6.800000       -69.9026           0.057798           1.022307           3.781556
 
  Creating atomic-like basis functions for current effective potential.

  Species Al                  :

  List of atomic basis orbitals and eigenvalues:
    n    l      energy [Ha]    energy [eV]    outer radius [A]
    1    0       -55.621123     -1513.5278       0.850197
    2    0        -3.957030      -107.6763       3.144911
    3    0        -0.272233        -7.4078       4.594041
    2    1        -2.540949       -69.1427       3.731966
    3    1        -0.083300        -2.2667       4.594041


  Species F                   :

  List of atomic basis orbitals and eigenvalues:
    n    l      energy [Ha]    energy [eV]    outer radius [A]
    1    0       -24.399611      -663.9472       1.258458
    2    0        -1.098702       -29.8972       4.325857
    2    1        -0.408210       -11.1080       4.487453

  Assembling full basis from fixed parts.
  | Species Al :   atomic orbital   1 s accepted.
  | Species Al :   atomic orbital   2 s accepted.
  | Species Al :    ionic orbital   3 s accepted.
  | Species Al :   atomic orbital   3 s accepted.
  | Species Al :   atomic orbital   2 p accepted.
  | Species Al :    ionic orbital   3 p accepted.
  | Species Al :   atomic orbital   3 p accepted.
  | Species Al :    ionic orbital   3 d accepted.
  | Species F :   atomic orbital   1 s accepted.
  | Species F :    hydro orbital   3 s accepted.
  | Species F :   atomic orbital   2 s accepted.
  | Species F :   atomic orbital   2 p accepted.
  | Species F :    hydro orbital   2 p accepted.
  | Species F :    hydro orbital   3 d accepted.
 
  Basis size parameters after reduction:
  | Total number of radial functions:       14
  | Total number of basis functions :      180
 
  Per-task memory consumption for arrays in subroutine allocate_ext:
  |           4.807768MB.
  Testing on-site integration grid accuracy.
  |  Species  Function  <phi|h_atom|phi> (log., in eV)  <phi|h_atom|phi> (rad., in eV)
           1        1              -1513.5277717935              -1513.5271881332
           1        2               -107.6762691836               -107.6762662489
           1        3                 -6.9467474784                 -6.9471269649
           1        4                  5.5771951849                  5.4862107220 ***
           1        5                -69.1427313144                -69.1427312731
           1        6                 -1.5197375330                 -1.5230432022
           1        7                  6.8210948310                  6.5529872240 ***
           1        8                  4.3216540965                  4.2851170187 ***
           2        9               -663.9471986398               -663.9470363334
           2       10                 16.8514011578                 16.8512525338
           2       11                -28.4490593856                -28.4490661472
           2       12                -11.1080115307                -11.1080620173
           2       13                  7.1940182175                  7.1685154137
           2       14                 44.8544281765                 44.8543763625
 * Note: Onsite integrals marked "***" above are less accurate than
 * onsite_accuracy_threshold =    0.03000 eV. Usually, this is harmless.
 * When in doubt, tighten the "radial" and/or "radial_multiplier" flags to check.

  Preparing densities etc. for the partition functions (integrals / Hartree potential).

  Preparations completed.
  max(cpu_time)          :      0.185 s.
  Wall clock time (cpu1) :      0.185 s.
------------------------------------------------------------

------------------------------------------------------------
          Begin self-consistency loop: Initialization.

          Date     :  20220517, Time     :  121240.647
------------------------------------------------------------

  Initializing index lists of integration centers etc. from given atomic structure:
  | Number of centers in hartree potential         :        12
  | Number of centers in hartree multipole         :        12
  | Number of centers in electron density summation:        12
  | Number of centers in basis integrals           :        12
  | Number of centers in integrals                 :        12
  | Number of centers in hamiltonian               :        12
  * Using 24 tasks for Scalapack Eigenvalue solver.
  Detailed listing of tasks and assigned k-points:
  (for non-periodic systems, the "k-point" denotes an internal label only)
   Task     0 k-point     1 on node-k98a-018
   Task     1 k-point     1 on node-k98a-018
   Task     2 k-point     1 on node-k98a-018
   Task     3 k-point     1 on node-k98a-018
   Task     4 k-point     1 on node-k98a-018
   Task     5 k-point     1 on node-k98a-018
   Task     6 k-point     1 on node-k98a-018
   Task     7 k-point     1 on node-k98a-018
   Task     8 k-point     1 on node-k98a-018
   Task     9 k-point     1 on node-k98a-018
   Task    10 k-point     1 on node-k98a-018
   Task    11 k-point     1 on node-k98a-018
   Task    12 k-point     1 on node-k98a-018
   Task    13 k-point     1 on node-k98a-018
   Task    14 k-point     1 on node-k98a-018
   Task    15 k-point     1 on node-k98a-018
   Task    16 k-point     1 on node-k98a-018
   Task    17 k-point     1 on node-k98a-018
   Task    18 k-point     1 on node-k98a-018
   Task    19 k-point     1 on node-k98a-018
   Task    20 k-point     1 on node-k98a-018
   Task    21 k-point     1 on node-k98a-018
   Task    22 k-point     1 on node-k98a-018
   Task    23 k-point     1 on node-k98a-018
  Tasks:    24 split into      6 X      4 BLACS grid
  Calculating block size based on n_basis =          180  max_nprow =            6  max_npcol =            4
  ScaLAPACK block size set to:           16
  Allocating        0.012 MB for ovlp
  Allocating        0.012 MB for ham
  Allocating        0.012 MB for eigenvec
  Required Scalapack workspace - INTEGER:            1  REAL:             1
  Partitioning the integration grid into batches with parallel hashing+maxmin method.
  | Number of batches:     1044
  | Maximal batch size:     186
  | Minimal batch size:      18
  | Average batch size:      88.046
  | Standard deviation of batch sizes:      24.377

  Integration load balanced across    24 MPI tasks.
  Work distribution over tasks is as follows:
  Task     0 has       3924 integration points.
  Task     1 has       3864 integration points.
  Task     2 has       3848 integration points.
  Task     3 has       3851 integration points.
  Task     4 has       3775 integration points.
  Task     5 has       3785 integration points.
  Task     6 has       3864 integration points.
  Task     7 has       3880 integration points.
  Task     8 has       3773 integration points.
  Task     9 has       3778 integration points.
  Task    10 has       3875 integration points.
  Task    11 has       3854 integration points.
  Task    12 has       3794 integration points.
  Task    13 has       3871 integration points.
  Task    14 has       3787 integration points.
  Task    15 has       3877 integration points.
  Task    16 has       3920 integration points.
  Task    17 has       3790 integration points.
  Task    18 has       3771 integration points.
  Task    19 has       3776 integration points.
  Task    20 has       3841 integration points.
  Task    21 has       3778 integration points.
  Task    22 has       3873 integration points.
  Task    23 has       3771 integration points.
  Initializing partition tables, free-atom densities, potentials, etc. across the integration grid (initialize_grid_storage).
  | initialize_grid_storage: Actual outermost partition radius vs. multipole_radius_free
  | (-- VB: in principle, multipole_radius_free should be larger, hence this output)
  | Species        1: Confinement radius =              4.999999999999999 AA, multipole_radius_free =              5.004487022111096 AA.
  | Species        1: outer_partition_radius set to              5.004487022111096 AA .
  | Species        2: Confinement radius =              4.999999999999999 AA, multipole_radius_free =              5.009370088163274 AA.
  | Species        2: outer_partition_radius set to              5.009370088163274 AA .
  | The sparse table of interatomic distances needs          1.64 kbyte instead of         1.15 kbyte of memory.
  | Using the partition_type stratmann_smoother will reduce your memory usage.
  | Net number of integration points:    91920
  | of which are non-zero points    :    85154
  Renormalizing the initial density to the exact electron count on the 3D integration grid.
  | Initial density: Formal number of electrons (from input files) :     120.0000000000
  | Integrated number of electrons on 3D grid     :     119.9999354373
  | Charge integration error                      :      -0.0000645627
  | Normalization factor for density and gradient :       1.0000005380
  Renormalizing the free-atom superposition density to the exact electron count on the 3D integration grid.
  | Formal number of electrons (from input files) :     120.0000000000
  | Integrated number of electrons on 3D grid     :     119.9999354373
  | Charge integration error                      :      -0.0000645627
  | Normalization factor for density and gradient :       1.0000005380
  Obtaining max. number of non-zero basis functions in each batch (get_n_compute_maxes).
  | Maximal number of non-zero basis functions:      163 in task     0
  | Maximal number of non-zero basis functions:      166 in task     1
  | Maximal number of non-zero basis functions:      164 in task     2
  | Maximal number of non-zero basis functions:      163 in task     3
  | Maximal number of non-zero basis functions:      164 in task     4
  | Maximal number of non-zero basis functions:      170 in task     5
  | Maximal number of non-zero basis functions:      166 in task     6
  | Maximal number of non-zero basis functions:      166 in task     7
  | Maximal number of non-zero basis functions:      166 in task     8
  | Maximal number of non-zero basis functions:      172 in task     9
  | Maximal number of non-zero basis functions:      166 in task    10
  | Maximal number of non-zero basis functions:      166 in task    11
  | Maximal number of non-zero basis functions:      166 in task    12
  | Maximal number of non-zero basis functions:      165 in task    13
  | Maximal number of non-zero basis functions:      165 in task    14
  | Maximal number of non-zero basis functions:      172 in task    15
  | Maximal number of non-zero basis functions:      170 in task    16
  | Maximal number of non-zero basis functions:      163 in task    17
  | Maximal number of non-zero basis functions:      171 in task    18
  | Maximal number of non-zero basis functions:      165 in task    19
  | Maximal number of non-zero basis functions:      170 in task    20
  | Maximal number of non-zero basis functions:      163 in task    21
  | Maximal number of non-zero basis functions:      164 in task    22
  | Maximal number of non-zero basis functions:      166 in task    23
  Selecting the method for density update.
  Loop over occupied states selected for charge density update.
  Allocating        0.132 MB for KS_eigenvector
  Integrating Hamiltonian matrix: batch-based integration.
  Time summed over all CPUs for integration: real work        0.756 s, elapsed        0.791 s
  Integrating overlap matrix.
  Time summed over all CPUs for integration: real work        0.289 s, elapsed        0.302 s
  Deallocating overlap matrix.

  Updating Kohn-Sham eigenvalues and eigenvectors using ELSI and the ELPA eigensolver.
  Overlap matrix is not singular
  | Lowest and highest eigenvalues :  0.2545E-02,  0.5701E+01
  Finished singularity check of overlap matrix
  | Time :     0.004 s
  Starting ELPA eigensolver
  Finished Cholesky decomposition
  | Time :     0.002 s
  Finished transformation to standard eigenproblem
  | Time :     0.000 s
  Finished solving standard eigenproblem
  | Time :     0.004 s
  Finished back-transformation of eigenvectors
  | Time :     0.000 s

  Obtaining occupation numbers and chemical potential using ELSI.
  | Chemical potential (Fermi level):    -7.35506588 eV
  Writing Kohn-Sham eigenvalues.

  State    Occupation    Eigenvalue [Ha]    Eigenvalue [eV]
      1       2.00000         -55.487716        -1509.89759
      2       2.00000         -55.486694        -1509.86977
      3       2.00000         -55.483474        -1509.78215
      4       2.00000         -24.414344         -664.34809
      5       2.00000         -24.370802         -663.16326
      6       2.00000         -24.361870         -662.92022
      7       2.00000         -24.346163         -662.49282
      8       2.00000         -24.339415         -662.30918
      9       2.00000         -24.334730         -662.18169
     10       2.00000         -24.330340         -662.06223
     11       2.00000         -24.330033         -662.05387
     12       2.00000         -24.329811         -662.04783
     13       2.00000          -3.954163         -107.59824
     14       2.00000          -3.952827         -107.56190
     15       2.00000          -3.948366         -107.44050
     16       2.00000          -2.548773          -69.35564
     17       2.00000          -2.546994          -69.30722
     18       2.00000          -2.545280          -69.26059
     19       2.00000          -2.544637          -69.24309
     20       2.00000          -2.544465          -69.23841
     21       2.00000          -2.542639          -69.18873
     22       2.00000          -2.541040          -69.14520
     23       2.00000          -2.540087          -69.11927
     24       2.00000          -2.539421          -69.10116
     25       2.00000          -1.254760          -34.14375
     26       2.00000          -1.194290          -32.49828
     27       2.00000          -1.183094          -32.19364
     28       2.00000          -1.156858          -31.47970
     29       2.00000          -1.150106          -31.29597
     30       2.00000          -1.144469          -31.14259
     31       2.00000          -1.134341          -30.86700
     32       2.00000          -1.133777          -30.85164
     33       2.00000          -1.132633          -30.82051
     34       2.00000          -0.601683          -16.37263
     35       2.00000          -0.585521          -15.93283
     36       2.00000          -0.560323          -15.24716
     37       2.00000          -0.552651          -15.03840
     38       2.00000          -0.528961          -14.39377
     39       2.00000          -0.519616          -14.13948
     40       2.00000          -0.503934          -13.71274
     41       2.00000          -0.502858          -13.68347
     42       2.00000          -0.499776          -13.59959
     43       2.00000          -0.494003          -13.44251
     44       2.00000          -0.486481          -13.23782
     45       2.00000          -0.479034          -13.03517
     46       2.00000          -0.474876          -12.92203
     47       2.00000          -0.468954          -12.76088
     48       2.00000          -0.467653          -12.72549
     49       2.00000          -0.461508          -12.55826
     50       2.00000          -0.458506          -12.47659
     51       2.00000          -0.456794          -12.43001
     52       2.00000          -0.453205          -12.33234
     53       2.00000          -0.452033          -12.30044
     54       2.00000          -0.448716          -12.21020
     55       2.00000          -0.441562          -12.01553
     56       2.00000          -0.438857          -11.94191
     57       2.00000          -0.437819          -11.91367
     58       2.00000          -0.436811          -11.88622
     59       2.00000          -0.434181          -11.81467
     60       2.00000          -0.424102          -11.54041
     61       0.00000          -0.150490           -4.09504
     62       0.00000          -0.091980           -2.50290
     63       0.00000          -0.078793           -2.14407
     64       0.00000          -0.043344           -1.17946
     65       0.00000          -0.023273           -0.63328
     66       0.00000           0.002904            0.07903
     67       0.00000           0.014453            0.39330
     68       0.00000           0.025441            0.69228
     69       0.00000           0.049893            1.35766
     70       0.00000           0.071490            1.94533
     71       0.00000           0.076356            2.07775
     72       0.00000           0.114726            3.12186
     73       0.00000           0.150668            4.09989
     74       0.00000           0.162253            4.41512
     75       0.00000           0.165774            4.51094
     76       0.00000           0.179975            4.89738
     77       0.00000           0.188670            5.13396
     78       0.00000           0.197514            5.37462
     79       0.00000           0.209405            5.69820
     80       0.00000           0.213037            5.79704
     81       0.00000           0.217919            5.92989
     82       0.00000           0.228581            6.22002
     83       0.00000           0.237689            6.46785
     84       0.00000           0.244473            6.65244
     85       0.00000           0.253721            6.90410
     86       0.00000           0.268643            7.31015
     87       0.00000           0.270921            7.37214
     88       0.00000           0.277214            7.54339
     89       0.00000           0.289215            7.86994
     90       0.00000           0.292415            7.95703
     91       0.00000           0.303854            8.26829
     92       0.00000           0.339648            9.24229
     93       0.00000           0.345411            9.39912
     94       0.00000           0.355188            9.66516
     95       0.00000           0.366855            9.98263
     96       0.00000           0.384458           10.46164

  Highest occupied state (VBM) at    -11.54040686 eV
  | Occupation number:      2.00000000

  Lowest unoccupied state (CBM) at    -4.09503529 eV
  | Occupation number:      0.00000000

  Overall HOMO-LUMO gap:      7.44537157 eV.
  Calculating total energy contributions from superposition of free atom densities.

  Total energy components:
  | Sum of eigenvalues            :        -887.83765845 Ha      -24159.29189772 eV
  | XC energy correction          :        -144.39820046 Ha       -3929.27495374 eV
  | XC potential correction       :         188.01825645 Ha        5116.23706917 eV
  | Free-atom electrostatic energy:        -781.08488617 Ha      -21254.40116474 eV
  | Hartree energy correction     :           0.00000000 Ha           0.00000000 eV
  | Entropy correction            :           0.00000000 Ha           0.00000000 eV
  | ---------------------------
  | Total energy                  :       -1625.30248863 Ha      -44226.73094704 eV
  | Total energy, T -> 0          :       -1625.30248863 Ha      -44226.73094704 eV  <-- do not rely on this value for anything but (periodic) metals
  | Electronic free energy        :       -1625.30248863 Ha      -44226.73094704 eV

  Derived energy quantities:
  | Kinetic energy                :        1627.81488332 Ha       44295.09668473 eV
  | Electrostatic energy          :       -3108.71917149 Ha      -84592.55267803 eV
  | Energy correction for multipole
  | error in Hartree potential    :           0.00000000 Ha           0.00000000 eV
  | Sum of eigenvalues per atom                           :       -2013.27432481 eV
  | Total energy (T->0) per atom                          :       -3685.56091225 eV  <-- do not rely on this value for anything but (periodic) metals
  | Electronic free energy per atom                       :       -3685.56091225 eV
  Initialize hartree_potential_storage
  Max. number of atoms included in rho_multipole:           12

  End scf initialization - timings             :  max(cpu_time)    wall_clock(cpu1)
  | Time for scf. initialization                :        0.120 s           0.120 s
  | Boundary condition initialization           :        0.000 s           0.000 s
  | Integration                                 :        0.047 s           0.047 s
  | Solution of K.-S. eqns.                     :        0.011 s           0.012 s
  | Grid partitioning                           :        0.038 s           0.039 s
  | Preloading free-atom quantities on grid     :        0.016 s           0.016 s
  | Free-atom superposition energy              :        0.005 s           0.005 s
  | Total energy evaluation                     :        0.000 s           0.000 s

  Partial memory accounting:
  | Current value for overall tracked memory usage:
  |   Minimum:        0.273 MB (on task 23)
  |   Maximum:        0.292 MB (on task  0)
  |   Average:        0.287 MB
  | Peak value for overall tracked memory usage:
  |   Minimum:        1.303 MB (on task 21 after allocating wave)
  |   Maximum:        1.378 MB (on task  9 after allocating wave)
  |   Average:        1.335 MB
  | Largest tracked array allocation so far:
  |   Minimum:        0.231 MB (H_times_psi on task  0)
  |   Maximum:        0.537 MB (all_coords on task 14)
  |   Average:        0.262 MB
  Note:  These values currently only include a subset of arrays which are explicitly tracked.
  The "true" memory usage will be greater.
------------------------------------------------------------
  Evaluating new KS density.
  Integration grid: deviation in total charge (<rho> - N_e) =   1.421085E-14

  Time for density update prior                :  max(cpu_time)    wall_clock(cpu1)
  | self-consistency iterative process          :        0.029 s           0.029 s

------------------------------------------------------------
          Begin self-consistency iteration #    1

  Date     :  20220517, Time     :  121240.797
------------------------------------------------------------
  Pulay mixing of updated and previous charge densities.
  Renormalizing the density to the exact electron count on the 3D integration grid.
  | Formal number of electrons (from input files) :     120.0000000000
  | Integrated number of electrons on 3D grid     :     120.0000000000
  | Charge integration error                      :       0.0000000000
  | Normalization factor for density and gradient :       1.0000000000

  Evaluating partitioned Hartree potential by multipole expansion.
  | Original multipole sum: apparent total charge =  -0.417485E-13
  | Sum of charges compensated after spline to logarithmic grids =   0.882998E-04
  | Analytical far-field extrapolation by fixed multipoles:
  | Hartree multipole sum: apparent total charge =  -0.404633E-13
  Summing up the Hartree potential.
  Time summed over all CPUs for potential: real work        0.383 s, elapsed        0.395 s
  | RMS charge density error from multipole expansion :   0.112684E-01

  Integrating Hamiltonian matrix: batch-based integration.
  Time summed over all CPUs for integration: real work        0.703 s, elapsed        0.742 s

  Updating Kohn-Sham eigenvalues and eigenvectors using ELSI and the ELPA eigensolver.
  Starting ELPA eigensolver
  Finished transformation to standard eigenproblem
  | Time :     0.001 s
  Finished solving standard eigenproblem
  | Time :     0.003 s
  Finished back-transformation of eigenvectors
  | Time :     0.000 s

  Obtaining occupation numbers and chemical potential using ELSI.
  | Chemical potential (Fermi level):    -5.99171935 eV
  Writing Kohn-Sham eigenvalues.

  State    Occupation    Eigenvalue [Ha]    Eigenvalue [eV]
      1       2.00000         -55.694986        -1515.53768
      2       2.00000         -55.677994        -1515.07530
      3       2.00000         -55.625826        -1513.65574
      4       2.00000         -24.335344         -662.19842
      5       2.00000         -24.267687         -660.35736
      6       2.00000         -24.233798         -659.43520
      7       2.00000         -24.162001         -657.48151
      8       2.00000         -24.110128         -656.06996
      9       2.00000         -24.098149         -655.74399
     10       2.00000         -24.051277         -654.46856
     11       2.00000         -24.025948         -653.77932
     12       2.00000         -24.024457         -653.73873
     13       2.00000          -4.135051         -112.52046
     14       2.00000          -4.117774         -112.05033
     15       2.00000          -4.063468         -110.57260
     16       2.00000          -2.728507          -74.24646
     17       2.00000          -2.727518          -74.21954
     18       2.00000          -2.727196          -74.21077
     19       2.00000          -2.712124          -73.80064
     20       2.00000          -2.710259          -73.74991
     21       2.00000          -2.709081          -73.71784
     22       2.00000          -2.657473          -72.31353
     23       2.00000          -2.656825          -72.29588
     24       2.00000          -2.653999          -72.21900
     25       2.00000          -1.281357          -34.86749
     26       2.00000          -1.186602          -32.28908
     27       2.00000          -1.154456          -31.41435
     28       2.00000          -1.081906          -29.44017
     29       2.00000          -1.057180          -28.76734
     30       2.00000          -1.027179          -27.95095
     31       2.00000          -0.993603          -27.03732
     32       2.00000          -0.977205          -26.59110
     33       2.00000          -0.971219          -26.42822
     34       2.00000          -0.636809          -17.32846
     35       2.00000          -0.615240          -16.74154
     36       2.00000          -0.573441          -15.60413
     37       2.00000          -0.561943          -15.29124
     38       2.00000          -0.516198          -14.04647
     39       2.00000          -0.504064          -13.71628
     40       2.00000          -0.485499          -13.21109
     41       2.00000          -0.482353          -13.12549
     42       2.00000          -0.448340          -12.19994
     43       2.00000          -0.438012          -11.91892
     44       2.00000          -0.431217          -11.73401
     45       2.00000          -0.410744          -11.17690
     46       2.00000          -0.394517          -10.73535
     47       2.00000          -0.381988          -10.39442
     48       2.00000          -0.366934           -9.98477
     49       2.00000          -0.364825           -9.92738
     50       2.00000          -0.361602           -9.83968
     51       2.00000          -0.354937           -9.65832
     52       2.00000          -0.348203           -9.47508
     53       2.00000          -0.332460           -9.04669
     54       2.00000          -0.317385           -8.63649
     55       2.00000          -0.307747           -8.37423
     56       2.00000          -0.305729           -8.31930
     57       2.00000          -0.292882           -7.96972
     58       2.00000          -0.288263           -7.84404
     59       2.00000          -0.281941           -7.67200
     60       2.00000          -0.269018           -7.32035
     61       0.00000          -0.176100           -4.79192
     62       0.00000          -0.120342           -3.27467
     63       0.00000          -0.083004           -2.25867
     64       0.00000          -0.076987           -2.09492
     65       0.00000          -0.055780           -1.51785
     66       0.00000          -0.027716           -0.75420
     67       0.00000          -0.004405           -0.11986
     68       0.00000           0.019845            0.54001
     69       0.00000           0.027405            0.74572
     70       0.00000           0.054146            1.47339
     71       0.00000           0.076691            2.08686
     72       0.00000           0.097059            2.64110
     73       0.00000           0.126425            3.44019
     74       0.00000           0.145670            3.96389
     75       0.00000           0.153880            4.18729
     76       0.00000           0.162462            4.42082
     77       0.00000           0.173606            4.72407
     78       0.00000           0.187381            5.09891
     79       0.00000           0.189099            5.14564
     80       0.00000           0.202432            5.50847
     81       0.00000           0.212413            5.78006
     82       0.00000           0.215719            5.87000
     83       0.00000           0.222840            6.06378
     84       0.00000           0.236630            6.43903
     85       0.00000           0.238550            6.49128
     86       0.00000           0.245156            6.67104
     87       0.00000           0.266756            7.25879
     88       0.00000           0.271896            7.39865
     89       0.00000           0.277491            7.55092
     90       0.00000           0.293384            7.98339
     91       0.00000           0.297840            8.10464
     92       0.00000           0.336100            9.14575
     93       0.00000           0.352592            9.59452
     94       0.00000           0.361149            9.82737
     95       0.00000           0.376519           10.24560
     96       0.00000           0.382200           10.40019

  Highest occupied state (VBM) at     -7.32035060 eV
  | Occupation number:      2.00000000

  Lowest unoccupied state (CBM) at    -4.79192208 eV
  | Occupation number:      0.00000000

  Overall HOMO-LUMO gap:      2.52842851 eV.

  Total energy components:
  | Sum of eigenvalues            :        -883.41973324 Ha      -24039.07403595 eV
  | XC energy correction          :        -145.71136962 Ha       -3965.00810480 eV
  | XC potential correction       :         189.74426726 Ha        5163.20421300 eV
  | Free-atom electrostatic energy:        -781.08488617 Ha      -21254.40116474 eV
  | Hartree energy correction     :          -4.59448356 Ha        -125.02225868 eV
  | Entropy correction            :           0.00000000 Ha           0.00000000 eV
  | ---------------------------
  | Total energy                  :       -1625.06620533 Ha      -44220.30135118 eV
  | Total energy, T -> 0          :       -1625.06620533 Ha      -44220.30135118 eV  <-- do not rely on this value for anything but (periodic) metals
  | Electronic free energy        :       -1625.06620533 Ha      -44220.30135118 eV

  Derived energy quantities:
  | Kinetic energy                :        1634.12859799 Ha       44466.90160236 eV
  | Electrostatic energy          :       -3113.48343370 Ha      -84722.19484874 eV
  | Energy correction for multipole
  | error in Hartree potential    :           0.03494574 Ha           0.95092208 eV
  | Sum of eigenvalues per atom                           :       -2003.25616966 eV
  | Total energy (T->0) per atom                          :       -3685.02511260 eV  <-- do not rely on this value for anything but (periodic) metals
  | Electronic free energy per atom                       :       -3685.02511260 eV
  Evaluating new KS density.
  Integration grid: deviation in total charge (<rho> - N_e) =  -1.421085E-14

  Self-consistency convergence accuracy:
  | Change of charge density      :  0.6030E+00
  | Change of sum of eigenvalues  :  0.1202E+03 eV
  | Change of total energy        :  0.6430E+01 eV


------------------------------------------------------------
  End self-consistency iteration #     1       :  max(cpu_time)    wall_clock(cpu1)
  | Time for this iteration                     :        0.107 s           0.119 s
  | Charge density update                       :        0.052 s           0.052 s
  | Density mixing                              :        0.001 s           0.000 s
  | Hartree multipole update                    :        0.001 s           0.002 s
  | Hartree multipole summation                 :        0.017 s           0.017 s
  | Integration                                 :        0.031 s           0.031 s
  | Solution of K.-S. eqns.                     :        0.004 s           0.004 s
  | Total energy evaluation                     :        0.000 s           0.000 s

  Partial memory accounting:
  | Current value for overall tracked memory usage:
  |   Minimum:        0.273 MB (on task 23)
  |   Maximum:        0.292 MB (on task  0)
  |   Average:        0.287 MB
  | Peak value for overall tracked memory usage:
  |   Minimum:        1.303 MB (on task 21 after allocating wave)
  |   Maximum:        1.378 MB (on task  9 after allocating wave)
  |   Average:        1.335 MB
  | Largest tracked array allocation so far:
  |   Minimum:        0.694 MB (gradient_basis_wave on task  0)
  |   Maximum:        0.732 MB (gradient_basis_wave on task  9)
  |   Average:        0.708 MB
  Note:  These values currently only include a subset of arrays which are explicitly tracked.
  The "true" memory usage will be greater.
------------------------------------------------------------

------------------------------------------------------------
          Begin self-consistency iteration #    2

  Date     :  20220517, Time     :  121240.977
------------------------------------------------------------
  Pulay mixing of updated and previous charge densities.
  Renormalizing the density to the exact electron count on the 3D integration grid.
  | Formal number of electrons (from input files) :     120.0000000000
  | Integrated number of electrons on 3D grid     :     120.0000000000
  | Charge integration error                      :      -0.0000000000
  | Normalization factor for density and gradient :       1.0000000000

  Evaluating partitioned Hartree potential by multipole expansion.
  | Original multipole sum: apparent total charge =  -0.705847E-13
  | Sum of charges compensated after spline to logarithmic grids =   0.458917E-04
  | Analytical far-field extrapolation by fixed multipoles:
  | Hartree multipole sum: apparent total charge =  -0.697177E-13
  Summing up the Hartree potential.
  Time summed over all CPUs for potential: real work        0.381 s, elapsed        0.394 s
  | RMS charge density error from multipole expansion :   0.127179E-01

  Integrating Hamiltonian matrix: batch-based integration.
  Time summed over all CPUs for integration: real work        0.703 s, elapsed        0.743 s

  Updating Kohn-Sham eigenvalues and eigenvectors using ELSI and the ELPA eigensolver.
  Starting ELPA eigensolver
  Finished transformation to standard eigenproblem
  | Time :     0.000 s
  Finished solving standard eigenproblem
  | Time :     0.003 s
  Finished back-transformation of eigenvectors
  | Time :     0.000 s

  Obtaining occupation numbers and chemical potential using ELSI.
  | Chemical potential (Fermi level):    -7.66923273 eV
  Highest occupied state (VBM) at     -8.40206998 eV
  | Occupation number:      2.00000000

  Lowest unoccupied state (CBM) at    -5.02510492 eV
  | Occupation number:      0.00000000

  Overall HOMO-LUMO gap:      3.37696506 eV.

  Checking to see if s.c.f. parameters should be adjusted.

  Total energy components:
  | Sum of eigenvalues            :        -886.29222031 Ha      -24117.23838610 eV
  | XC energy correction          :        -145.21553881 Ha       -3951.51586189 eV
  | XC potential correction       :         189.09198816 Ha        5145.45479580 eV
  | Free-atom electrostatic energy:        -781.08488617 Ha      -21254.40116474 eV
  | Hartree energy correction     :          -1.49324960 Ha         -40.63338897 eV
  | Entropy correction            :           0.00000000 Ha           0.00000000 eV
  | ---------------------------
  | Total energy                  :       -1624.99390672 Ha      -44218.33400590 eV
  | Total energy, T -> 0          :       -1624.99390672 Ha      -44218.33400590 eV  <-- do not rely on this value for anything but (periodic) metals
  | Electronic free energy        :       -1624.99390672 Ha      -44218.33400590 eV

  Derived energy quantities:
  | Kinetic energy                :        1630.30296652 Ha       44362.80087346 eV
  | Electrostatic energy          :       -3110.08133443 Ha      -84629.61901746 eV
  | Energy correction for multipole
  | error in Hartree potential    :           0.03833016 Ha           1.04301668 eV
  | Sum of eigenvalues per atom                           :       -2009.76986551 eV
  | Total energy (T->0) per atom                          :       -3684.86116716 eV  <-- do not rely on this value for anything but (periodic) metals
  | Electronic free energy per atom                       :       -3684.86116716 eV
  Evaluating new KS density.
  Integration grid: deviation in total charge (<rho> - N_e) =   5.684342E-14

  Self-consistency convergence accuracy:
  | Change of charge density      :  0.5016E+00
  | Change of sum of eigenvalues  : -0.7816E+02 eV
  | Change of total energy        :  0.1967E+01 eV


------------------------------------------------------------
  End self-consistency iteration #     2       :  max(cpu_time)    wall_clock(cpu1)
  | Time for this iteration                     :        0.114 s           0.083 s
  | Charge density update                       :        0.028 s           0.028 s
  | Density mixing                              :        0.031 s           0.001 s
  | Hartree multipole update                    :        0.001 s           0.002 s
  | Hartree multipole summation                 :        0.017 s           0.016 s
  | Integration                                 :        0.031 s           0.032 s
  | Solution of K.-S. eqns.                     :        0.004 s           0.004 s
  | Total energy evaluation                     :        0.000 s           0.000 s

  Partial memory accounting:
  | Current value for overall tracked memory usage:
  |   Minimum:        0.274 MB (on task 23)
  |   Maximum:        0.293 MB (on task  0)
  |   Average:        0.288 MB
  | Peak value for overall tracked memory usage:
  |   Minimum:        1.303 MB (on task 21 after allocating wave)
  |   Maximum:        1.378 MB (on task  9 after allocating wave)
  |   Average:        1.335 MB
  | Largest tracked array allocation so far:
  |   Minimum:        0.694 MB (gradient_basis_wave on task  0)
  |   Maximum:        0.732 MB (gradient_basis_wave on task  9)
  |   Average:        0.708 MB
  Note:  These values currently only include a subset of arrays which are explicitly tracked.
  The "true" memory usage will be greater.
------------------------------------------------------------

------------------------------------------------------------
          Begin self-consistency iteration #    3

  Date     :  20220517, Time     :  121241.066
------------------------------------------------------------
  Pulay mixing of updated and previous charge densities.
  Renormalizing the density to the exact electron count on the 3D integration grid.
  | Formal number of electrons (from input files) :     120.0000000000
  | Integrated number of electrons on 3D grid     :     120.0000000000
  | Charge integration error                      :       0.0000000000
  | Normalization factor for density and gradient :       1.0000000000

  Evaluating partitioned Hartree potential by multipole expansion.
  | Original multipole sum: apparent total charge =  -0.271882E-13
  | Sum of charges compensated after spline to logarithmic grids =   0.549465E-04
  | Analytical far-field extrapolation by fixed multipoles:
  | Hartree multipole sum: apparent total charge =  -0.263995E-13
  Summing up the Hartree potential.
  Time summed over all CPUs for potential: real work        0.381 s, elapsed        0.394 s
  | RMS charge density error from multipole expansion :   0.167823E-01

  Integrating Hamiltonian matrix: batch-based integration.
  Time summed over all CPUs for integration: real work        0.703 s, elapsed        0.744 s

  Updating Kohn-Sham eigenvalues and eigenvectors using ELSI and the ELPA eigensolver.
  Starting ELPA eigensolver
  Finished transformation to standard eigenproblem
  | Time :     0.001 s
  Finished solving standard eigenproblem
  | Time :     0.003 s
  Finished back-transformation of eigenvectors
  | Time :     0.000 s

  Obtaining occupation numbers and chemical potential using ELSI.
  | Chemical potential (Fermi level):    -7.74255952 eV
  Highest occupied state (VBM) at     -8.08514103 eV
  | Occupation number:      2.00000000

  Lowest unoccupied state (CBM) at    -5.29641941 eV
  | Occupation number:      0.00000000

  Overall HOMO-LUMO gap:      2.78872162 eV.

  Total energy components:
  | Sum of eigenvalues            :        -887.29378096 Ha      -24144.49223818 eV
  | XC energy correction          :        -145.18093318 Ha       -3950.57419488 eV
  | XC potential correction       :         189.04546796 Ha        5144.18891671 eV
  | Free-atom electrostatic energy:        -781.08488617 Ha      -21254.40116474 eV
  | Hartree energy correction     :          -0.47774192 Ha         -13.00001909 eV
  | Entropy correction            :           0.00000000 Ha           0.00000000 eV
  | ---------------------------
  | Total energy                  :       -1624.99187427 Ha      -44218.27870018 eV
  | Total energy, T -> 0          :       -1624.99187427 Ha      -44218.27870018 eV  <-- do not rely on this value for anything but (periodic) metals
  | Electronic free energy        :       -1624.99187427 Ha      -44218.27870018 eV

  Derived energy quantities:
  | Kinetic energy                :        1628.81291069 Ha       44322.25439130 eV
  | Electrostatic energy          :       -3108.62385178 Ha      -84589.95889661 eV
  | Energy correction for multipole
  | error in Hartree potential    :           0.04976405 Ha           1.35414857 eV
  | Sum of eigenvalues per atom                           :       -2012.04101985 eV
  | Total energy (T->0) per atom                          :       -3684.85655835 eV  <-- do not rely on this value for anything but (periodic) metals
  | Electronic free energy per atom                       :       -3684.85655835 eV
  Evaluating new KS density.
  Integration grid: deviation in total charge (<rho> - N_e) =   1.421085E-14

  Self-consistency convergence accuracy:
  | Change of charge density      :  0.1291E+00
  | Change of sum of eigenvalues  : -0.2725E+02 eV
  | Change of total energy        :  0.5531E-01 eV


------------------------------------------------------------
  End self-consistency iteration #     3       :  max(cpu_time)    wall_clock(cpu1)
  | Time for this iteration                     :        0.086 s           0.084 s
  | Charge density update                       :        0.028 s           0.029 s
  | Density mixing                              :        0.004 s           0.002 s
  | Hartree multipole update                    :        0.001 s           0.001 s
  | Hartree multipole summation                 :        0.017 s           0.017 s
  | Integration                                 :        0.031 s           0.031 s
  | Solution of K.-S. eqns.                     :        0.004 s           0.004 s
  | Total energy evaluation                     :        0.000 s           0.000 s

  Partial memory accounting:
  | Current value for overall tracked memory usage:
  |   Minimum:        0.274 MB (on task 23)
  |   Maximum:        0.293 MB (on task  0)
  |   Average:        0.288 MB
  | Peak value for overall tracked memory usage:
  |   Minimum:        1.303 MB (on task 21 after allocating wave)
  |   Maximum:        1.378 MB (on task  9 after allocating wave)
  |   Average:        1.335 MB
  | Largest tracked array allocation so far:
  |   Minimum:        0.694 MB (gradient_basis_wave on task  0)
  |   Maximum:        0.732 MB (gradient_basis_wave on task  9)
  |   Average:        0.708 MB
  Note:  These values currently only include a subset of arrays which are explicitly tracked.
  The "true" memory usage will be greater.
------------------------------------------------------------

------------------------------------------------------------
          Begin self-consistency iteration #    4

  Date     :  20220517, Time     :  121241.156
------------------------------------------------------------
  Pulay mixing of updated and previous charge densities.
  Renormalizing the density to the exact electron count on the 3D integration grid.
  | Formal number of electrons (from input files) :     120.0000000000
  | Integrated number of electrons on 3D grid     :     120.0000000000
  | Charge integration error                      :      -0.0000000000
  | Normalization factor for density and gradient :       1.0000000000

  Evaluating partitioned Hartree potential by multipole expansion.
  | Original multipole sum: apparent total charge =  -0.107103E-12
  | Sum of charges compensated after spline to logarithmic grids =   0.604842E-04
  | Analytical far-field extrapolation by fixed multipoles:
  | Hartree multipole sum: apparent total charge =  -0.105128E-12
  Summing up the Hartree potential.
  Time summed over all CPUs for potential: real work        0.381 s, elapsed        0.394 s
  | RMS charge density error from multipole expansion :   0.192679E-01

  Integrating Hamiltonian matrix: batch-based integration.
  Time summed over all CPUs for integration: real work        0.703 s, elapsed        0.743 s

  Updating Kohn-Sham eigenvalues and eigenvectors using ELSI and the ELPA eigensolver.
  Starting ELPA eigensolver
  Finished transformation to standard eigenproblem
  | Time :     0.000 s
  Finished solving standard eigenproblem
  | Time :     0.003 s
  Finished back-transformation of eigenvectors
  | Time :     0.001 s

  Obtaining occupation numbers and chemical potential using ELSI.
  | Chemical potential (Fermi level):    -7.72281735 eV
  Highest occupied state (VBM) at     -7.98876250 eV
  | Occupation number:      2.00000000

  Lowest unoccupied state (CBM) at    -5.31774223 eV
  | Occupation number:      0.00000000

  Overall HOMO-LUMO gap:      2.67102027 eV.

  Total energy components:
  | Sum of eigenvalues            :        -887.54133325 Ha      -24151.22847873 eV
  | XC energy correction          :        -145.15585278 Ha       -3949.89172245 eV
  | XC potential correction       :         189.01170033 Ha        5143.27005257 eV
  | Free-atom electrostatic energy:        -781.08488617 Ha      -21254.40116474 eV
  | Hartree energy correction     :          -0.21891622 Ha          -5.95701336 eV
  | Entropy correction            :          -0.00000000 Ha          -0.00000000 eV
  | ---------------------------
  | Total energy                  :       -1624.98928809 Ha      -44218.20832670 eV
  | Total energy, T -> 0          :       -1624.98928809 Ha      -44218.20832670 eV  <-- do not rely on this value for anything but (periodic) metals
  | Electronic free energy        :       -1624.98928809 Ha      -44218.20832670 eV

  Derived energy quantities:
  | Kinetic energy                :        1627.94509489 Ha       44298.63992181 eV
  | Electrostatic energy          :       -3107.77853020 Ha      -84566.95652607 eV
  | Energy correction for multipole
  | error in Hartree potential    :           0.05651037 Ha           1.53772551 eV
  | Sum of eigenvalues per atom                           :       -2012.60237323 eV
  | Total energy (T->0) per atom                          :       -3684.85069389 eV  <-- do not rely on this value for anything but (periodic) metals
  | Electronic free energy per atom                       :       -3684.85069389 eV
  Evaluating new KS density.
  Integration grid: deviation in total charge (<rho> - N_e) =   1.421085E-14

  Self-consistency convergence accuracy:
  | Change of charge density      :  0.9829E-01
  | Change of sum of eigenvalues  : -0.6736E+01 eV
  | Change of total energy        :  0.7037E-01 eV


------------------------------------------------------------
  End self-consistency iteration #     4       :  max(cpu_time)    wall_clock(cpu1)
  | Time for this iteration                     :        0.086 s           0.084 s
  | Charge density update                       :        0.028 s           0.028 s
  | Density mixing                              :        0.004 s           0.002 s
  | Hartree multipole update                    :        0.001 s           0.001 s
  | Hartree multipole summation                 :        0.017 s           0.016 s
  | Integration                                 :        0.031 s           0.031 s
  | Solution of K.-S. eqns.                     :        0.004 s           0.004 s
  | Total energy evaluation                     :        0.000 s           0.000 s

  Partial memory accounting:
  | Current value for overall tracked memory usage:
  |   Minimum:        0.274 MB (on task 23)
  |   Maximum:        0.293 MB (on task  0)
  |   Average:        0.288 MB
  | Peak value for overall tracked memory usage:
  |   Minimum:        1.303 MB (on task 21 after allocating wave)
  |   Maximum:        1.378 MB (on task  9 after allocating wave)
  |   Average:        1.335 MB
  | Largest tracked array allocation so far:
  |   Minimum:        0.694 MB (gradient_basis_wave on task  0)
  |   Maximum:        0.732 MB (gradient_basis_wave on task  9)
  |   Average:        0.708 MB
  Note:  These values currently only include a subset of arrays which are explicitly tracked.
  The "true" memory usage will be greater.
------------------------------------------------------------

------------------------------------------------------------
          Begin self-consistency iteration #    5

  Date     :  20220517, Time     :  121241.244
------------------------------------------------------------
  Pulay mixing of updated and previous charge densities.
  Renormalizing the density to the exact electron count on the 3D integration grid.
  | Formal number of electrons (from input files) :     120.0000000000
  | Integrated number of electrons on 3D grid     :     120.0000000000
  | Charge integration error                      :       0.0000000000
  | Normalization factor for density and gradient :       1.0000000000

  Evaluating partitioned Hartree potential by multipole expansion.
  | Original multipole sum: apparent total charge =  -0.888224E-13
  | Sum of charges compensated after spline to logarithmic grids =   0.612025E-04
  | Analytical far-field extrapolation by fixed multipoles:
  | Hartree multipole sum: apparent total charge =  -0.901584E-13
  Summing up the Hartree potential.
  Time summed over all CPUs for potential: real work        0.381 s, elapsed        0.394 s
  | RMS charge density error from multipole expansion :   0.192105E-01

  Integrating Hamiltonian matrix: batch-based integration.
  Time summed over all CPUs for integration: real work        0.703 s, elapsed        0.744 s

  Updating Kohn-Sham eigenvalues and eigenvectors using ELSI and the ELPA eigensolver.
  Starting ELPA eigensolver
  Finished transformation to standard eigenproblem
  | Time :     0.000 s
  Finished solving standard eigenproblem
  | Time :     0.004 s
  Finished back-transformation of eigenvectors
  | Time :     0.000 s

  Obtaining occupation numbers and chemical potential using ELSI.
  | Chemical potential (Fermi level):    -7.71126716 eV
  Highest occupied state (VBM) at     -8.06735614 eV
  | Occupation number:      2.00000000

  Lowest unoccupied state (CBM) at    -5.26827722 eV
  | Occupation number:      0.00000000

  Overall HOMO-LUMO gap:      2.79907893 eV.

  Total energy components:
  | Sum of eigenvalues            :        -887.40951239 Ha      -24147.64145067 eV
  | XC energy correction          :        -145.15242195 Ha       -3949.79836475 eV
  | XC potential correction       :         189.00727111 Ha        5143.14952741 eV
  | Free-atom electrostatic energy:        -781.08488617 Ha      -21254.40116474 eV
  | Hartree energy correction     :          -0.34952227 Ha          -9.51098484 eV
  | Entropy correction            :           0.00000000 Ha           0.00000000 eV
[...]
   Total forces(   7)            : -0.600307E+00  0.378153E+01 -0.352734E+00
  atom #    8
   Hellmann-Feynman              :  0.131896E+00 -0.265440E+00 -0.251285E+00
   Ionic forces                  :  0.000000E+00  0.000000E+00  0.000000E+00
   Multipole                     :  0.176963E+00 -0.217523E+00 -0.864520E-01
   Hartree pot. SCF incomplete   :  0.470410E-05 -0.529278E-05 -0.269373E-05
   Pulay + GGA                   : -0.323854E+01  0.299477E+01  0.832750E+00
   ----------------------------------------------------------------
   Total forces(   8)            : -0.292967E+01  0.251180E+01  0.495011E+00
  atom #    9
   Hellmann-Feynman              : -0.418933E+00  0.721519E+00 -0.363251E+01
   Ionic forces                  :  0.000000E+00  0.000000E+00  0.000000E+00
   Multipole                     : -0.619037E-01  0.169800E-01 -0.958582E+00
   Hartree pot. SCF incomplete   : -0.163648E-05 -0.105346E-06 -0.251389E-05
   Pulay + GGA                   :  0.777647E+00 -0.926945E+00  0.772338E+01
   ----------------------------------------------------------------
   Total forces(   9)            :  0.296809E+00 -0.188447E+00  0.313229E+01
  atom #   10
   Hellmann-Feynman              : -0.217776E+01  0.274830E+01 -0.136375E+01
   Ionic forces                  :  0.000000E+00  0.000000E+00  0.000000E+00
   Multipole                     :  0.371489E-02  0.891258E+00  0.123006E-01
   Hartree pot. SCF incomplete   : -0.496454E-06  0.759462E-05 -0.265207E-05
   Pulay + GGA                   :  0.825605E+00 -0.921667E+00 -0.748069E+00
   ----------------------------------------------------------------
   Total forces(  10)            : -0.134844E+01  0.271790E+01 -0.209952E+01
  atom #   11
   Hellmann-Feynman              :  0.230793E+01  0.551513E+00  0.107512E+01
   Ionic forces                  :  0.000000E+00  0.000000E+00  0.000000E+00
   Multipole                     :  0.645034E+00  0.713218E-01  0.274280E+00
   Hartree pot. SCF incomplete   :  0.365828E-05 -0.267077E-06  0.391169E-05
   Pulay + GGA                   : -0.679195E+01 -0.105492E+01 -0.317585E+01
   ----------------------------------------------------------------
   Total forces(  11)            : -0.383899E+01 -0.432081E+00 -0.182644E+01
  atom #   12
   Hellmann-Feynman              : -0.421859E+00 -0.439398E+00  0.747169E+00
   Ionic forces                  :  0.000000E+00  0.000000E+00  0.000000E+00
   Multipole                     : -0.393868E+00 -0.437537E+00  0.148702E+00
   Hartree pot. SCF incomplete   : -0.307089E-05 -0.424427E-05 -0.336927E-05
   Pulay + GGA                   :  0.179680E+01  0.177221E+01 -0.105604E+01
   ----------------------------------------------------------------
   Total forces(  12)            :  0.981073E+00  0.895272E+00 -0.160172E+00


  Self-consistency convergence accuracy:
  | Change of charge density      :  0.2664E-06
  | Change of sum of eigenvalues  : -0.5918E-05 eV
  | Change of total energy        :  0.1104E-07 eV
  | Change of forces              :  0.7886E-06 eV/A

  Writing Kohn-Sham eigenvalues.

  State    Occupation    Eigenvalue [Ha]    Eigenvalue [eV]
      1       2.00000         -55.686770        -1515.31412
      2       2.00000         -55.655439        -1514.46155
      3       2.00000         -55.596851        -1512.86730
      4       2.00000         -24.388744         -663.65148
      5       2.00000         -24.330529         -662.06739
      6       2.00000         -24.299043         -661.21061
      7       2.00000         -24.277749         -660.63116
      8       2.00000         -24.264216         -660.26290
      9       2.00000         -24.223502         -659.15504
     10       2.00000         -24.207378         -658.71626
     11       2.00000         -24.163344         -657.51804
     12       2.00000         -24.157594         -657.36157
     13       2.00000          -4.141911         -112.70714
     14       2.00000          -4.109914         -111.83645
     15       2.00000          -4.047036         -110.12546
     16       2.00000          -2.735243          -74.42974
     17       2.00000          -2.733595          -74.38490
     18       2.00000          -2.731385          -74.32476
     19       2.00000          -2.703239          -73.55888
     20       2.00000          -2.701368          -73.50797
     21       2.00000          -2.699761          -73.46422
     22       2.00000          -2.641917          -71.89023
     23       2.00000          -2.638722          -71.80327
     24       2.00000          -2.635081          -71.70421
     25       2.00000          -1.300718          -35.39435
     26       2.00000          -1.204643          -32.78001
     27       2.00000          -1.167611          -31.77230
     28       2.00000          -1.120943          -30.50242
     29       2.00000          -1.115043          -30.34187
     30       2.00000          -1.062216          -28.90436
     31       2.00000          -1.042412          -28.36546
     32       2.00000          -1.005249          -27.35422
     33       2.00000          -1.000536          -27.22598
     34       2.00000          -0.658073          -17.90707
     35       2.00000          -0.634575          -17.26768
     36       2.00000          -0.592308          -16.11751
     37       2.00000          -0.578997          -15.75532
     38       2.00000          -0.532059          -14.47805
     39       2.00000          -0.518200          -14.10094
     40       2.00000          -0.500976          -13.63226
     41       2.00000          -0.499614          -13.59520
     42       2.00000          -0.481093          -13.09121
     43       2.00000          -0.465350          -12.66280
     44       2.00000          -0.460542          -12.53198
     45       2.00000          -0.454991          -12.38092
     46       2.00000          -0.427360          -11.62905
     47       2.00000          -0.419478          -11.41458
     48       2.00000          -0.418694          -11.39324
     49       2.00000          -0.407421          -11.08648
     50       2.00000          -0.405175          -11.02538
     51       2.00000          -0.389819          -10.60751
     52       2.00000          -0.373993          -10.17687
     53       2.00000          -0.363701           -9.89680
     54       2.00000          -0.351495           -9.56468
     55       2.00000          -0.349965           -9.52303
     56       2.00000          -0.345824           -9.41036
     57       2.00000          -0.317703           -8.64513
     58       2.00000          -0.313940           -8.54274
     59       2.00000          -0.308988           -8.40799
     60       2.00000          -0.296537           -8.06918
     61       0.00000          -0.192675           -5.24295
     62       0.00000          -0.134328           -3.65524
     63       0.00000          -0.093934           -2.55608
     64       0.00000          -0.086733           -2.36012
     65       0.00000          -0.059091           -1.60796
     66       0.00000          -0.036462           -0.99217
     67       0.00000          -0.010126           -0.27555
     68       0.00000           0.014716            0.40044
     69       0.00000           0.029387            0.79966
     70       0.00000           0.053337            1.45138
     71       0.00000           0.072659            1.97716
     72       0.00000           0.095267            2.59235
     73       0.00000           0.115638            3.14666
     74       0.00000           0.137810            3.75000
     75       0.00000           0.146143            3.97674
     76       0.00000           0.153607            4.17985
     77       0.00000           0.169335            4.60784
     78       0.00000           0.181485            4.93846
     79       0.00000           0.183197            4.98505
     80       0.00000           0.197676            5.37903
     81       0.00000           0.206868            5.62916
     82       0.00000           0.213409            5.80715
     83       0.00000           0.223032            6.06901
     84       0.00000           0.229515            6.24542
     85       0.00000           0.235277            6.40220
     86       0.00000           0.238490            6.48965
     87       0.00000           0.258226            7.02668
     88       0.00000           0.268138            7.29639
     89       0.00000           0.277793            7.55914
     90       0.00000           0.288385            7.84736
     91       0.00000           0.293714            7.99236
     92       0.00000           0.336630            9.16016
     93       0.00000           0.342805            9.32819
     94       0.00000           0.353492            9.61901
     95       0.00000           0.365737            9.95222
     96       0.00000           0.373884           10.17390

  Highest occupied state (VBM) at     -8.06917556 eV
  | Occupation number:      2.00000000

  Lowest unoccupied state (CBM) at    -5.24295426 eV
  | Occupation number:      0.00000000

  Overall HOMO-LUMO gap:      2.82622130 eV.
  | Chemical Potential                          :    -7.70290804 eV

  Self-consistency cycle converged.


------------------------------------------------------------
  End self-consistency iteration #    15       :  max(cpu_time)    wall_clock(cpu1)
  | Time for this iteration                     :        0.331 s           0.332 s
  | Charge density & force component update     :        0.152 s           0.153 s
  | Density mixing                              :        0.013 s           0.013 s
  | Hartree multipole update                    :        0.009 s           0.009 s
  | Hartree multipole summation                 :        0.051 s           0.051 s
  | Hartree pot. SCF incomplete forces          :        0.031 s           0.031 s
  | Integration                                 :        0.036 s           0.036 s
  | Solution of K.-S. eqns.                     :        0.037 s           0.038 s
  | Total energy evaluation                     :        0.001 s           0.000 s

  Partial memory accounting:
  | Current value for overall tracked memory usage:
  |   Minimum:        0.274 MB (on task 23)
  |   Maximum:        0.293 MB (on task  0)
  |   Average:        0.289 MB
  | Peak value for overall tracked memory usage:
  |   Minimum:        2.848 MB (on task 21 after allocating hessian_basis_wave)
  |   Maximum:        2.989 MB (on task  9 after allocating hessian_basis_wave)
  |   Average:        2.904 MB
  | Largest tracked array allocation so far:
  |   Minimum:        1.388 MB (hessian_basis_wave on task  0)
  |   Maximum:        1.464 MB (hessian_basis_wave on task  9)
  |   Average:        1.416 MB
  Note:  These values currently only include a subset of arrays which are explicitly tracked.
  The "true" memory usage will be greater.
------------------------------------------------------------
  Removing unitary transformations (pure translations, rotations) from forces on atoms.
  Atomic forces before filtering:
  | Net force on center of mass :  -0.242985E-02 -0.725820E-02  0.106949E-02 eV/A
  | Net torque on center of mass:  -0.182721E-02 -0.624710E-02  0.104000E-01 eV
  Atomic forces after filtering:
  | Net force on center of mass :  -0.178406E-14 -0.713624E-15 -0.735925E-15 eV/A
  | Net torque on center of mass:   0.302107E-14  0.531048E-14  0.358752E-14 eV

  Energy and forces in a compact form:
  | Total energy uncorrected      :         -0.442182015936321E+05 eV
  | Total energy corrected        :         -0.442182015936321E+05 eV  <-- do not rely on this value for anything but (periodic) metals
  | Electronic free energy        :         -0.442182015936321E+05 eV
  Total atomic forces (unitary forces cleaned) [eV/Ang]:
  |    1         -0.301008162560159E+01         -0.241825942532183E+01          0.179298195069441E+01
  |    2          0.610412565248452E+01         -0.447181357952871E+01          0.549387911565409E+01
  |    3          0.438456802922889E+00         -0.241130119465973E+01         -0.417922747393321E+01
  |    4          0.770011292516264E+00         -0.974546856090228E+00         -0.128136104161180E+01
  |    5          0.297818017676889E+01         -0.176337908033460E+01         -0.194618869781684E+00
  |    6          0.158024908004856E+00          0.275061373752398E+01         -0.818920562285569E+00
  |    7         -0.600418681109704E+00          0.378191353738869E+01         -0.353040574747752E+00
  |    8         -0.292977739593481E+01          0.251200125982358E+01          0.494608797711045E+00
  |    9          0.296697935270131E+00         -0.187511714572426E+00          0.313227998014696E+01
  |   10         -0.134787488255591E+01          0.271839959261385E+01         -0.209955916789390E+01
  |   11         -0.383835363924327E+01         -0.432396687581980E+00         -0.182689498427670E+01
  |   12          0.981009456477729E+00          0.896280410739414E+00         -0.160127169675877E+00

  ------------------------------------ 
  Start decomposition of the XC Energy 
  ------------------------------------ 
  X and C from original XC functional choice 
  Hartree-Fock Energy :          0.000000000 Ha              0.000000000 eV
  X Energy            :       -140.201969736 Ha          -3815.089706144 eV
  C Energy            :         -4.954363740 Ha           -134.815096680 eV
  Total XC Energy     :       -145.156333476 Ha          -3949.904802823 eV
  ------------------------------------ 
  LDA X and C from self-consistent density 
  X Energy LDA        :       -132.789735597 Ha          -3613.392552991 eV
  C Energy LDA        :         -8.826566595 Ha           -240.183097444 eV
  ------------------------------------ 
  End decomposition of the XC Energy 
  ------------------------------------ 

------------------------------------------------------------

------------------------------------------------------------------------------
  Final output of selected total energy values:

  The following output summarizes some interesting total energy values
  at the end of a run (AFTER all relaxation, molecular dynamics, etc.).

  | Total energy of the DFT / Hartree-Fock s.c.f. calculation      :         -44218.201593632 eV
  | Final zero-broadening corrected energy (caution - metals only) :         -44218.201593632 eV
  | For reference only, the value of 1 Hartree used in FHI-aims is :             27.211384500 eV

  Before relying on these values, please be sure to understand exactly which
  total energy value is referred to by a given number. Different objects may
  all carry the same name 'total energy'. Definitions:

  Total energy of the DFT / Hartree-Fock s.c.f. calculation:
  | Note that this energy does not include ANY quantities calculated after the
  | s.c.f. cycle, in particular not ANY RPA, MP2, etc. many-body perturbation terms.

  Final zero-broadening corrected energy:
  | For metallic systems only, a broadening of the occupation numbers at the Fermi
  | level can be extrapolated back to zero broadening by an electron-gas inspired
  | formula. For all systems that are not real metals, this value can be
  | meaningless and should be avoided.

------------------------------------------------------------------------------
  Methods described in the following list of references were used in this FHI-aims run.
  If you publish the results, please make sure to cite these reference if they apply.
  FHI-aims is an academic code, and for our developers (often, Ph.D. students
  and postdocs), scientific credit in the community is essential.
  Thank you for helping us!

  For any use of FHI-aims, please cite:

    Volker Blum, Ralf Gehrke, Felix Hanke, Paula Havu, Ville Havu,
    Xinguo Ren, Karsten Reuter, and Matthias Scheffler
    'Ab initio molecular simulations with numeric atom-centered orbitals'
    Computer Physics Communications 180, 2175-2196 (2009)
    http://dx.doi.org/10.1016/j.cpc.2009.06.022


  The ELSI infrastructure was used in your run to solve the Kohn-Sham electronic structure.
  Please check out http://elsi-interchange.org to learn more.
  If scalability is important for your project, please acknowledge ELSI by citing:

    V. W-z. Yu, F. Corsetti, A. Garcia, W. P. Huhn, M. Jacquelin, W. Jia,
    B. Lange, L. Lin, J. Lu, W. Mi, A. Seifitokaldani, A. Vazquez-Mayagoitia,
    C. Yang, H. Yang, and V. Blum
    'ELSI: A unified software interface for Kohn-Sham electronic structure solvers'
    Computer Physics Communications 222, 267-285 (2018).
    http://dx.doi.org/10.1016/j.cpc.2017.09.007


  For the real-space grid partitioning and parallelization used in this calculation, please cite:

    Ville Havu, Volker Blum, Paula Havu, and Matthias Scheffler,
    'Efficient O(N) integration for all-electron electronic structure calculation'
    'using numerically tabulated basis functions'
    Journal of Computational Physics 228, 8367-8379 (2009).
    http://dx.doi.org/10.1016/j.jcp.2009.08.008

  Of course, there are many other important community references, e.g., those cited in the
  above references. Our list is limited to references that describe implementations in the
  FHI-aims code. The reason is purely practical (length of this list) - please credit others as well.

------------------------------------------------------------
          Leaving FHI-aims.
          Date     :  20220517, Time     :  121242.691

          Computational steps:
          | Number of self-consistency cycles          :           15
          | Number of SCF (re)initializations          :            1

          Detailed time accounting                     :  max(cpu_time)    wall_clock(cpu1)
          | Total time                                  :        2.174 s           5.847 s
          | Preparation time                            :        0.185 s           0.185 s
          | Boundary condition initalization            :        0.000 s           0.000 s
          | Grid partitioning                           :        0.038 s           0.039 s
          | Preloading free-atom quantities on grid     :        0.016 s           0.016 s
          | Free-atom superposition energy              :        0.005 s           0.005 s
          | Total time for integrations                 :        0.523 s           0.522 s
          | Total time for solution of K.-S. equations  :        0.105 s           0.106 s
          | Total time for density & force components   :        0.724 s           0.728 s
          | Total time for mixing                       :        0.100 s           0.046 s
          | Total time for Hartree multipole update     :        0.027 s           0.030 s
          | Total time for Hartree multipole sum        :        0.317 s           0.316 s
          | Total time for total energy evaluation      :        0.003 s           0.000 s
          | Total time NSC force correction             :        0.062 s           0.066 s
          | Total time for scaled ZORA corrections      :        0.000 s           0.000 s

          Partial memory accounting:
          | Residual value for overall tracked memory usage across tasks:     0.000000 MB (should be 0.000000 MB)
          | Peak values for overall tracked memory usage:
          |   Minimum:        2.848 MB (on task 21 after allocating hessian_basis_wave)
          |   Maximum:        2.989 MB (on task  9 after allocating hessian_basis_wave)
          |   Average:        2.904 MB
          | Largest tracked array allocation:
          |   Minimum:        1.388 MB (hessian_basis_wave on task  0)
          |   Maximum:        1.464 MB (hessian_basis_wave on task  9)
          |   Average:        1.416 MB
          Note:  These values currently only include a subset of arrays which are explicitly tracked.
          The "true" memory usage will be greater.

          Have a nice day.
------------------------------------------------------------
