********************************************************************************
*                       GENERAL UTILITY LATTICE PROGRAM                        *
*                                 Julian Gale                                  *
*                       Curtin Institute for Computation                       *
*                           Department of Chemistry                            *
*                    Curtin University, Western Australia                      *
********************************************************************************
* Version = 5.1.1 * Last modified =  24th November 2018                        *
********************************************************************************
*  optimise     - perform optimisation run                                     *
*  conp         - constant pressure calculation                                *
*  shell        - only shells and radii to be optimised                        *
*  phonon       - calculate phonons for final geometry                         *
*  eigenvectors - output phonon eigenvectors                                   *
********************************************************************************

  Job Started  at 14:39.00 25th May        2022                               

  Number of CPUs =     1

  Host name      = login03                                 


  Total number of configurations input =      1

********************************************************************************
*  Input for Configuration =   1                                               *
********************************************************************************

  Formula = Al3F9                                                       

  Number of irreducible atoms/shells =      21


  Total number atoms/shells =      21

  Dimensionality = 0               :  Cluster


  Charge on cluster =  -0.000000


  Initial cluster dipoles : x =      0.260178 e.Angs
                            y =      0.058491 e.Angs
                            z =     -0.242116 e.Angs

  Temperature of configuration =  0.000     K 

  Symmetry number =      1

  Cartesian coordinates of cluster :

--------------------------------------------------------------------------------
   No.  Atomic       x           y          z         Charge      Occupancy
        Label      (Angs)      (Angs)     (Angs)        (e)         (Frac)  
--------------------------------------------------------------------------------
      1 Al    c     -0.3681      1.0600     -1.8185     3.00000    1.000000    
      2 Al    c     -0.4503      1.0701      1.2831     3.00000    1.000000    
      3 Al    c     -3.0137      0.4377     -1.8612     3.00000    1.000000    
      4 F     c     -3.5254      0.3033     -3.6025     0.59000    1.000000    
      5 F     c     -1.3565     -0.5549     -1.8535     0.59000    1.000000    
      6 F     c     -1.9644      2.0652     -1.8823     0.59000    1.000000    
      7 F     c     -2.0314      0.6947      0.4551     0.59000    1.000000    
      8 F     c      0.5904      1.2948     -0.2927     0.59000    1.000000    
      9 F     c     -0.3286      2.7322      2.0052     0.59000    1.000000    
     10 F     c      0.3870     -0.3520      2.0392     0.59000    1.000000    
     11 F     c     -4.2669      0.1646     -0.5839     0.59000    1.000000    
     12 F     c      0.7394      1.2969     -3.2321     0.59000    1.000000    
     13 F     s     -3.5254 *    0.3033 *   -3.6025 *  -1.59000    1.000000    
     14 F     s     -1.3565 *   -0.5549 *   -1.8535 *  -1.59000    1.000000    
     15 F     s     -1.9644 *    2.0652 *   -1.8823 *  -1.59000    1.000000    
     16 F     s     -2.0314 *    0.6947 *    0.4551 *  -1.59000    1.000000    
     17 F     s      0.5904 *    1.2948 *   -0.2927 *  -1.59000    1.000000    
     18 F     s     -0.3286 *    2.7322 *    2.0052 *  -1.59000    1.000000    
     19 F     s      0.3870 *   -0.3520 *    2.0392 *  -1.59000    1.000000    
     20 F     s     -4.2669 *    0.1646 *   -0.5839 *  -1.59000    1.000000    
     21 F     s      0.7394 *    1.2969 *   -3.2321 *  -1.59000    1.000000    
--------------------------------------------------------------------------------


  Brillouin zone sampling points :

--------------------------------------------------------------------------------
  Point number          x          y          z            Weight
--------------------------------------------------------------------------------
        1           0.000000   0.000000   0.000000     1.00000000
--------------------------------------------------------------------------------


********************************************************************************
*  General input information                                                   *
********************************************************************************

  Species output for all configurations : 

--------------------------------------------------------------------------------
  Species    Type    Atomic    Atomic    Charge       Radii (Angs)     Library
                     Number     Mass       (e)     Cova   Ionic  VDW   Symbol
--------------------------------------------------------------------------------
    Al       Core       13      26.98   3.000000   1.350  0.000  2.050          
    F        Core        9      19.00   0.590000   0.710  0.000  1.300          
    F        Shell       9       0.00  -1.590000   0.710  0.000  1.300          
--------------------------------------------------------------------------------


  Accuracy factor for short range sums = 12.000

  Time limit = Infinity

  Maximum range for interatomic potentials =    100000.000000 Angstroms

  General interatomic potentials :

--------------------------------------------------------------------------------
Atom  Types   Potential      Parameter       Value         Units   Cutoffs(Ang)
  1     2                                                            Min /  Max 
--------------------------------------------------------------------------------
Al   c F    s Buckingham    Buckingham A     3760.0008    eV        0.000 10.000
                            Buckingham rho  0.22200000    Ang       
                            Buckingham C     0.0000000    eV*Ang^6  
--------------------------------------------------------------------------------
F    s F    s Buck 4 range  Buck4 A          1127.7000    eV        0.000 12.000
                            Buck4 rho       0.27530000    Ang       
                            Buck4 C          15.830000    eV*Ang^6  
                            Buck4 minimum    2.7900000    Ang       
--------------------------------------------------------------------------------
F    c F    s Spring (c-s)  Spring k 2       20.770000    eV*Ang^-2 0.000  0.800
                            Spring k 4       0.0000000    eV*Ang^-4 
--------------------------------------------------------------------------------

********************************************************************************
*  Output for configuration   1                                                *
********************************************************************************


  Components of energy : 

--------------------------------------------------------------------------------
  Interatomic potentials     =          10.50357374 eV    
  Monopole - monopole (real) =        -179.25007127 eV    
--------------------------------------------------------------------------------
  Total lattice energy       =        -168.74649754 eV    
--------------------------------------------------------------------------------
  Total lattice energy       =          -16281.4575 kJ/mol
--------------------------------------------------------------------------------


  Number of variables =       27

  Maximum number of calculations  =          2000
  Maximum Hessian update interval =            10
  Maximum step size               =   1.000000000
  Maximum parameter tolerance     =   0.000001000
  Maximum function  tolerance     =   0.000010000
  Maximum gradient  tolerance     =   0.000000010
  Maximum gradient  component     =   0.010000000

  Symmetry not applied to optimisation

  Newton-Raphson optimiser to be used

  BFGS hessian update to be used

  Lower half triangular hessian to be used

  Minimiser to switch to RFO
  When gradient norm is less than     0.010000

  Shell only optimisation

  Start of cluster optimisation :

  Cycle:      0 Energy:      -168.746498  Gnorm:      1.427544  CPU:    0.004
  ** Hessian calculated **
  Cycle:      1 Energy:      -185.285104  Gnorm:      0.449596  CPU:    0.006
  ** Hessian calculated **
  Cycle:      2 Energy:      -186.559038  Gnorm:      0.019523  CPU:    0.007
  Cycle:      3 Energy:      -186.561797  Gnorm:      0.004351  CPU:    0.009
  ** Hessian has required structure
  Cycle:      4 Energy:      -186.561810  Gnorm:      0.003965  CPU:    0.010
  ** Hessian has required structure
  Cycle:      5 Energy:      -186.561812  Gnorm:      0.003908  CPU:    0.012
  ** Hessian has required structure
  Cycle:      6 Energy:      -186.561813  Gnorm:      0.003869  CPU:    0.013
  ** Hessian has required structure
  Cycle:      7 Energy:      -186.561813  Gnorm:      0.003868  CPU:    0.014
  ** Hessian has required structure
  Cycle:      8 Energy:      -186.561813  Gnorm:      0.003867  CPU:    0.016
  ** Hessian has required structure
  Cycle:      9 Energy:      -186.561814  Gnorm:      0.003805  CPU:    0.017
  ** Hessian has required structure
  Cycle:     10 Energy:      -186.561820  Gnorm:      0.003684  CPU:    0.018
  ** Hessian has required structure
  Cycle:     11 Energy:      -186.561885  Gnorm:      0.002115  CPU:    0.020
  ** Hessian has required structure
  Cycle:     12 Energy:      -186.561924  Gnorm:      0.000001  CPU:    0.022
  ** Hessian has required structure

  XYZ File written as 003/0/sp_mod_-10/sp_mod_-10_eig.xyz



  **** Optimisation achieved ****


  Final energy =    -186.56192431 eV
  Final Gnorm  =       0.00000000

  Components of energy : 

--------------------------------------------------------------------------------
  Interatomic potentials     =          38.46024473 eV    
  Monopole - monopole (real) =        -225.02216904 eV    
--------------------------------------------------------------------------------
  Total lattice energy       =        -186.56192431 eV    
--------------------------------------------------------------------------------
  Total lattice energy       =          -18000.3738 kJ/mol
--------------------------------------------------------------------------------

  Final cartesian coordinates of atoms :

--------------------------------------------------------------------------------
   No.  Atomic        x           y          z          Radius
        Label       (Angs)      (Angs)     (Angs)       (Angs) 
--------------------------------------------------------------------------------
     1  Al    c    -0.368126    1.059989   -1.818484    0.000000
     2  Al    c    -0.450278    1.070097    1.283109    0.000000
     3  Al    c    -3.013675    0.437662   -1.861182    0.000000
     4  F     c    -3.525436    0.303307   -3.602522    0.000000
     5  F     c    -1.356479   -0.554906   -1.853477    0.000000
     6  F     c    -1.964376    2.065223   -1.882320    0.000000
     7  F     c    -2.031384    0.694709    0.455132    0.000000
     8  F     c     0.590396    1.294769   -0.292693    0.000000
     9  F     c    -0.328592    2.732157    2.005209    0.000000
    10  F     c     0.386959   -0.351989    2.039156    0.000000
    11  F     c    -4.266911    0.164560   -0.583926    0.000000
    12  F     c     0.739407    1.296926   -3.232114    0.000000
    13  F     s    -3.443029    0.324491   -3.343658    0.000000
    14  F     s    -1.400016   -0.270992   -1.845256    0.000000
    15  F     s    -1.878479    1.792550   -1.868046    0.000000
    16  F     s    -1.804593    0.747595    0.495258    0.000000
    17  F     s     0.341560    1.237166   -0.354157    0.000000
    18  F     s    -0.346689    2.486525    1.894170    0.000000
    19  F     s     0.263355   -0.142326    1.923246    0.000000
    20  F     s    -4.073237    0.206408   -0.784375    0.000000
    21  F     s     0.565265    1.260031   -3.006096    0.000000
--------------------------------------------------------------------------------


  Final Cartesian derivatives :

--------------------------------------------------------------------------------
   No.  Atomic          x             y             z           Radius
        Label       (eV/Angs)     (eV/Angs)    (eV/Angs)      (eV/Angs)
--------------------------------------------------------------------------------
      1 Al    c       0.000000      0.000000      0.000000      0.000000
      2 Al    c       0.000000      0.000000      0.000000      0.000000
      3 Al    c       0.000000      0.000000      0.000000      0.000000
      4 F     c       0.000000      0.000000      0.000000      0.000000
      5 F     c       0.000000      0.000000      0.000000      0.000000
      6 F     c       0.000000      0.000000      0.000000      0.000000
      7 F     c       0.000000      0.000000      0.000000      0.000000
      8 F     c       0.000000      0.000000      0.000000      0.000000
      9 F     c       0.000000      0.000000      0.000000      0.000000
     10 F     c       0.000000      0.000000      0.000000      0.000000
     11 F     c       0.000000      0.000000      0.000000      0.000000
     12 F     c       0.000000      0.000000      0.000000      0.000000
     13 F     s       0.000000      0.000000      0.000000      0.000000
     14 F     s       0.000000     -0.000000      0.000000      0.000000
     15 F     s      -0.000000      0.000000      0.000000      0.000000
     16 F     s       0.000000     -0.000000      0.000000      0.000000
     17 F     s       0.000000      0.000000      0.000000      0.000000
     18 F     s      -0.000000     -0.000000      0.000000      0.000000
     19 F     s       0.000000     -0.000000     -0.000000      0.000000
     20 F     s      -0.000000     -0.000000     -0.000000      0.000000
     21 F     s       0.000000     -0.000000      0.000000      0.000000
--------------------------------------------------------------------------------
  Maximum abs         0.000000      0.000000      0.000000      0.000000
--------------------------------------------------------------------------------


  Born effective charge tensors : 

-------------------------------------------------------------------------------
  Atom             x           y             z
-------------------------------------------------------------------------------
    1 Al    x       1.0214     -0.0199      0.1937
            y      -0.0225      1.1503      0.0423
            z       0.1125      0.0236      0.9683
-------------------------------------------------------------------------------
    2 Al    x       0.9114      0.1201     -0.3550
            y       0.1195      0.4044     -0.0705
            z      -0.4071     -0.0832      1.3650
-------------------------------------------------------------------------------
    3 Al    x       1.3118     -0.0098      0.2806
            y      -0.0073      1.3961      0.0575
            z       0.3806      0.0813      0.6945
-------------------------------------------------------------------------------
    4 F     x      -0.5341      0.0008      0.1435
            y      -0.0004     -0.5324      0.0382
            z       0.0786      0.0229     -0.0057
-------------------------------------------------------------------------------
    5 F     x      -0.3620      0.0329     -0.0101
            y       0.0685     -0.2226     -0.0092
            z      -0.0111     -0.0109     -0.3416
-------------------------------------------------------------------------------
    6 F     x      -0.2886     -0.0787     -0.0113
            y      -0.1135     -0.2952      0.0023
            z      -0.0110      0.0029     -0.3425
-------------------------------------------------------------------------------
    7 F     x      -0.2056      0.0403      0.1615
            y       0.0411     -0.3635      0.0346
            z       0.2168      0.0475     -0.6376
-------------------------------------------------------------------------------
    8 F     x      -0.3156     -0.0114      0.0994
            y      -0.0109     -0.2654      0.0225
            z       0.1630      0.0373     -0.2864
-------------------------------------------------------------------------------
    9 F     x      -0.5267      0.0337      0.0171
            y       0.0287     -0.0497      0.1716
            z      -0.0036      0.2158     -0.4994
-------------------------------------------------------------------------------
   10 F     x      -0.4104     -0.2077      0.0963
            y      -0.2028     -0.1737     -0.1549
            z       0.0968     -0.2037     -0.4909
-------------------------------------------------------------------------------
   11 F     x      -0.2780      0.0567     -0.3153
            y       0.0569     -0.5287     -0.0693
            z      -0.2994     -0.0652     -0.2341
-------------------------------------------------------------------------------
   12 F     x      -0.3237      0.0431     -0.3004
            y       0.0429     -0.5195     -0.0651
            z      -0.3160     -0.0682     -0.1895
-------------------------------------------------------------------------------




  Moment of inertia tensor (10^-46 x kgm^2): 

-------------------------------------------------------------------------------
                x           y           z           Principal axis system
-------------------------------------------------------------------------------
       x        167.50      -18.10      -40.12          105.082321
       y        -18.10      239.07      -10.50          192.773820
       z        -40.12      -10.50      134.68          243.397550
-------------------------------------------------------------------------------
  Centre of mass (Ang) =    -1.296981     0.851505    -0.780593
-------------------------------------------------------------------------------


  Vibrational Frequency Calculation : 

--------------------------------------------------------------------------------

  Frequencies (cm-1) and Eigenvectors : 

  Frequency      -4.1525    0.0000    0.0000    0.0000    4.0265    7.0289
  IR Intensity    0.0001    0.0000    0.0000    0.0000    0.0001    0.0003
     in X         0.0000    0.0000    0.0000    0.0000    0.0000    0.0000
     in Y         0.0000    0.0000    0.0000    0.0000    0.0000    0.0003
     in Z         0.0000    0.0000    0.0000    0.0000    0.0000    0.0000
  Raman Intsty    0.0008    0.0000    0.0000    0.0000    0.0001    0.0007

     1 x       0.119437  0.247433 -0.064512  0.204216 -0.087483  0.015517
     1 y      -0.088349  0.206800  0.153091 -0.202203  0.064388  0.261445
     1 z       0.098031  0.055674 -0.281940 -0.156522 -0.062486  0.056972
     2 x      -0.244798  0.247433 -0.064512  0.204216  0.087374 -0.111585
     2 y       0.193362  0.206800  0.153091 -0.202203  0.237461 -0.162065
     2 z       0.085302  0.055674 -0.281940 -0.156522 -0.059123  0.057828
     3 x       0.129009  0.247433 -0.064512  0.204216 -0.005515  0.098364
     3 y      -0.108367  0.206800  0.153091 -0.202203 -0.298182 -0.083821
     3 z      -0.176977  0.055674 -0.281940 -0.156522  0.117665 -0.111586
     4 x       0.285240  0.207641 -0.054138  0.171374 -0.072521  0.156008
     4 y      -0.235773  0.173543  0.128471 -0.169685 -0.391988  0.060813
     4 z      -0.189048  0.046720 -0.236599 -0.131350  0.129748 -0.125632
     5 x       0.111772  0.207641 -0.054138  0.171374  0.108948  0.193351
     5 y      -0.081957  0.173543  0.128471 -0.169685 -0.060066  0.113562
     5 z       0.107466  0.046720 -0.236599 -0.131350  0.067854 -0.151837
     6 x       0.101693  0.207641 -0.054138  0.171374 -0.191638 -0.096924
     6 y      -0.087680  0.173543  0.128471 -0.169685 -0.131895  0.048448
     6 z      -0.169591  0.046720 -0.236599 -0.131350 -0.025417  0.111402
     7 x      -0.122489  0.207641 -0.054138  0.171374  0.079515 -0.028729
     7 y       0.107964  0.173543  0.128471 -0.169685 -0.030537 -0.213510
     7 z      -0.062969  0.046720 -0.236599 -0.131350  0.042493 -0.039465
     8 x      -0.050779  0.207641 -0.054138  0.171374 -0.026936 -0.067268
     8 y       0.052032  0.173543  0.128471 -0.169685  0.239518  0.156083
     8 z       0.157678  0.046720 -0.236599 -0.131350 -0.110215  0.107879
     9 x      -0.273047  0.207641 -0.054138  0.171374 -0.088567 -0.294701
     9 y       0.211491  0.173543  0.128471 -0.169685  0.251084 -0.204626
     9 z      -0.030550  0.046720 -0.236599 -0.131350 -0.141532  0.240272
    10 x      -0.283617  0.207641 -0.054138  0.171374  0.277018  0.037136
    10 y       0.212534  0.173543  0.128471 -0.169685  0.337787 -0.131390
    10 z       0.252881  0.046720 -0.236599 -0.131350 -0.014684 -0.087487
    11 x      -0.014281  0.207641 -0.054138  0.171374  0.089015  0.065506
    11 y       0.006712  0.173543  0.128471 -0.169685 -0.330958 -0.346225
    11 z      -0.247966  0.046720 -0.236599 -0.131350  0.173312 -0.169311
    12 x       0.241161  0.207641 -0.054138  0.171374 -0.168133  0.032886
    12 y      -0.181328  0.173543  0.128471 -0.169685  0.112686  0.498307
    12 z       0.174524  0.046720 -0.236599 -0.131350 -0.116858  0.110350


  Frequency      25.3422   47.2571   53.7165   71.7671  105.9699  154.4749
  IR Intensity    0.0017    0.0076    0.0013    0.0023    0.0023    0.0219
     in X         0.0002    0.0071    0.0001    0.0001    0.0017    0.0137
     in Y         0.0015    0.0005    0.0012    0.0022    0.0001    0.0008
     in Z         0.0000    0.0000    0.0000    0.0000    0.0004    0.0075
  Raman Intsty    0.0006    0.1537    0.0000    0.0000    0.0035    0.0097

     1 x      -0.037934  0.189377  0.006605  0.022328 -0.042119  0.054754
     1 y       0.104131  0.039598 -0.021665 -0.095598 -0.010181  0.014681
     1 z       0.006256 -0.284943 -0.002075  0.001047 -0.035973  0.075807
     2 x       0.013144 -0.211077  0.017095 -0.023969 -0.023794  0.043941
     2 y       0.031144 -0.040067 -0.085799  0.102291 -0.003838  0.009757
     2 z       0.003224 -0.195270  0.000068 -0.000649  0.049111  0.010409
     3 x       0.008329  0.151333 -0.003695 -0.015293 -0.006098  0.129446
     3 y      -0.088076  0.033468  0.022528  0.064451 -0.002421  0.029971
     3 z      -0.008285  0.460426  0.002945 -0.001445 -0.061874  0.046926
     4 x       0.069001  0.162866  0.067682 -0.085494  0.489124  0.155684
     4 y      -0.386376  0.017889 -0.279306  0.368803  0.110545  0.036007
     4 z      -0.000457  0.365712  0.004594 -0.004160 -0.212181  0.030766
     5 x       0.063352  0.166102  0.001955 -0.081035 -0.028279  0.088918
     5 y       0.022816  0.030319 -0.011660 -0.023822 -0.019355 -0.014617
     5 z       0.201704  0.085376  0.000168  0.026802  0.287442  0.036715
     6 x      -0.088259  0.160269  0.005775  0.083486 -0.035818  0.071069
     6 y      -0.017899  0.041195 -0.010791  0.014389  0.010404  0.053209
     6 z      -0.205935  0.062320  0.002493 -0.027260  0.286740  0.039914
     7 x      -0.082114 -0.253718  0.074093 -0.004440 -0.191264  0.195686
     7 y       0.426733 -0.031693 -0.333762  0.020052 -0.037469  0.038891
     7 z      -0.002998  0.023274  0.005062 -0.000625  0.354271 -0.259952
     8 x      -0.046834 -0.084732 -0.054335 -0.088900 -0.098828  0.187835
     8 y       0.229808 -0.012199  0.228521  0.385633 -0.024167  0.048979
     8 z      -0.007243 -0.081604 -0.002296 -0.003280 -0.010926  0.014287
     9 x       0.315964 -0.171410 -0.326870 -0.185800  0.218889 -0.269802
     9 y      -0.151568 -0.032182 -0.109705 -0.028893  0.034270 -0.045691
     9 z       0.355273 -0.168518  0.139489  0.286277 -0.079717  0.177375
    10 x      -0.177494 -0.197637  0.340632  0.181601  0.208212 -0.267616
    10 y      -0.274615 -0.056158  0.042233  0.049742  0.063757 -0.076140
    10 z      -0.349578 -0.183716 -0.141776 -0.286962 -0.080282  0.180684
    11 x      -0.009300 -0.150408 -0.153058  0.075480 -0.201325  0.135986
    11 y       0.074957 -0.031601  0.655559 -0.327724 -0.050556  0.032780
    11 z       0.008654  0.110125 -0.008375  0.003734 -0.263992  0.062963
    12 x      -0.024702  0.214194  0.020285  0.125282 -0.274899 -0.569621
    12 y       0.019899  0.035107 -0.079875 -0.542957 -0.067839 -0.138253
    12 z      -0.000845 -0.189391 -0.000475  0.006720 -0.223279 -0.441409


  Frequency     169.8851  181.9782  187.0239  198.7374  205.8256  226.9215
  IR Intensity    0.0041    0.0196    0.0306    0.0036    0.0008    0.0535
     in X         0.0002    0.0007    0.0015    0.0000    0.0000    0.0272
     in Y         0.0039    0.0000    0.0291    0.0000    0.0008    0.0016
     in Z         0.0000    0.0189    0.0000    0.0035    0.0000    0.0247
  Raman Intsty    0.0000    0.2829    0.0000    0.0198    0.0000    0.0095

     1 x       0.048217 -0.152199  0.107279  0.056236 -0.006043  0.215074
     1 y      -0.203375 -0.033648 -0.464189  0.016162  0.021679  0.052172
     1 z       0.004287  0.236516  0.003308  0.165504  0.000358  0.178980
     2 x      -0.008968  0.192028 -0.046561 -0.123648 -0.040206 -0.046669
     2 y       0.034568  0.043152  0.200164 -0.027540  0.175976 -0.008335
     2 z       0.000139 -0.134672 -0.001380  0.115513 -0.001371  0.132758
     3 x      -0.017091 -0.099739  0.024988  0.084240  0.024497  0.139239
     3 y       0.080812 -0.021821 -0.108149  0.016241 -0.106704  0.031100
     3 z       0.000370  0.139549  0.000805 -0.192020 -0.001290 -0.019621
     4 x      -0.009441  0.244812 -0.051664 -0.109129  0.034058 -0.507376
     4 y       0.046720  0.057205  0.223792 -0.023742 -0.146739 -0.115445
     4 z       0.000650  0.018997 -0.002380 -0.110278 -0.000857  0.186082
     5 x      -0.106937 -0.093486 -0.046463  0.044175  0.082707  0.152434
     5 y      -0.102555 -0.055386 -0.346234  0.015808 -0.005999  0.077618
     5 z       0.216413  0.152752 -0.102014  0.091305 -0.568512  0.017019
     6 x       0.143924 -0.108359  0.191633  0.043890 -0.075590  0.170472
     6 y      -0.047645  0.011155 -0.288255  0.005578 -0.030339 -0.003426
     6 z      -0.213734  0.151966  0.109502  0.088189  0.571412  0.021823
     7 x      -0.081838  0.256900  0.024289 -0.164192 -0.059824 -0.007217
     7 y       0.356751  0.054344 -0.106405 -0.039448  0.263528 -0.001515
     7 z      -0.006299 -0.284554  0.002260  0.195367 -0.003775  0.031876
     8 x       0.113175  0.292241 -0.065756  0.001663  0.059743  0.162023
     8 y      -0.480788  0.069211  0.280827  0.003680 -0.258655  0.039044
     8 z       0.006145 -0.029987 -0.002755  0.159507  0.002503  0.208410
     9 x      -0.367337 -0.159785  0.164463 -0.154603 -0.041699  0.055586
     9 y      -0.031123  0.134004  0.109590  0.198324  0.080117  0.086607
     9 z       0.197365 -0.284241  0.125203 -0.394810  0.191205 -0.102010
    10 x       0.340497 -0.083794 -0.195149 -0.052771  0.000424  0.086809
    10 y       0.126150 -0.196102  0.023580 -0.254819  0.083378 -0.054810
    10 z      -0.201037 -0.279030 -0.125009 -0.386542 -0.193696 -0.101394
    11 x       0.010902 -0.289489 -0.030603  0.488243 -0.013677 -0.337044
    11 y      -0.039725 -0.067669  0.134841  0.116323  0.075883 -0.082917
    11 z       0.002095 -0.074863 -0.001726  0.235794  0.000312 -0.494552
    12 x      -0.069350  0.012352 -0.092879 -0.117328  0.039780 -0.142286
    12 y       0.277073  0.007915  0.411759 -0.027499 -0.169555 -0.034455
    12 z      -0.007312  0.341307 -0.006337  0.015415  0.004151 -0.115350


  Frequency     229.5757  259.9055  262.5409  279.3551  316.6346  372.1671
  IR Intensity    0.0227    0.0824    0.0240    0.0160    0.0087    0.0072
     in X         0.0012    0.0139    0.0011    0.0135    0.0005    0.0058
     in Y         0.0216    0.0005    0.0229    0.0007    0.0000    0.0003
     in Z         0.0000    0.0680    0.0000    0.0018    0.0082    0.0012
  Raman Intsty    0.0000    0.0231    0.0000    0.0724    0.1220    0.4935

     1 x       0.054166  0.035763 -0.027650  0.008114 -0.003916 -0.269301
     1 y      -0.234042  0.004279  0.120750  0.003019 -0.002669 -0.063433
     1 z       0.003036 -0.218091 -0.005468  0.041862 -0.207397  0.038591
     2 x      -0.004585  0.276961 -0.072565 -0.331158  0.042976  0.108367
     2 y       0.019185  0.055952  0.344547 -0.076721  0.013027  0.023563
     2 z       0.000925 -0.179696 -0.005508 -0.176758  0.353690 -0.146621
     3 x      -0.120856 -0.034118 -0.000519  0.042702  0.044136  0.330680
     3 y       0.522528 -0.009768 -0.003364  0.009145  0.010552  0.077968
     3 z      -0.006887 -0.196443 -0.002335 -0.087953 -0.007091  0.025809
     4 x       0.110312 -0.292085 -0.001432 -0.136104 -0.032758 -0.057615
     4 y      -0.482339 -0.068466 -0.009662 -0.032098 -0.007350 -0.011080
     4 z       0.002904 -0.115607 -0.001594 -0.027455  0.016223  0.199897
     5 x      -0.352217 -0.032739  0.014475  0.017461  0.002002  0.160331
     5 y       0.082953  0.029640  0.103996 -0.029710 -0.031752 -0.448975
     5 z      -0.121837  0.376737  0.149083  0.366385  0.157120 -0.020674
     6 x       0.280038 -0.016154 -0.057920  0.000759 -0.013595 -0.056292
     6 y       0.234044 -0.035626  0.082536  0.042835  0.032463  0.472352
     6 z       0.119148  0.377888 -0.143131  0.362903  0.154752 -0.031121
     7 x       0.026181  0.035947  0.130695 -0.107666  0.414961 -0.050631
     7 y      -0.114218  0.021120 -0.553125 -0.034577  0.094036 -0.010493
     7 z       0.002532  0.264512  0.012701 -0.553399 -0.253930  0.109980
     8 x      -0.023258  0.165140  0.091248  0.021351 -0.608280 -0.186640
     8 y       0.101124  0.041718 -0.387644  0.003693 -0.139994 -0.044598
     8 z       0.000011 -0.270982 -0.001567  0.057762  0.024936 -0.160820
     9 x       0.032296 -0.251246  0.145908  0.236642 -0.041761 -0.013031
     9 y       0.011515 -0.037979  0.192324 -0.205787  0.216107 -0.048367
     9 z       0.008959  0.121668  0.312782 -0.009622 -0.032849  0.009063
    10 x      -0.033770 -0.233475 -0.223403  0.118185  0.058780 -0.032941
    10 y      -0.006034 -0.076996  0.096169  0.289424 -0.213658  0.037946
    10 z      -0.010957  0.131916 -0.310184 -0.018669 -0.026145  0.007940
    11 x       0.064976  0.063103  0.005608  0.164670 -0.007820  0.184690
    11 y      -0.278166  0.013463 -0.026148  0.038237 -0.002801  0.039462
    11 z       0.004093 -0.108154 -0.001365  0.031480 -0.074582 -0.264781
    12 x      -0.019624  0.229510  0.014859  0.018768  0.129332 -0.150145
    12 y       0.084490  0.052993 -0.048902  0.004912  0.028031 -0.031645
    12 z      -0.001366 -0.069870 -0.000863  0.056169 -0.131404  0.248494


  Frequency     467.3196  483.3712  489.7420  523.6975  576.1387  585.2566
  IR Intensity    0.0232    0.0380    0.0432    0.0212    0.0281    0.0606
     in X         0.0028    0.0277    0.0087    0.0095    0.0144    0.0029
     in Y         0.0000    0.0097    0.0345    0.0009    0.0010    0.0577
     in Z         0.0204    0.0005    0.0000    0.0109    0.0128    0.0000
  Raman Intsty    2.1487    3.2843    0.2060    0.1011    0.2057    0.0000

     1 x      -0.010919 -0.048754  0.011241 -0.136123  0.033932 -0.139857
     1 y       0.000560  0.017150 -0.120248 -0.041301  0.019436  0.639233
     1 z      -0.151156 -0.054728 -0.012446 -0.020256  0.028911 -0.003741
     2 x      -0.272350 -0.090445 -0.023577 -0.133663  0.299969 -0.003722
     2 y      -0.058967 -0.019468 -0.005058 -0.028928  0.065441 -0.007111
     2 z       0.389504  0.147825  0.038201  0.194988 -0.320671  0.005916
     3 x       0.103346 -0.212778 -0.203723  0.033040  0.003804 -0.039259
     3 y       0.034609 -0.226319  0.590233 -0.004912  0.004356  0.177934
     3 z       0.027536 -0.049674 -0.019556  0.004757 -0.001576 -0.001474
     4 x       0.044266 -0.095915 -0.024215  0.021274 -0.000734  0.006044
     4 y       0.010624 -0.021198 -0.020309  0.006873 -0.000821 -0.033095
     4 z       0.116680 -0.323041 -0.091473  0.092338 -0.002322 -0.004952
     5 x      -0.270276  0.268819  0.610684  0.141749 -0.040394 -0.161685
     5 y      -0.269862 -0.218836 -0.187167  0.327644 -0.034568 -0.486679
     5 z      -0.015660  0.010906  0.024052  0.012248  0.008798 -0.014269
     6 x      -0.367598  0.349599 -0.312800  0.274498 -0.039962  0.369893
     6 y       0.109501  0.500333 -0.230876 -0.209898  0.000919 -0.365384
     6 z      -0.020355  0.012619 -0.011451  0.017927  0.009071  0.023543
     7 x      -0.089435 -0.037739 -0.008064 -0.168187 -0.470861  0.010023
     7 y      -0.022130 -0.004561 -0.016799 -0.039582 -0.112420 -0.020309
     7 z      -0.068798 -0.026121 -0.007996 -0.116776 -0.258902  0.002974
     8 x       0.443228  0.131140  0.036359  0.015883 -0.092655  0.001109
     8 y       0.099861  0.036202 -0.014727 -0.001541 -0.019444 -0.022466
     8 z      -0.145139 -0.078281 -0.028559 -0.619658  0.234847 -0.018978
     9 x       0.032551  0.013598  0.004895  0.021747  0.019647  0.003061
     9 y       0.187078  0.095881  0.028244  0.193756  0.417093  0.004032
     9 z       0.056987  0.028148  0.011213  0.087016  0.197482  0.003436
    10 x       0.111019  0.055531  0.013166  0.104747  0.199977 -0.009559
    10 y      -0.152448 -0.080313 -0.020823 -0.162812 -0.360807  0.010901
    10 z       0.060756  0.032030  0.006255  0.091376  0.205555 -0.007922
    11 x       0.097399 -0.302665 -0.076056  0.073668 -0.002737 -0.000337
    11 y       0.020175 -0.054020 -0.057239  0.017090 -0.000817 -0.020359
    11 z      -0.108338  0.335192  0.094710 -0.079768  0.016001  0.004960
    12 x       0.213249  0.037061  0.013494 -0.203264  0.025298 -0.000673
    12 y       0.045559  0.018966 -0.034330 -0.041990  0.004533 -0.031934
    12 z      -0.192970 -0.043198 -0.004137  0.301410 -0.060980  0.010372


  Frequency     692.7509  733.3803  775.3625  795.5960  799.2044  837.8931
  IR Intensity    0.0890    0.0093    0.0082    0.0123    0.0033    0.0001
     in X         0.0657    0.0003    0.0002    0.0051    0.0002    0.0000
     in Y         0.0034    0.0000    0.0000    0.0003    0.0031    0.0000
     in Z         0.0200    0.0089    0.0079    0.0069    0.0000    0.0001
  Raman Intsty    0.0013    0.0099    0.0199    0.1310    0.0002    0.7171

     1 x      -0.366355 -0.147870 -0.335285  0.263413 -0.007980  0.533187
     1 y      -0.077957 -0.037570 -0.075197  0.053848  0.009637  0.117655
     1 z      -0.231262 -0.503194 -0.166145 -0.446326  0.015946 -0.132705
     2 x      -0.054876 -0.251002  0.417726  0.182321 -0.178067  0.071582
     2 y      -0.013353 -0.061453  0.108452  0.070583  0.720139  0.016386
     2 z      -0.032508 -0.197295  0.423994  0.196283 -0.019136  0.065647
     3 x      -0.474444  0.228609  0.082245  0.133817 -0.006301 -0.507479
     3 y      -0.105706  0.053838  0.021589  0.025580  0.001288 -0.111169
     3 z      -0.203794  0.283038  0.292982 -0.444031  0.013289  0.323893
     4 x       0.140972 -0.105638 -0.068286  0.073158 -0.001818 -0.009531
     4 y       0.036231 -0.027329 -0.017924  0.019491 -0.001408 -0.003421
     4 z       0.438049 -0.324336 -0.233546  0.277404 -0.007881 -0.106943
     5 x       0.195533 -0.018381  0.043703 -0.059785  0.001659 -0.008426
     5 y       0.054502  0.072488  0.084215 -0.043768 -0.005295 -0.135669
     5 z       0.013507  0.003453 -0.002566  0.018149 -0.003152 -0.006482
     6 x       0.206173  0.020536  0.082138 -0.075396  0.004380 -0.075510
     6 y       0.023888 -0.072544 -0.058579  0.015580 -0.005273  0.117625
     6 z       0.014079  0.004600 -0.001032  0.017424  0.002097 -0.009600
     7 x       0.072285  0.225124 -0.326865 -0.130073  0.013453 -0.047107
     7 y       0.016849  0.053617 -0.078271 -0.031920 -0.024614 -0.011351
     7 z       0.033632  0.121066 -0.199375 -0.081051  0.004817 -0.046223
     8 x       0.144745  0.150828  0.079912  0.047881  0.002828 -0.038584
     8 y       0.035896  0.037593  0.019431  0.011379 -0.022408 -0.009287
     8 z       0.304137  0.308434  0.151138  0.118977 -0.004776 -0.060440
     9 x       0.005148  0.020942 -0.029151 -0.020912 -0.022415 -0.006650
     9 y       0.036032  0.142461 -0.212293 -0.100532 -0.432209 -0.023945
     9 z       0.010960  0.067011 -0.107167 -0.047505 -0.174938 -0.010427
    10 x       0.020256  0.080567 -0.115128 -0.048080  0.216014 -0.016927
    10 y      -0.029630 -0.116241  0.168465  0.053929 -0.382752  0.019249
    10 z       0.011600  0.069380 -0.107896 -0.036583  0.189335 -0.011333
    11 x       0.220878  0.025793  0.082215 -0.226650  0.007523  0.273515
    11 y       0.048057  0.005755  0.017748 -0.049407  0.001246  0.059542
    11 z      -0.208703 -0.025500 -0.101284  0.233505 -0.007489 -0.274827
    12 x       0.061330 -0.196880  0.055216 -0.250756  0.007586 -0.186713
    12 y       0.012946 -0.041958  0.011853 -0.053508  0.001550 -0.039998
    12 z      -0.060095  0.273341 -0.054664  0.326765 -0.010047  0.220220




--------------------------------------------------------------------------------
  Vibrational properties (for cluster):  Temperature  =       0.000 K
--------------------------------------------------------------------------------
  Zero point energy            =        0.688662 eV
--------------------------------------------------------------------------------

  Phonon density of states : 

--------------------------------------------------------------------------------
 Frequency (cm-1) Density of States                                             
--------------------------------------------------------------------------------
    0.00000 |************************************************************  0.143
   13.09208 |************                                                  0.029
   26.18416 |                                                              0.000
   39.27624 |************                                                  0.029
   52.36832 |************                                                  0.029
   65.46040 |************                                                  0.029
   78.55248 |                                                              0.000
   91.64456 |                                                              0.000
  104.73664 |************                                                  0.029
  117.82872 |                                                              0.000
  130.92080 |                                                              0.000
  144.01288 |************                                                  0.029
  157.10496 |************                                                  0.029
  170.19704 |************                                                  0.029
  183.28913 |************                                                  0.029
  196.38121 |************************                                      0.057
  209.47329 |                                                              0.000
  222.56537 |************************                                      0.057
  235.65745 |                                                              0.000
  248.74953 |************                                                  0.029
  261.84161 |************                                                  0.029
  274.93369 |************                                                  0.029
  288.02577 |                                                              0.000
  301.11785 |                                                              0.000
  314.20993 |************                                                  0.029
  327.30201 |                                                              0.000
  340.39409 |                                                              0.000
  353.48617 |                                                              0.000
  366.57825 |************                                                  0.029
  379.67033 |                                                              0.000
  392.76241 |                                                              0.000
  405.85449 |                                                              0.000
  418.94657 |                                                              0.000
  432.03865 |                                                              0.000
  445.13073 |                                                              0.000
  458.22281 |************                                                  0.029
  471.31489 |************                                                  0.029
  484.40697 |************                                                  0.029
  497.49905 |                                                              0.000
  510.59113 |                                                              0.000
  523.68321 |************                                                  0.029
  536.77530 |                                                              0.000
  549.86738 |                                                              0.000
  562.95946 |                                                              0.000
  576.05154 |************************                                      0.057
  589.14362 |                                                              0.000
  602.23570 |                                                              0.000
  615.32778 |                                                              0.000
  628.41986 |                                                              0.000
  641.51194 |                                                              0.000
  654.60402 |                                                              0.000
  667.69610 |                                                              0.000
  680.78818 |************                                                  0.029
  693.88026 |                                                              0.000
  706.97234 |                                                              0.000
  720.06442 |                                                              0.000
  733.15650 |************                                                  0.029
  746.24858 |                                                              0.000
  759.34066 |                                                              0.000
  772.43274 |************                                                  0.029
  785.52482 |************                                                  0.029
  798.61690 |************                                                  0.029
  811.70898 |                                                              0.000
  824.80106 |************                                                  0.029
--------------------------------------------------------------------------------



  Time to end of optimisation =       0.0313 seconds


  Peak dynamic memory used =       0.65 MB 


  Timing analysis for GULP :

--------------------------------------------------------------------------------
  Task / Subroutine                                          Time (Seconds)
--------------------------------------------------------------------------------
  Calculation of real space energy and derivatives                0.0020
  Calculation of phonons                                          0.0016
  Calculation and manipulation of Hessian matrix                  0.0014
--------------------------------------------------------------------------------
  Total CPU time                                                  0.0314
--------------------------------------------------------------------------------


  Job Finished at 14:39.00 25th May        2022                               

